<event>
 7    1  0.3113530E-004  0.1246531E+03  0.7546771E-02  0.1336357E+00
          2   -1    0    0  502    0  0.00000000000E+00  0.00000000000E+00  0.10985023269E+04  0.10985023269E+04  0.00000000000E+00 0. -1.
          1   -1    0    0  503    0 -0.00000000000E+00 -0.00000000000E+00 -0.12342207427E+03  0.12342207427E+03  0.00000000000E+00 0. -1.
         25    2    1    2    0    0 -0.11520315378E+03  0.33444270139E+02  0.18608532791E+03  0.25425114826E+03  0.12500244510E+03 0.  0.
          4    1    3    3  501    0 -0.87778515141E+02  0.46038223362E+02  0.19827958215E+03  0.22167767440E+03  0.12700000000E+01 0.  1.
         -4    1    3    3    0  501 -0.27424638641E+02 -0.12593953223E+02 -0.12194254243E+02  0.32573473854E+02  0.12700000000E+01 0.  1.
          2    1    1    2  502    0  0.12563136322E+03  0.13572694372E+02  0.86691258189E+03  0.87607355975E+03  0.00000000000E+00 0. -1.
          1    1    1    2  503    0 -0.10428209439E+02 -0.47016964512E+02 -0.77917657123E+02  0.91599693206E+02  0.00000000000E+00 0. -1.
<mgrwt>
<rscale>  0 0.77480551E+02</rscale>
<asrwt>0</asrwt>
<pdfrwt beam="1">  1        2 0.16900035E+00 0.12465306E+03</pdfrwt>
<pdfrwt beam="2">  1        1 0.18988012E-01 0.48159553E+02</pdfrwt>
<totfact> 0.83448459E+02</totfact>
</mgrwt>
</event>
<event>
 7    1  0.3113530E-004  0.7051622E+02  0.7546771E-02  0.1393133E+00
          3   -1    0    0  503    0 -0.00000000000E+00  0.00000000000E+00  0.21920605368E+03  0.21920605368E+03  0.00000000000E+00 0. -1.
          1   -1    0    0  502    0  0.00000000000E+00 -0.00000000000E+00 -0.13501426036E+03  0.13501426036E+03  0.00000000000E+00 0.  1.
         25    2    1    2    0    0 -0.72991426258E+02 -0.63222758411E+01 -0.33551195513E+02  0.14872786367E+03  0.12500630078E+03 0.  0.
          4    1    3    3  501    0 -0.67781879261E+02  0.42536599931E+02  0.12938531814E+02  0.81072584733E+02  0.12700000000E+01 0.  1.
         -4    1    3    3    0  501 -0.52095469971E+01 -0.48858875772E+02 -0.46489727327E+02  0.67655278941E+02  0.12700000000E+01 0.  1.
          1    1    1    2  502    0  0.24530932236E+02 -0.46981555987E+02 -0.14458417019E+02  0.54937046353E+02  0.00000000000E+00 0.  1.
          3    1    1    2  503    0  0.48460494022E+02  0.53303831828E+02  0.13220140585E+03  0.15055540401E+03  0.00000000000E+00 0. -1.
<mgrwt>
<rscale>  0 0.61134131E+02</rscale>
<asrwt>0</asrwt>
<pdfrwt beam="2">  1        1 0.20771425E-01 0.53000314E+02</pdfrwt>
<pdfrwt beam="1">  1        3 0.33724008E-01 0.70516225E+02</pdfrwt>
<totfact> 0.10002233E+03</totfact>
</mgrwt>
</event>
<event>
 7    1  0.3113530E-004  0.1548844E+03  0.7546771E-02  0.1372588E+00
         -3   -1    0    0    0  501 -0.00000000000E+00  0.00000000000E+00  0.18503157941E+03  0.18503157941E+03  0.00000000000E+00 0.  1.
          2   -1    0    0  503    0  0.00000000000E+00 -0.00000000000E+00 -0.11354578677E+04  0.11354578677E+04  0.00000000000E+00 0. -1.
         25    2    1    2    0    0 -0.67705651924E+02  0.13692820897E+03 -0.27427949754E+02  0.19927446244E+03  0.12499851695E+03 0.  0.
          4    1    3    3  502    0 -0.73289921020E+02  0.23050007527E+02 -0.36151493199E+02  0.84919130534E+02  0.12700000000E+01 0. -1.
         -4    1    3    3    0  502  0.55842690965E+01  0.11387820145E+03  0.87235434458E+01  0.11435533191E+03  0.12700000000E+01 0. -1.
          2    1    1    2  503    0  0.93176085374E+02 -0.12411572823E+03 -0.10140222502E+04  0.10258302105E+04  0.00000000000E+00 0. -1.
         -3    1    1    2    0  501 -0.25470433450E+02 -0.12812480739E+02  0.91023911672E+02  0.95384774146E+02  0.00000000000E+00 0.  1.
<mgrwt>
<rscale>  0 0.66452825E+02</rscale>
<asrwt>0</asrwt>
<pdfrwt beam="2">  1        2 0.17468583E+00 0.15488438E+03</pdfrwt>
<pdfrwt beam="1">  1       -3 0.28466396E-01 0.28511448E+02</pdfrwt>
<totfact> 0.13868964E+02</totfact>
</mgrwt>
</event>
<event>
 7    1  0.3113530E-004  0.9527329E+02  0.7546771E-02  0.1339985E+00
          2   -1    0    0  502    0  0.00000000000E+00  0.00000000000E+00  0.12091212500E+03  0.12091212500E+03  0.00000000000E+00 0. -1.
          1   -1    0    0  503    0 -0.00000000000E+00 -0.00000000000E+00 -0.39383431807E+03  0.39383431807E+03  0.00000000000E+00 0. -1.
         25    2    1    2    0    0 -0.28972762635E+02  0.83170077307E+02  0.24664524069E+02  0.15490270799E+03  0.12501930835E+03 0.  0.
          4    1    3    3  501    0 -0.73281671023E+02  0.24259830654E+02  0.13158594652E+00  0.77203451387E+02  0.12700000000E+01 0.  1.
         -4    1    3    3    0  501  0.44308908388E+02  0.58910246653E+02  0.24532938122E+02  0.77699256600E+02  0.12700000000E+01 0.  1.
          2    1    1    2  502    0  0.36844159101E+02  0.48685940374E+02 -0.48786532726E+02  0.78153302076E+02  0.00000000000E+00 0. -1.
          1    1    1    2  503    0 -0.78713964663E+01 -0.13185601768E+03 -0.24880018441E+03  0.28169043300E+03  0.00000000000E+00 0. -1.
<mgrwt>
<rscale>  0 0.76269183E+02</rscale>
<asrwt>0</asrwt>
<pdfrwt beam="1">  1        2 0.18601865E-01 0.95273285E+02</pdfrwt>
<pdfrwt beam="2">  1        1 0.60589895E-01 0.61055817E+02</pdfrwt>
<totfact> 0.24812750E+03</totfact>
</mgrwt>
</event>
<event>
 7    1  0.3113530E-004  0.1220313E+03  0.7546771E-02  0.1307042E+00
          3   -1    0    0  503    0 -0.00000000000E+00  0.00000000000E+00  0.23505040057E+03  0.23505040057E+03  0.00000000000E+00 0. -1.
          2   -1    0    0  502    0  0.00000000000E+00 -0.00000000000E+00 -0.78433085635E+03  0.78433085635E+03  0.00000000000E+00 0. -1.
         25    2    1    2    0    0  0.95066071195E+02  0.17769256276E+02 -0.16443915688E+02  0.15889560000E+03  0.12499641985E+03 0.  0.
          4    1    3    3  501    0 -0.28845537143E+02  0.14771640318E+02 -0.12860573145E+02  0.34889448438E+02  0.12700000000E+01 0. -1.
         -4    1    3    3    0  501  0.12391160834E+03  0.29976159579E+01 -0.35833425430E+01  0.12400615156E+03  0.12700000000E+01 0. -1.
          2    1    1    2  502    0 -0.94688553377E+02 -0.81648695081E+02 -0.68454868924E+03  0.69587307714E+03  0.00000000000E+00 0. -1.
          3    1    1    2  503    0 -0.37751781807E+00  0.63879438805E+02  0.15171214914E+03  0.16461257977E+03  0.00000000000E+00 0. -1.
<mgrwt>
<rscale>  0 0.88291720E+02</rscale>
<asrwt>0</asrwt>
<pdfrwt beam="2">  1        2 0.12066628E+00 0.12203131E+03</pdfrwt>
<pdfrwt beam="1">  1        3 0.36161601E-01 0.63880554E+02</pdfrwt>
<totfact> 0.16243858E+02</totfact>
</mgrwt>
</event>
<event>
 7    1  0.3113530E-004  0.1739366E+03  0.7546771E-02  0.1259263E+00
         -1   -1    0    0    0  501 -0.00000000000E+00  0.00000000000E+00  0.63478750629E+03  0.63478750629E+03  0.00000000000E+00 0.  1.
          1   -1    0    0  503    0  0.00000000000E+00 -0.00000000000E+00 -0.29140015682E+04  0.29140015682E+04  0.00000000000E+00 0. -1.
         25    2    1    2    0    0 -0.11550864245E+03 -0.92580440977E+02 -0.66136927347E+03  0.68916364476E+03  0.12499531524E+03 0.  0.
          4    1    3    3  502    0 -0.99995957743E+02 -0.73340402866E+02 -0.65035914857E+03  0.66207751909E+03  0.12700000000E+01 0.  1.
         -4    1    3    3    0  502 -0.15512684712E+02 -0.19240038111E+02 -0.11010124908E+02  0.27086125673E+02  0.12700000000E+01 0.  1.
          1    1    1    2  503    0  0.17486702800E+03  0.54608307579E+02 -0.22329726077E+04  0.22404747737E+04  0.00000000000E+00 0. -1.
         -1    1    1    2    0  501 -0.59358385544E+02  0.37972133398E+02  0.61512781927E+03  0.61915065605E+03  0.00000000000E+00 0.  1.
<mgrwt>
<rscale>  0 0.11070873E+03</rscale>
<asrwt>0</asrwt>
<pdfrwt beam="2">  1        1 0.44830794E+00 0.17393658E+03</pdfrwt>
<pdfrwt beam="1">  1       -1 0.97659615E-01 0.70464891E+02</pdfrwt>
<totfact> 0.10168876E+00</totfact>
</mgrwt>
</event>
<event>
 7    1  0.3113530E-004  0.4921446E+02  0.7546771E-02  0.1572525E+00
         -1   -1    0    0    0  501 -0.00000000000E+00  0.00000000000E+00  0.61932098208E+02  0.61932098208E+02  0.00000000000E+00 0.  1.
          1   -1    0    0  503    0  0.00000000000E+00 -0.00000000000E+00 -0.24202213402E+03  0.24202213402E+03  0.00000000000E+00 0. -1.
         25    2    1    2    0    0  0.51744437614E+02 -0.36369428437E+01 -0.13594468824E+03  0.19182071326E+03  0.12499405425E+03 0.  0.
          4    1    3    3  502    0  0.63902619692E+02  0.35240981793E+02 -0.13205279202E+03  0.15088082841E+03  0.12700000000E+01 0. -1.
         -4    1    3    3    0  502 -0.12158182078E+02 -0.38877924637E+02 -0.38918962227E+01  0.40939884852E+02  0.12700000000E+01 0. -1.
          1    1    1    2  503    0 -0.54042318260E+01  0.20697114651E+02 -0.57189343761E+02  0.61058965897E+02  0.00000000000E+00 0. -1.
         -1    1    1    2    0  501 -0.46340205788E+02 -0.17060171808E+02  0.13043996193E+02  0.51074553070E+02  0.00000000000E+00 0.  1.
<mgrwt>
<rscale>  0 0.32446080E+02</rscale>
<asrwt>0</asrwt>
<pdfrwt beam="2">  1        1 0.37234174E-01 0.21391033E+02</pdfrwt>
<pdfrwt beam="1">  1       -1 0.95280153E-02 0.49214460E+02</pdfrwt>
<totfact> 0.65018771E+03</totfact>
</mgrwt>
</event>
<event>
 7    1  0.3113530E-004  0.3280142E+02  0.7546771E-02  0.1626462E+00
         -1   -1    0    0    0  501 -0.00000000000E+00  0.00000000000E+00  0.52859774464E+02  0.52859774464E+02  0.00000000000E+00 0.  1.
          2   -1    0    0  503    0  0.00000000000E+00 -0.00000000000E+00 -0.22900722193E+03  0.22900722193E+03  0.00000000000E+00 0. -1.
         25    2    1    2    0    0  0.10292444687E+02 -0.34156376631E+02 -0.12236578241E+03  0.17852448778E+03  0.12500006220E+03 0.  0.
          4    1    3    3  502    0 -0.51008134630E+01 -0.74427863526E+02 -0.37908623515E+02  0.83691109467E+02  0.12700000000E+01 0. -1.
         -4    1    3    3    0  502  0.15393258150E+02  0.40271486895E+02 -0.84457158896E+02  0.94833378312E+02  0.12700000000E+01 0. -1.
          2    1    1    2  503    0  0.12668105578E+02  0.30877730361E+02 -0.68272937073E+02  0.75994138377E+02  0.00000000000E+00 0. -1.
         -1    1    1    2    0  501 -0.22960550264E+02  0.32786462699E+01  0.14491272020E+02  0.27348370236E+02  0.00000000000E+00 0.  1.
<mgrwt>
<rscale>  0 0.27582208E+02</rscale>
<asrwt>0</asrwt>
<pdfrwt beam="2">  1        2 0.35231881E-01 0.32801417E+02</pdfrwt>
<pdfrwt beam="1">  1       -1 0.81322729E-02 0.23193456E+02</pdfrwt>
<totfact> 0.10958536E+04</totfact>
</mgrwt>
</event>
<event>
 7    1  0.3113530E-004  0.3785709E+02  0.7546771E-02  0.1526496E+00
         -1   -1    0    0    0  501 -0.00000000000E+00  0.00000000000E+00  0.37918694856E+03  0.37918694856E+03  0.00000000000E+00 0.  1.
          2   -1    0    0  503    0  0.00000000000E+00 -0.00000000000E+00 -0.29865609945E+02  0.29865609945E+02  0.00000000000E+00 0. -1.
         25    2    1    2    0    0 -0.20517142274E+02  0.78849624648E+01  0.17803225115E+03  0.21864247114E+03  0.12500368786E+03 0.  0.
          4    1    3    3  502    0 -0.47954268061E+02 -0.42634351444E+02  0.12454809752E+03  0.14011117459E+03  0.12700000000E+01 0. -1.
         -4    1    3    3    0  502  0.27437125787E+02  0.50519313909E+02  0.53484153627E+02  0.78531296554E+02  0.12700000000E+01 0. -1.
          2    1    1    2  503    0 -0.16357396806E+02 -0.33615306662E+02  0.91152666945E+02  0.98520870699E+02  0.00000000000E+00 0. -1.
         -1    1    1    2    0  501  0.36874539080E+02  0.25730344197E+02  0.80136420522E+02  0.91889216663E+02  0.00000000000E+00 0.  1.
<mgrwt>
<rscale>  0 0.37619733E+02</rscale>
<asrwt>0</asrwt>
<pdfrwt beam="2">  1        2 0.45947095E-02 0.37383864E+02</pdfrwt>
<pdfrwt beam="1">  1       -1 0.58336450E-01 0.37857090E+02</pdfrwt>
<totfact> 0.52188321E+03</totfact>
</mgrwt>
</event>
<event>
 7    1  0.3113530E-004  0.4234812E+02  0.7546771E-02  0.1504982E+00
          2   -1    0    0  502    0  0.00000000000E+00  0.00000000000E+00  0.73372165347E+03  0.73372165347E+03  0.00000000000E+00 0. -1.
          1   -1    0    0  503    0 -0.00000000000E+00 -0.00000000000E+00 -0.15109028371E+03  0.15109028371E+03  0.00000000000E+00 0. -1.
         25    2    1    2    0    0 -0.71734897177E+02 -0.17745652371E+02  0.20147828360E+03  0.24835003301E+03  0.12499374577E+03 0.  0.
          4    1    3    3  501    0  0.24255348742E+01 -0.43574954900E+02  0.14548153180E+03  0.15189189876E+03  0.12700000000E+01 0.  1.
         -4    1    3    3    0  501 -0.74160432051E+02  0.25829302529E+02  0.55996751801E+02  0.96458134252E+02  0.12700000000E+01 0.  1.
          2    1    1    2  502    0  0.41000516814E+02 -0.56437777413E+01  0.50502017846E+03  0.50671320809E+03  0.00000000000E+00 0. -1.
          1    1    1    2  503    0  0.30734380362E+02  0.23389430112E+02 -0.12386709230E+03  0.12974869607E+03  0.00000000000E+00 0. -1.
<mgrwt>
<rscale>  0 0.40442226E+02</rscale>
<asrwt>0</asrwt>
<pdfrwt beam="1">  1        2 0.11288025E+00 0.42348115E+02</pdfrwt>
<pdfrwt beam="2">  1        1 0.23244660E-01 0.38622113E+02</pdfrwt>
<totfact> 0.11339804E+03</totfact>
</mgrwt>
</event>
<event>
 7    1  0.3113530E-004  0.4021875E+02  0.7546771E-02  0.1549728E+00
          1   -1    0    0  503    0  0.00000000000E+00  0.00000000000E+00  0.18672641913E+04  0.18672641913E+04  0.00000000000E+00 0. -1.
          1   -1    0    0  502    0 -0.00000000000E+00 -0.00000000000E+00 -0.30558108563E+02  0.30558108563E+02  0.00000000000E+00 0. -1.
         25    2    1    2    0    0 -0.46015565213E+02 -0.94012562944E+01  0.22231178999E+03  0.25933259273E+03  0.12500018330E+03 0.  0.
          4    1    3    3  501    0 -0.14007276434E+02  0.19288853939E+01 -0.14384354870E+02  0.20210070682E+02  0.12700000000E+01 0.  1.
         -4    1    3    3    0  501 -0.32008288779E+02 -0.11330141688E+02  0.23669614486E+03  0.23912252205E+03  0.12700000000E+01 0.  1.
          1    1    1    2  502    0  0.20770736065E+02 -0.21975863250E+02  0.75842037516E+01  0.31175025081E+02  0.00000000000E+00 0. -1.
          1    1    1    2  503    0  0.25244829148E+02  0.31377119545E+02  0.16068100890E+04  0.16073146820E+04  0.00000000000E+00 0. -1.
<mgrwt>
<rscale>  0 0.34873364E+02</rscale>
<asrwt>0</asrwt>
<pdfrwt beam="1">  1        1 0.28727133E+00 0.40218751E+02</pdfrwt>
<pdfrwt beam="2">  1        1 0.47012489E-02 0.30238420E+02</pdfrwt>
<totfact> 0.89532394E+02</totfact>
</mgrwt>
</event>
<event>
 7    1  0.3113530E-004  0.8504753E+02  0.7546771E-02  0.1366539E+00
         -2   -1    0    0    0  501  0.00000000000E+00  0.00000000000E+00  0.25850439261E+03  0.25850439261E+03  0.00000000000E+00 0.  1.
         -2   -1    0    0    0  502 -0.00000000000E+00 -0.00000000000E+00 -0.52390106627E+03  0.52390106627E+03  0.00000000000E+00 0.  1.
         25    2    1    2    0    0 -0.75504244439E+02  0.10849761293E+01 -0.12664631829E+03  0.19330291834E+03  0.12499864079E+03 0.  0.
          4    1    3    3  503    0 -0.48989176682E+02 -0.30104033480E+02  0.27503550936E+01  0.57579246408E+02  0.12700000000E+01 0. -1.
         -4    1    3    3    0  503 -0.26515067757E+02  0.31189009610E+02 -0.12939667339E+03  0.13572367193E+03  0.12700000000E+01 0. -1.
         -2    1    1    2    0  502  0.71144353399E+02  0.53332586446E+02 -0.35505300056E+03  0.36601709933E+03  0.00000000000E+00 0.  1.
         -2    1    1    2    0  501  0.43598910397E+01 -0.54417562575E+02  0.21630264519E+03  0.22308544121E+03  0.00000000000E+00 0.  1.
<mgrwt>
<rscale>  0 0.68138897E+02</rscale>
<asrwt>0</asrwt>
<pdfrwt beam="1">  1       -2 0.39769907E-01 0.54591939E+02</pdfrwt>
<pdfrwt beam="2">  1       -2 0.80600164E-01 0.85047526E+02</pdfrwt>
<totfact> 0.55894799E+01</totfact>
</mgrwt>
</event>
<event>
 7    1  0.3113530E-004  0.6461091E+02  0.7546771E-02  0.1415846E+00
          2   -1    0    0  503    0  0.00000000000E+00  0.00000000000E+00  0.34573669180E+03  0.34573669180E+03  0.00000000000E+00 0. -1.
         -1   -1    0    0    0  501 -0.00000000000E+00 -0.00000000000E+00 -0.96797349703E+02  0.96797349703E+02  0.00000000000E+00 0.  1.
         25    2    1    2    0    0 -0.74933949179E+02  0.41562917475E+02  0.28047252054E+03  0.31879823728E+03  0.12499963388E+03 0.  0.
          4    1    3    3  502    0 -0.28185201921E+02  0.37068003195E+02  0.26540132087E+03  0.26945856173E+03  0.12700000000E+01 0. -1.
         -4    1    3    3    0  502 -0.46748747257E+02  0.44949142802E+01  0.15071199664E+02  0.49339675555E+02  0.12700000000E+01 0. -1.
          2    1    1    2  503    0  0.45796655391E+02  0.15598034045E+02  0.70167498622E+01  0.48886266882E+02  0.00000000000E+00 0. -1.
         -1    1    1    2    0  501  0.29137293788E+02 -0.57160951520E+02 -0.38549928300E+02  0.74849537339E+02  0.00000000000E+00 0.  1.
<mgrwt>
<rscale>  0 0.55909581E+02</rscale>
<asrwt>0</asrwt>
<pdfrwt beam="1">  1        2 0.53190260E-01 0.48380082E+02</pdfrwt>
<pdfrwt beam="2">  1       -1 0.14891900E-01 0.64610913E+02</pdfrwt>
<totfact> 0.32329322E+03</totfact>
</mgrwt>
</event>
<event>
 7    1  0.3113530E-004  0.1199743E+03  0.7546771E-02  0.1308297E+00
          1   -1    0    0  503    0 -0.00000000000E+00  0.00000000000E+00  0.86860400687E+02  0.86860400687E+02  0.00000000000E+00 0. -1.
          2   -1    0    0  502    0  0.00000000000E+00 -0.00000000000E+00 -0.18831136746E+04  0.18831136746E+04  0.00000000000E+00 0. -1.
         25    2    1    2    0    0  0.16355603414E+03  0.56823652839E+02 -0.80205857434E+03  0.83000144468E+03  0.12499975066E+03 0.  0.
          4    1    3    3  501    0 -0.15717051361E+02 -0.14119270227E+01 -0.19793305522E+02  0.25345750825E+02  0.12700000000E+01 0. -1.
         -4    1    3    3    0  501  0.17927308550E+03  0.58235579862E+02 -0.78226526882E+03  0.80465569386E+03  0.12700000000E+01 0. -1.
          2    1    1    2  502    0 -0.10142001969E+03 -0.40527306014E+02 -0.10495241890E+04  0.10551916917E+04  0.00000000000E+00 0. -1.
          1    1    1    2  503    0 -0.62136014457E+02 -0.16296346825E+02  0.55329489394E+02  0.84780938949E+02  0.00000000000E+00 0. -1.
<mgrwt>
<rscale>  0 0.87788643E+02</rscale>
<asrwt>0</asrwt>
<pdfrwt beam="2">  1        2 0.28970976E+00 0.11997427E+03</pdfrwt>
<pdfrwt beam="1">  1        1 0.13363140E-01 0.64237491E+02</pdfrwt>
<totfact> 0.51062413E+02</totfact>
</mgrwt>
</event>
<event>
 7    1  0.3113530E-004  0.8978610E+02  0.7546771E-02  0.1307838E+00
          1   -1    0    0  503    0 -0.00000000000E+00  0.00000000000E+00  0.15181721746E+04  0.15181721746E+04  0.00000000000E+00 0. -1.
          2   -1    0    0  502    0  0.00000000000E+00 -0.00000000000E+00 -0.10404258023E+03  0.10404258023E+03  0.00000000000E+00 0. -1.
         25    2    1    2    0    0 -0.96122537828E+01  0.11436906983E+02  0.39753806170E+03  0.41698255140E+03  0.12495895090E+03 0.  0.
          4    1    3    3  501    0 -0.36527920382E+02  0.43989994375E+02  0.34426848843E+03  0.34898683872E+03  0.12700000000E+01 0. -1.
         -4    1    3    3    0  501  0.26915666600E+02 -0.32553087392E+02  0.53269573271E+02  0.67995712687E+02  0.12700000000E+01 0. -1.
          2    1    1    2  502    0 -0.65479365268E+02  0.61432854729E+02 -0.69854275842E+02  0.11375923158E+03  0.00000000000E+00 0. -1.
          1    1    1    2  503    0  0.75091619051E+02 -0.72869761712E+02  0.10864458085E+04  0.10914729718E+04  0.00000000000E+00 0. -1.
<mgrwt>
<rscale>  0 0.87972171E+02</rscale>
<asrwt>0</asrwt>
<pdfrwt beam="2">  1        2 0.16006552E-01 0.89786095E+02</pdfrwt>
<pdfrwt beam="1">  1        1 0.23356493E+00 0.86194893E+02</pdfrwt>
<totfact> 0.36341227E+02</totfact>
</mgrwt>
</event>
<event>
 7    1  0.3113530E-004  0.1299774E+03  0.7546771E-02  0.1365141E+00
          1   -1    0    0  503    0  0.00000000000E+00  0.00000000000E+00  0.59584489826E+03  0.59584489826E+03  0.00000000000E+00 0. -1.
         -1   -1    0    0    0  501 -0.00000000000E+00 -0.00000000000E+00 -0.90570547526E+02  0.90570547526E+02  0.00000000000E+00 0.  1.
         25    2    1    2    0    0  0.10978157901E+03  0.26649576778E+02  0.28075852798E+03  0.32743723559E+03  0.12501038830E+03 0.  0.
          4    1    3    3  502    0  0.69796041253E+02  0.61282678078E+02  0.89492453047E+02  0.12898668947E+03  0.12700000000E+01 0. -1.
         -4    1    3    3    0  502  0.39985537760E+02 -0.34633101300E+02  0.19126607493E+03  0.19845054612E+03  0.12700000000E+01 0. -1.
          1    1    1    2  503    0 -0.13318602383E+03 -0.54186398061E+02  0.26696782957E+03  0.30322682056E+03  0.00000000000E+00 0. -1.
         -1    1    1    2    0  501  0.23404444819E+02  0.27536821283E+02 -0.42452006820E+02  0.55751389639E+02  0.00000000000E+00 0.  1.
<mgrwt>
<rscale>  0 0.68536728E+02</rscale>
<asrwt>0</asrwt>
<pdfrwt beam="1">  1        1 0.91668444E-01 0.12997737E+03</pdfrwt>
<pdfrwt beam="2">  1       -1 0.13933931E-01 0.36139239E+02</pdfrwt>
<totfact> 0.11832745E+03</totfact>
</mgrwt>
</event>
<event>
 7    1  0.3113530E-004  0.2496367E+03  0.7546771E-02  0.1245584E+00
          2   -1    0    0  502    0  0.00000000000E+00  0.00000000000E+00  0.19932536274E+04  0.19932536274E+04  0.00000000000E+00 0. -1.
          1   -1    0    0  503    0 -0.00000000000E+00 -0.00000000000E+00 -0.23327460585E+04  0.23327460585E+04  0.00000000000E+00 0. -1.
         25    2    1    2    0    0 -0.14112986186E+03 -0.16902682644E+03  0.10887823439E+04  0.11178364163E+04  0.12499422109E+03 0.  0.
          4    1    3    3  501    0 -0.10334513642E+01 -0.20530265138E+02  0.37137314938E+03  0.37194379789E+03  0.12700000000E+01 0.  1.
         -4    1    3    3    0  501 -0.14009641050E+03 -0.14849656130E+03  0.71740919453E+03  0.74589261844E+03  0.12700000000E+01 0.  1.
          2    1    1    2  502    0 -0.54562082246E+02  0.13698929197E+02  0.88231416908E+03  0.88410574845E+03  0.00000000000E+00 0. -1.
          1    1    1    2  503    0  0.19569194411E+03  0.15532789724E+03 -0.23105889441E+04  0.23240575210E+04  0.00000000000E+00 0. -1.
<mgrwt>
<rscale>  0 0.11850501E+03</rscale>
<asrwt>0</asrwt>
<pdfrwt beam="1">  1        2 0.30665441E+00 0.56255502E+02</pdfrwt>
<pdfrwt beam="2">  1        1 0.35888401E+00 0.24963668E+03</pdfrwt>
<totfact> 0.25272047E+00</totfact>
</mgrwt>
</event>
<event>
 7    1  0.3113530E-004  0.7972562E+02  0.7546771E-02  0.1365605E+00
          1   -1    0    0  503    0 -0.00000000000E+00  0.00000000000E+00  0.10697746643E+03  0.10697746643E+03  0.00000000000E+00 0. -1.
          2   -1    0    0  502    0  0.00000000000E+00 -0.00000000000E+00 -0.14046223141E+04  0.14046223141E+04  0.00000000000E+00 0. -1.
         25    2    1    2    0    0 -0.72230864573E+02  0.38277152366E+02 -0.11392810195E+03  0.18782702706E+03  0.12496776181E+03 0.  0.
          4    1    3    3  501    0  0.20619717277E+02  0.46707006716E+02 -0.64574211651E+02  0.82329575046E+02  0.12700000000E+01 0.  1.
         -4    1    3    3    0  501 -0.92850581850E+02 -0.84298543509E+01 -0.49353890301E+02  0.10549745202E+03  0.12700000000E+01 0.  1.
          2    1    1    2  502    0  0.77820238674E+02  0.20146918150E+02 -0.12399130717E+04  0.12425161219E+04  0.00000000000E+00 0. -1.
          1    1    1    2  503    0 -0.55893741012E+01 -0.58424070516E+02  0.56196325979E+02  0.81256631557E+02  0.00000000000E+00 0. -1.
<mgrwt>
<rscale>  0 0.68404404E+02</rscale>
<asrwt>0</asrwt>
<pdfrwt beam="2">  1        2 0.21609573E+00 0.79725618E+02</pdfrwt>
<pdfrwt beam="1">  1        1 0.16458073E-01 0.58690827E+02</pdfrwt>
<totfact> 0.70879934E+02</totfact>
</mgrwt>
</event>
<event>
 7    1  0.3113530E-004  0.5590841E+02  0.7546771E-02  0.1460120E+00
          2   -1    0    0  503    0  0.00000000000E+00  0.00000000000E+00  0.82908085235E+03  0.82908085235E+03  0.00000000000E+00 0. -1.
         -2   -1    0    0    0  501 -0.00000000000E+00 -0.00000000000E+00 -0.37959553522E+03  0.37959553522E+03  0.00000000000E+00 0.  1.
         25    2    1    2    0    0 -0.56485254291E+02 -0.60171629865E+02 -0.13871152101E+03  0.20414429997E+03  0.12499120030E+03 0.  0.
          4    1    3    3  502    0  0.13507063330E+02 -0.25283432252E+02  0.14480287340E+02  0.32140073548E+02  0.12700000000E+01 0.  1.
         -4    1    3    3    0  502 -0.69992317621E+02 -0.34888197613E+02 -0.15319180835E+03  0.17200422642E+03  0.12700000000E+01 0.  1.
          2    1    1    2  503    0  0.39016653112E+02  0.93434506550E+01  0.79237932578E+03  0.79339435037E+03  0.00000000000E+00 0. -1.
         -2    1    1    2    0  501  0.17468601179E+02  0.50828179210E+02 -0.20418248763E+03  0.21113773723E+03  0.00000000000E+00 0.  1.
<mgrwt>
<rscale>  0 0.47360691E+02</rscale>
<asrwt>0</asrwt>
<pdfrwt beam="1">  1        2 0.12755090E+00 0.40119812E+02</pdfrwt>
<pdfrwt beam="2">  1       -2 0.58399314E-01 0.55908414E+02</pdfrwt>
<totfact> 0.10448311E+02</totfact>
</mgrwt>
</event>
<event>
 7    1  0.3113530E-004  0.6134585E+02  0.7546771E-02  0.1419347E+00
         -1   -1    0    0    0  501 -0.00000000000E+00  0.00000000000E+00  0.52321230090E+03  0.52321230090E+03  0.00000000000E+00 0.  1.
          1   -1    0    0  503    0  0.00000000000E+00 -0.00000000000E+00 -0.87066082668E+03  0.87066082668E+03  0.00000000000E+00 0. -1.
         25    2    1    2    0    0  0.54155665375E+02 -0.53666170136E+01 -0.72941622088E+03  0.74205006586E+03  0.12501456033E+03 0.  0.
          4    1    3    3  502    0  0.88588139736E+02  0.29223239864E+00 -0.35034312855E+03  0.36137219666E+03  0.12700000000E+01 0.  1.
         -4    1    3    3    0  502 -0.34432474361E+02 -0.56588494123E+01 -0.37907309233E+03  0.38067786920E+03  0.12700000000E+01 0.  1.
          1    1    1    2  503    0 -0.74341324420E+02 -0.39936459847E+02 -0.12039086724E+03  0.14702215567E+03  0.00000000000E+00 0. -1.
         -1    1    1    2    0  501  0.20185659044E+02  0.45303076861E+02  0.50235856234E+03  0.50480090606E+03  0.00000000000E+00 0.  1.
<mgrwt>
<rscale>  0 0.55159312E+02</rscale>
<asrwt>0</asrwt>
<pdfrwt beam="2">  1        1 0.13394782E+00 0.61345847E+02</pdfrwt>
<pdfrwt beam="1">  1       -1 0.80494201E-01 0.49596669E+02</pdfrwt>
<totfact> 0.37634340E+01</totfact>
</mgrwt>
</event>
<event>
 7    1  0.3113530E-004  0.7892142E+02  0.7546771E-02  0.1471837E+00
          1   -1    0    0  503    0 -0.00000000000E+00  0.00000000000E+00  0.12788710187E+03  0.12788710187E+03  0.00000000000E+00 0. -1.
          2   -1    0    0  502    0  0.00000000000E+00 -0.00000000000E+00 -0.78621531618E+03  0.78621531618E+03  0.00000000000E+00 0. -1.
         25    2    1    2    0    0  0.32291835404E+02 -0.55399750106E+02 -0.18319073685E+03  0.23086067573E+03  0.12500364228E+03 0.  0.
          4    1    3    3  501    0  0.16095897501E+02 -0.48176885304E+02 -0.41941155522E+01  0.50983268816E+02  0.12700000000E+01 0. -1.
         -4    1    3    3    0  501  0.16195937904E+02 -0.72228648021E+01 -0.17899662130E+03  0.17987740691E+03  0.12700000000E+01 0. -1.
          2    1    1    2  502    0 -0.13234413408E+02 -0.22519929402E+02 -0.56338172405E+03  0.56398693594E+03  0.00000000000E+00 0. -1.
          1    1    1    2  503    0 -0.19057421996E+02  0.77919679508E+02  0.88244246591E+02  0.11925480638E+03  0.00000000000E+00 0. -1.
<mgrwt>
<rscale>  0 0.45403653E+02</rscale>
<asrwt>0</asrwt>
<pdfrwt beam="2">  1        2 0.12095620E+00 0.26120814E+02</pdfrwt>
<pdfrwt beam="1">  1        1 0.19674939E-01 0.78921420E+02</pdfrwt>
<totfact> 0.13452865E+03</totfact>
</mgrwt>
</event>
<event>
 7    1  0.3113530E-004  0.7885220E+02  0.7546771E-02  0.1459126E+00
          1   -1    0    0  503    0 -0.00000000000E+00  0.00000000000E+00  0.27107605222E+03  0.27107605222E+03  0.00000000000E+00 0. -1.
          2   -1    0    0  502    0  0.00000000000E+00 -0.00000000000E+00 -0.65634863794E+03  0.65634863794E+03  0.00000000000E+00 0. -1.
         25    2    1    2    0    0  0.78984257376E+02 -0.70235372137E+01  0.48233737362E+02  0.15568913190E+03  0.12499907753E+03 0.  0.
          4    1    3    3  501    0  0.66501164613E+02  0.39123967707E+01 -0.31881570367E+02  0.73863111040E+02  0.12700000000E+01 0. -1.
         -4    1    3    3    0  501  0.12483092763E+02 -0.10935933984E+02  0.80115307729E+02  0.81826020859E+02  0.12700000000E+01 0. -1.
          2    1    1    2  502    0 -0.74079615232E+01 -0.27678133120E+02 -0.59290213399E+03  0.59359405105E+03  0.00000000000E+00 0. -1.
          1    1    1    2  503    0 -0.71576295853E+02  0.34701670334E+02  0.15939581092E+03  0.17814150721E+03  0.00000000000E+00 0. -1.
<mgrwt>
<rscale>  0 0.47532102E+02</rscale>
<asrwt>0</asrwt>
<pdfrwt beam="2">  1        2 0.10097671E+00 0.28652346E+02</pdfrwt>
<pdfrwt beam="1">  1        1 0.41704009E-01 0.78852205E+02</pdfrwt>
<totfact> 0.65130632E+02</totfact>
</mgrwt>
</event>
<event>
 7    1  0.3113530E-004  0.7867774E+02  0.7546771E-02  0.1495491E+00
          2   -1    0    0  502    0  0.00000000000E+00  0.00000000000E+00  0.17463921024E+04  0.17463921024E+04  0.00000000000E+00 0. -1.
          2   -1    0    0  503    0 -0.00000000000E+00 -0.00000000000E+00 -0.45615240224E+03  0.45615240224E+03  0.00000000000E+00 0. -1.
         25    2    1    2    0    0 -0.58216808359E+01 -0.65728960755E+02  0.13144867509E+04  0.13220651751E+04  0.12500688267E+03 0.  0.
          4    1    3    3  501    0  0.26053778801E+02 -0.41546848133E+02  0.17151590523E+03  0.17839354984E+03  0.12700000000E+01 0. -1.
         -4    1    3    3    0  501 -0.31875459637E+02 -0.24182112622E+02  0.11429708457E+04  0.11436716253E+04  0.12700000000E+01 0. -1.
          2    1    1    2  502    0 -0.20516633757E+02 -0.84500754120E+01  0.42439975265E+03  0.42497939489E+03  0.00000000000E+00 0. -1.
          2    1    1    2  503    0  0.26338314593E+02  0.74179036167E+02 -0.44864680340E+03  0.45549993461E+03  0.00000000000E+00 0. -1.
<mgrwt>
<rscale>  0 0.41782205E+02</rscale>
<asrwt>0</asrwt>
<pdfrwt beam="1">  1        2 0.26867570E+00 0.22188647E+02</pdfrwt>
<pdfrwt beam="2">  1        2 0.70177294E-01 0.78677745E+02</pdfrwt>
<totfact> 0.14103993E+02</totfact>
</mgrwt>
</event>
<event>
 7    1  0.3113530E-004  0.4282210E+02  0.7546771E-02  0.1525581E+00
         -1   -1    0    0    0  501 -0.00000000000E+00  0.00000000000E+00  0.12102076996E+04  0.12102076996E+04  0.00000000000E+00 0.  1.
          2   -1    0    0  503    0  0.00000000000E+00 -0.00000000000E+00 -0.10343098555E+02  0.10343098555E+02  0.00000000000E+00 0. -1.
         25    2    1    2    0    0  0.31871651159E+02 -0.15426085552E+02  0.55320296766E+03  0.56825352364E+03  0.12499910973E+03 0.  0.
          4    1    3    3  502    0 -0.15137774375E+02 -0.52940188362E+02  0.13589225700E+03  0.14662924050E+03  0.12700000000E+01 0.  1.
         -4    1    3    3    0  502  0.47009425534E+02  0.37514102810E+02  0.41731071066E+03  0.42162428313E+03  0.12700000000E+01 0.  1.
          2    1    1    2  503    0 -0.49221197169E+02 -0.12939121466E+02  0.33108360723E+03  0.33497239004E+03  0.00000000000E+00 0. -1.
         -1    1    1    2    0  501  0.17349546010E+02  0.28365207018E+02  0.31557802618E+03  0.31732488450E+03  0.00000000000E+00 0.  1.
<mgrwt>
<rscale>  0 0.37733985E+02</rscale>
<asrwt>0</asrwt>
<pdfrwt beam="2">  1        2 0.15912469E-02 0.42822099E+02</pdfrwt>
<pdfrwt beam="1">  1       -1 0.18618569E+00 0.33250439E+02</pdfrwt>
<totfact> 0.16448346E+03</totfact>
</mgrwt>
</event>
<event>
 7    1  0.3113530E-004  0.6184388E+02  0.7546771E-02  0.1509667E+00
          2   -1    0    0  503    0  0.00000000000E+00  0.00000000000E+00  0.20537444606E+03  0.20537444606E+03  0.00000000000E+00 0. -1.
         -1   -1    0    0    0  501 -0.00000000000E+00 -0.00000000000E+00 -0.75044160724E+02  0.75044160724E+02  0.00000000000E+00 0.  1.
         25    2    1    2    0    0 -0.39904596438E+02 -0.85504747377E+01  0.14002566985E+02  0.13223714407E+03  0.12500041181E+03 0.  0.
          4    1    3    3  502    0 -0.27207324752E+02  0.56112775743E+02 -0.76963141470E+01  0.62846863671E+02  0.12700000000E+01 0. -1.
         -4    1    3    3    0  502 -0.12697271686E+02 -0.64663250481E+02  0.21698881132E+02  0.69390280396E+02  0.12700000000E+01 0. -1.
          2    1    1    2  503    0  0.62174548518E+02  0.21211195720E+02  0.90237842820E+02  0.11161746093E+03  0.00000000000E+00 0. -1.
         -1    1    1    2    0  501 -0.22269952080E+02 -0.12660720983E+02  0.26089875528E+02  0.36564001785E+02  0.00000000000E+00 0.  1.
<mgrwt>
<rscale>  0 0.39802908E+02</rscale>
<asrwt>0</asrwt>
<pdfrwt beam="1">  1        2 0.31596068E-01 0.61843881E+02</pdfrwt>
<pdfrwt beam="2">  1       -1 0.11545256E-01 0.25617272E+02</pdfrwt>
<totfact> 0.75973115E+03</totfact>
</mgrwt>
</event>
<event>
 7    1  0.3113530E-004  0.2021898E+03  0.7546771E-02  0.1196034E+00
          1   -1    0    0  503    0 -0.00000000000E+00  0.00000000000E+00  0.23367964589E+04  0.23367964589E+04  0.00000000000E+00 0. -1.
          2   -1    0    0  502    0  0.00000000000E+00 -0.00000000000E+00 -0.11910157202E+04  0.11910157202E+04  0.00000000000E+00 0. -1.
         25    2    1    2    0    0 -0.14489845474E+03  0.25570665007E+03  0.88818519669E+03  0.94385511598E+03  0.12493231470E+03 0.  0.
          4    1    3    3  501    0 -0.97107207088E+02  0.25339383282E+03  0.76428480439E+03  0.81103089911E+03  0.12700000000E+01 0. -1.
         -4    1    3    3    0  501 -0.47791247650E+02  0.23128172552E+01  0.12390039230E+03  0.13282421687E+03  0.12700000000E+01 0. -1.
          2    1    1    2  502    0  0.30067548416E+02 -0.11285807441E+03 -0.11543108104E+04  0.11602044861E+04  0.00000000000E+00 0. -1.
          1    1    1    2  503    0  0.11483090632E+03 -0.14284857566E+03  0.14119063525E+04  0.14237525771E+04  0.00000000000E+00 0. -1.
<mgrwt>
<rscale>  0 0.15367075E+03</rscale>
<asrwt>0</asrwt>
<pdfrwt beam="2">  1        2 0.18323319E+00 0.11679470E+03</pdfrwt>
<pdfrwt beam="1">  1        1 0.35950715E+00 0.20218981E+03</pdfrwt>
<totfact> 0.61929145E+00</totfact>
</mgrwt>
</event>
<event>
 7    1  0.3113530E-004  0.3339457E+02  0.7546771E-02  0.1590251E+00
         -2   -1    0    0    0  501 -0.00000000000E+00  0.00000000000E+00  0.11925866253E+03  0.11925866253E+03  0.00000000000E+00 0.  1.
          1   -1    0    0  503    0  0.00000000000E+00 -0.00000000000E+00 -0.10644122377E+03  0.10644122377E+03  0.00000000000E+00 0. -1.
         25    2    1    2    0    0  0.19229345820E+02  0.27159080472E+02 -0.23092418309E+02  0.13140992065E+03  0.12501169572E+03 0.  0.
          4    1    3    3  502    0 -0.39119012219E+02  0.51393172550E+02 -0.14610802798E+01  0.64616584229E+02  0.12700000000E+01 0. -1.
         -4    1    3    3    0  502  0.58348358039E+02 -0.24234092078E+02 -0.21631338029E+02  0.66793336417E+02  0.12700000000E+01 0. -1.
          1    1    1    2  503    0  0.80153050612E+01 -0.34672883098E+02 -0.12929227643E+02  0.37863159733E+02  0.00000000000E+00 0. -1.
         -2    1    1    2    0  501 -0.27244650881E+02  0.75138026255E+01  0.48839084713E+02  0.56426805928E+02  0.00000000000E+00 0.  1.
<mgrwt>
<rscale>  0 0.30721167E+02</rscale>
<asrwt>0</asrwt>
<pdfrwt beam="2">  1        1 0.16375573E-01 0.33394574E+02</pdfrwt>
<pdfrwt beam="1">  1       -2 0.18347487E-01 0.28261780E+02</pdfrwt>
<totfact> 0.58007223E+03</totfact>
</mgrwt>
</event>
<event>
 7    1  0.3113530E-004  0.8094891E+02  0.7546771E-02  0.1436568E+00
          1   -1    0    0  503    0 -0.00000000000E+00  0.00000000000E+00  0.55162269675E+03  0.55162269675E+03  0.00000000000E+00 0. -1.
          2   -1    0    0  502    0  0.00000000000E+00 -0.00000000000E+00 -0.56786469676E+03  0.56786469676E+03  0.00000000000E+00 0. -1.
         25    2    1    2    0    0  0.35070656741E+02 -0.36929430777E+02 -0.32976335147E+03  0.35631696220E+03  0.12499670299E+03 0.  0.
          4    1    3    3  501    0 -0.45963470504E+02 -0.26824886059E+02 -0.12461380994E+03  0.13550804279E+03  0.12700000000E+01 0.  1.
         -4    1    3    3    0  501  0.81034127245E+02 -0.10104544718E+02 -0.20514954153E+03  0.22080891941E+03  0.12700000000E+01 0.  1.
          2    1    1    2  502    0  0.78664219170E+01 -0.32021430432E+02 -0.22052787509E+03  0.22297936293E+03  0.00000000000E+00 0. -1.
          1    1    1    2  503    0 -0.42937078658E+02  0.68950861209E+02  0.53404922655E+03  0.54019106838E+03  0.00000000000E+00 0. -1.
<mgrwt>
<rscale>  0 0.51664010E+02</rscale>
<asrwt>0</asrwt>
<pdfrwt beam="2">  1        2 0.87363799E-01 0.32973514E+02</pdfrwt>
<pdfrwt beam="1">  1        1 0.84865030E-01 0.80948910E+02</pdfrwt>
<totfact> 0.31350330E+02</totfact>
</mgrwt>
</event>
<event>
 7    1  0.3113530E-004  0.1210028E+03  0.7546771E-02  0.1259826E+00
         -2   -1    0    0    0  501 -0.00000000000E+00  0.00000000000E+00  0.14860892375E+03  0.14860892375E+03  0.00000000000E+00 0. -1.
          2   -1    0    0  503    0  0.00000000000E+00 -0.00000000000E+00 -0.17003441091E+04  0.17003441091E+04  0.00000000000E+00 0. -1.
         25    2    1    2    0    0  0.86681627168E+02 -0.67078463089E+02 -0.10327084665E+03  0.19571103759E+03  0.12499887106E+03 0.  0.
          4    1    3    3  502    0  0.85291041289E+02 -0.22246669417E+02 -0.11905978482E+03  0.14814290832E+03  0.12700000000E+01 0. -1.
         -4    1    3    3    0  502  0.13905858790E+01 -0.44831793672E+02  0.15788938171E+02  0.47568129263E+02  0.12700000000E+01 0. -1.
          2    1    1    2  503    0 -0.12055997077E+03 -0.27784799019E+02 -0.15229472647E+04  0.15279643558E+04  0.00000000000E+00 0. -1.
         -2    1    1    2    0  501  0.33878343605E+02  0.94863262107E+02  0.74482926035E+02  0.12527763940E+03  0.00000000000E+00 0. -1.
<mgrwt>
<rscale>  0 0.11040274E+03</rscale>
<asrwt>0</asrwt>
<pdfrwt beam="2">  1        2 0.26159138E+00 0.12100285E+03</pdfrwt>
<pdfrwt beam="1">  1       -2 0.22862914E-01 0.10073123E+03</pdfrwt>
<totfact> 0.18725842E+02</totfact>
</mgrwt>
</event>
<event>
 7    1  0.3113530E-004  0.4620696E+02  0.7546771E-02  0.1519869E+00
          2   -1    0    0  503    0  0.00000000000E+00  0.00000000000E+00  0.23763791495E+04  0.23763791495E+04  0.00000000000E+00 0. -1.
         -1   -1    0    0    0  501 -0.00000000000E+00 -0.00000000000E+00 -0.49997598991E+01  0.49997598991E+01  0.00000000000E+00 0.  1.
         25    2    1    2    0    0  0.65704707525E+00 -0.37995502681E+02  0.13059157577E+04  0.13124340465E+04  0.12499228045E+03 0.  0.
          4    1    3    3  502    0  0.42285603945E+02 -0.16088235441E+01  0.10383444624E+04  0.10392071479E+04  0.12700000000E+01 0.  1.
         -4    1    3    3    0  502 -0.41628556869E+02 -0.36386679137E+02  0.26757129528E+03  0.27322689861E+03  0.12700000000E+01 0.  1.
          2    1    1    2  503    0 -0.31771415092E+02 -0.39000218296E+01  0.52233706579E+03  0.52331696254E+03  0.00000000000E+00 0. -1.
         -1    1    1    2    0  501  0.31114368017E+02  0.41895524510E+02  0.54312656611E+03  0.54562790039E+03  0.00000000000E+00 0.  1.
<mgrwt>
<rscale>  0 0.38458806E+02</rscale>
<asrwt>0</asrwt>
<pdfrwt beam="1">  1        2 0.36559589E+00 0.32009889E+02</pdfrwt>
<pdfrwt beam="2">  1       -1 0.76919573E-03 0.46206963E+02</pdfrwt>
<totfact> 0.14461990E+04</totfact>
</mgrwt>
</event>
<event>
 7    1  0.3113530E-004  0.4581288E+02  0.7546771E-02  0.1511554E+00
          1   -1    0    0  503    0  0.00000000000E+00  0.00000000000E+00  0.32668295435E+03  0.32668295435E+03  0.00000000000E+00 0. -1.
         -2   -1    0    0    0  501 -0.00000000000E+00 -0.00000000000E+00 -0.18746698166E+04  0.18746698166E+04  0.00000000000E+00 0.  1.
         25    2    1    2    0    0  0.72263875806E+02  0.23132943576E+02 -0.21024487611E+03  0.25609401164E+03  0.12499613611E+03 0.  0.
          4    1    3    3  502    0  0.15508452246E+02 -0.29018427409E+02 -0.82594229960E+00  0.32937460452E+02  0.12700000000E+01 0.  1.
         -4    1    3    3    0  502  0.56755423560E+02  0.52151370985E+02 -0.20941893381E+03  0.22315655119E+03  0.12700000000E+01 0.  1.
          1    1    1    2  503    0 -0.26875696908E+02 -0.21056846229E+02  0.30248340855E+03  0.30440418247E+03  0.00000000000E+00 0. -1.
         -2    1    1    2    0  501 -0.45388178898E+02 -0.20760973475E+01 -0.16402253946E+04  0.16408545768E+04  0.00000000000E+00 0.  1.
<mgrwt>
<rscale>  0 0.39549404E+02</rscale>
<asrwt>0</asrwt>
<pdfrwt beam="1">  1        1 0.50258916E-01 0.34142259E+02</pdfrwt>
<pdfrwt beam="2">  1       -2 0.28841074E+00 0.45812884E+02</pdfrwt>
<totfact> 0.36364503E+00</totfact>
</mgrwt>
</event>
<event>
 7    1  0.3113530E-004  0.7301958E+02  0.7546771E-02  0.1467609E+00
         -2   -1    0    0    0  501 -0.00000000000E+00  0.00000000000E+00  0.14655144943E+03  0.14655144943E+03  0.00000000000E+00 0.  1.
          1   -1    0    0  503    0  0.00000000000E+00 -0.00000000000E+00 -0.18130263852E+03  0.18130263852E+03  0.00000000000E+00 0. -1.
         25    2    1    2    0    0  0.82080203694E+02  0.21188126947E+02 -0.11283410325E+03  0.18852623749E+03  0.12499804320E+03 0.  0.
          4    1    3    3  502    0  0.11535951868E+03  0.11644388378E+02 -0.80676480458E+02  0.14125762893E+03  0.12700000000E+01 0.  1.
         -4    1    3    3    0  502 -0.33279314985E+02  0.95437385682E+01 -0.32157622790E+02  0.47268608560E+02  0.12700000000E+01 0.  1.
          1    1    1    2  503    0 -0.63109991935E+02  0.87926650186E+00  0.82233105468E+01  0.63649564240E+02  0.00000000000E+00 0. -1.
         -2    1    1    2    0  501 -0.18970211759E+02 -0.22067393449E+02  0.69859603617E+02  0.75678286221E+02  0.00000000000E+00 0.  1.
<mgrwt>
<rscale>  0 0.46096703E+02</rscale>
<asrwt>0</asrwt>
<pdfrwt beam="2">  1        1 0.27892713E-01 0.73019585E+02</pdfrwt>
<pdfrwt beam="1">  1       -2 0.22546377E-01 0.29100495E+02</pdfrwt>
<totfact> 0.22360044E+03</totfact>
</mgrwt>
</event>
<event>
 7    1  0.3113530E-004  0.1186526E+03  0.7546771E-02  0.1378530E+00
          3   -1    0    0  503    0 -0.00000000000E+00  0.00000000000E+00  0.31276276498E+02  0.31276276498E+02  0.00000000000E+00 0. -1.
          2   -1    0    0  502    0  0.00000000000E+00 -0.00000000000E+00 -0.25121090920E+04  0.25121090920E+04  0.00000000000E+00 0. -1.
         25    2    1    2    0    0  0.10770852606E+03  0.48762667243E+02 -0.85464670801E+03  0.87179391549E+03  0.12499884505E+03 0.  0.
          4    1    3    3  501    0  0.34975843597E+02  0.83138344736E+02 -0.39602747964E+03  0.40617074185E+03  0.12700000000E+01 0.  1.
         -4    1    3    3    0  501  0.72732682465E+02 -0.34375677493E+02 -0.45861922837E+03  0.46562317364E+03  0.12700000000E+01 0.  1.
          2    1    1    2  502    0 -0.89798269618E+02 -0.79350860512E+02 -0.16313726910E+04  0.16357680598E+04  0.00000000000E+00 0. -1.
          3    1    1    2  503    0 -0.17910256443E+02  0.30588193269E+02  0.51865835622E+01  0.35823393228E+02  0.00000000000E+00 0. -1.
<mgrwt>
<rscale>  0 0.64851771E+02</rscale>
<asrwt>0</asrwt>
<pdfrwt beam="2">  1        2 0.38647837E+00 0.11865257E+03</pdfrwt>
<pdfrwt beam="1">  1        3 0.48117343E-02 0.35445943E+02</pdfrwt>
<totfact> 0.50161662E+02</totfact>
</mgrwt>
</event>
<event>
 7    1  0.3113530E-004  0.5198325E+02  0.7546771E-02  0.1458526E+00
          2   -1    0    0  503    0  0.00000000000E+00  0.00000000000E+00  0.39423403111E+03  0.39423403111E+03  0.00000000000E+00 0. -1.
         -1   -1    0    0    0  501 -0.00000000000E+00 -0.00000000000E+00 -0.60065985899E+02  0.60065985899E+02  0.00000000000E+00 0.  1.
         25    2    1    2    0    0  0.47956963074E+00  0.87175789995E+02  0.97458736531E+02  0.18089420949E+03  0.12499864541E+03 0.  0.
          4    1    3    3  502    0  0.27178807432E+02  0.99669269548E+02  0.10809686282E+03  0.14952991512E+03  0.12700000000E+01 0. -1.
         -4    1    3    3    0  502 -0.26699237801E+02 -0.12493479553E+02 -0.10638126285E+02  0.31364294371E+02  0.12700000000E+01 0. -1.
          2    1    1    2  503    0 -0.65279605717E+01 -0.43161273555E+02  0.22252820787E+03  0.22676929488E+03  0.00000000000E+00 0. -1.
         -1    1    1    2    0  501  0.60483909409E+01 -0.44014516440E+02  0.14181100811E+02  0.46636512634E+02  0.00000000000E+00 0.  1.
<mgrwt>
<rscale>  0 0.47635913E+02</rscale>
<asrwt>0</asrwt>
<pdfrwt beam="1">  1        2 0.60651388E-01 0.43652145E+02</pdfrwt>
<pdfrwt beam="2">  1       -1 0.92409212E-02 0.51983246E+02</pdfrwt>
<totfact> 0.57100105E+03</totfact>
</mgrwt>
</event>
<event>
 7    1  0.3113530E-004  0.2273510E+03  0.7546771E-02  0.1324863E+00
          2   -1    0    0  503    0  0.00000000000E+00  0.00000000000E+00  0.39697162463E+03  0.39697162463E+03  0.00000000000E+00 0. -1.
         -3   -1    0    0    0  501 -0.00000000000E+00 -0.00000000000E+00 -0.19072806734E+04  0.19072806734E+04  0.00000000000E+00 0.  1.
         25    2    1    2    0    0  0.23462536750E+03 -0.36188516935E+02 -0.23716696620E+03  0.35810205034E+03  0.12502094531E+03 0.  0.
          4    1    3    3  502    0  0.15529101418E+03 -0.70182945105E+02 -0.20353836742E+03  0.26546266175E+03  0.12700000000E+01 0.  1.
         -4    1    3    3    0  502  0.79334353313E+02  0.33994428170E+02 -0.33628598785E+02  0.92639388591E+02  0.12700000000E+01 0.  1.
          2    1    1    2  503    0 -0.21807552109E+03  0.60260052899E+02  0.29832358250E+03  0.37441309639E+03  0.00000000000E+00 0. -1.
         -3    1    1    2    0  501 -0.16549846411E+02 -0.24071535964E+02 -0.15714656651E+04  0.15717371513E+04  0.00000000000E+00 0.  1.
<mgrwt>
<rscale>  0 0.81494527E+02</rscale>
<asrwt>0</asrwt>
<pdfrwt beam="1">  1        2 0.61072558E-01 0.22735096E+03</pdfrwt>
<pdfrwt beam="2">  1       -3 0.29342779E+00 0.29211920E+02</pdfrwt>
<totfact> 0.27824188E+00</totfact>
</mgrwt>
</event>
<event>
 7    1  0.3113530E-004  0.6796829E+02  0.7546771E-02  0.1374082E+00
         -1   -1    0    0    0  501 -0.00000000000E+00  0.00000000000E+00  0.10071587936E+03  0.10071587936E+03  0.00000000000E+00 0.  1.
          1   -1    0    0  503    0  0.00000000000E+00 -0.00000000000E+00 -0.13007676540E+04  0.13007676540E+04  0.00000000000E+00 0. -1.
         25    2    1    2    0    0  0.56701214892E+02  0.84197516331E+02 -0.29112267291E+03  0.33268682507E+03  0.12499545339E+03 0.  0.
          4    1    3    3  502    0 -0.34524329239E+02  0.13889635586E+02 -0.12580887782E+03  0.13120342192E+03  0.12700000000E+01 0.  1.
         -4    1    3    3    0  502  0.91225544131E+02  0.70307880746E+02 -0.16531379509E+03  0.20148340315E+03  0.12700000000E+01 0.  1.
          1    1    1    2  503    0  0.74899754662E+01 -0.63738354519E+02 -0.97341970011E+03  0.97553297747E+03  0.00000000000E+00 0. -1.
         -1    1    1    2    0  501 -0.64191190358E+02 -0.20459161812E+02  0.64490598331E+02  0.93263730864E+02  0.00000000000E+00 0.  1.
<mgrwt>
<rscale>  0 0.66045407E+02</rscale>
<asrwt>0</asrwt>
<pdfrwt beam="2">  1        1 0.20011809E+00 0.64176924E+02</pdfrwt>
<pdfrwt beam="1">  1       -1 0.15494751E-01 0.67968291E+02</pdfrwt>
<totfact> 0.31701997E+02</totfact>
</mgrwt>
</event>
<event>
 7    1  0.3113530E-004  0.1471003E+03  0.7546771E-02  0.1240562E+00
          2   -1    0    0  503    0  0.00000000000E+00  0.00000000000E+00  0.15053521490E+04  0.15053521490E+04  0.00000000000E+00 0. -1.
         -2   -1    0    0    0  501 -0.00000000000E+00 -0.00000000000E+00 -0.55485584020E+02  0.55485584020E+02  0.00000000000E+00 0.  1.
         25    2    1    2    0    0 -0.69870095535E+02 -0.39709779224E+02  0.92560054352E+02  0.17507591420E+03  0.12500206101E+03 0.  0.
          4    1    3    3  502    0 -0.78487270780E+02  0.19038557539E+02  0.23776447767E+02  0.84200063634E+02  0.12700000000E+01 0. -1.
         -4    1    3    3    0  502  0.86171752443E+01 -0.58748336763E+02  0.68783606584E+02  0.90875850567E+02  0.12700000000E+01 0. -1.
          2    1    1    2  503    0  0.15802363475E+03 -0.84224041739E+01  0.10647314942E+04  0.10764272203E+04  0.00000000000E+00 0. -1.
         -2    1    1    2    0  501 -0.88153539219E+02  0.48132183397E+02  0.29257501649E+03  0.30933459850E+03  0.00000000000E+00 0.  1.
<mgrwt>
<rscale>  0 0.12155013E+03</rscale>
<asrwt>0</asrwt>
<pdfrwt beam="1">  1        2 0.23159261E+00 0.14710033E+03</pdfrwt>
<pdfrwt beam="2">  1       -2 0.85362448E-02 0.10043781E+03</pdfrwt>
<totfact> 0.11393333E+03</totfact>
</mgrwt>
</event>
<event>
 7    1  0.3113530E-004  0.7634403E+02  0.7546771E-02  0.1344697E+00
         -1   -1    0    0    0  501 -0.00000000000E+00  0.00000000000E+00  0.27412867180E+03  0.27412867180E+03  0.00000000000E+00 0.  1.
          1   -1    0    0  503    0  0.00000000000E+00 -0.00000000000E+00 -0.46525947676E+03  0.46525947676E+03  0.00000000000E+00 0. -1.
         25    2    1    2    0    0 -0.73171800639E+02 -0.68252606724E+02 -0.25696215467E+03  0.30276702167E+03  0.12500315892E+03 0.  0.
          4    1    3    3  502    0  0.21459029752E+02 -0.11446576636E+02 -0.14088359307E+01  0.24394913265E+02  0.12700000000E+01 0.  1.
         -4    1    3    3    0  502 -0.94630830390E+02 -0.56806030089E+02 -0.25555331874E+03  0.27837210840E+03  0.12700000000E+01 0.  1.
          1    1    1    2  503    0  0.75690524328E+02 -0.48615794513E+01 -0.17189937267E+03  0.18788849020E+03  0.00000000000E+00 0. -1.
         -1    1    1    2    0  501 -0.25187236896E+01  0.73114186176E+02  0.23773072238E+03  0.24873263669E+03  0.00000000000E+00 0.  1.
<mgrwt>
<rscale>  0 0.74733814E+02</rscale>
<asrwt>0</asrwt>
<pdfrwt beam="2">  1        1 0.71578381E-01 0.76344033E+02</pdfrwt>
<pdfrwt beam="1">  1       -1 0.42173642E-01 0.73157557E+02</pdfrwt>
<totfact> 0.28869834E+02</totfact>
</mgrwt>
</event>
<event>
 7    1  0.3113530E-004  0.1658546E+03  0.7546771E-02  0.1383598E+00
          1   -1    0    0  502    0  0.00000000000E+00  0.00000000000E+00  0.13186808554E+03  0.13186808554E+03  0.00000000000E+00 0. -1.
          1   -1    0    0  503    0 -0.00000000000E+00 -0.00000000000E+00 -0.64528732248E+03  0.64528732248E+03  0.00000000000E+00 0. -1.
         25    2    1    2    0    0  0.47546435577E+01 -0.16623021847E+03 -0.38932211616E+02  0.21164811329E+03  0.12499645831E+03 0.  0.
          4    1    3    3  501    0 -0.43558728068E+02 -0.86823188119E+02  0.23149027155E+02  0.99865505278E+02  0.12700000000E+01 0.  1.
         -4    1    3    3    0  501  0.48313371626E+02 -0.79407030346E+02 -0.62081238771E+02  0.11178260801E+03  0.12700000000E+01 0.  1.
          1    1    1    2  502    0 -0.24294912011E+02  0.13590357160E+01  0.27533942807E+02  0.36745172937E+02  0.00000000000E+00 0. -1.
          1    1    1    2  503    0  0.19540268453E+02  0.16487118275E+03 -0.50202096813E+03  0.52876212179E+03  0.00000000000E+00 0. -1.
<mgrwt>
<rscale>  0 0.63527342E+02</rscale>
<asrwt>0</asrwt>
<pdfrwt beam="1">  1        1 0.20287398E-01 0.24332894E+02</pdfrwt>
<pdfrwt beam="2">  1        1 0.99274970E-01 0.16585463E+03</pdfrwt>
<totfact> 0.88219163E+02</totfact>
</mgrwt>
</event>
<event>
 7    1  0.3113530E-004  0.1014148E+03  0.7546771E-02  0.1375765E+00
          1   -1    0    0  502    0  0.00000000000E+00  0.00000000000E+00  0.56224104164E+03  0.56224104164E+03  0.00000000000E+00 0. -1.
          3   -1    0    0  503    0 -0.00000000000E+00 -0.00000000000E+00 -0.21505525322E+03  0.21505525322E+03  0.00000000000E+00 0. -1.
         25    2    1    2    0    0  0.32512708096E+02  0.11563740447E+03 -0.19926983320E+02  0.17450010569E+03  0.12499646684E+03 0.  0.
          4    1    3    3  501    0 -0.38708902431E+02  0.44223985104E+02 -0.40722075882E+02  0.71512518835E+02  0.12700000000E+01 0.  1.
         -4    1    3    3    0  501  0.71221610527E+02  0.71413419369E+02  0.20795092562E+02  0.10298758686E+03  0.12700000000E+01 0.  1.
          1    1    1    2  502    0  0.71183303513E+01 -0.10050856996E+03  0.47568057394E+03  0.48623518146E+03  0.00000000000E+00 0. -1.
          3    1    1    2  503    0 -0.39631038447E+02 -0.15128834514E+02 -0.10856780220E+03  0.11656100771E+03  0.00000000000E+00 0. -1.
<mgrwt>
<rscale>  0 0.65590145E+02</rscale>
<asrwt>0</asrwt>
<pdfrwt beam="1">  1        1 0.86498621E-01 0.10141476E+03</pdfrwt>
<pdfrwt beam="2">  1        3 0.33085424E-01 0.42420524E+02</pdfrwt>
<totfact> 0.17144007E+02</totfact>
</mgrwt>
</event>
<event>
 7    1  0.3113530E-004  0.1470169E+03  0.7546771E-02  0.1220772E+00
          2   -1    0    0  502    0  0.00000000000E+00  0.00000000000E+00  0.22653828004E+04  0.22653828004E+04  0.00000000000E+00 0. -1.
          2   -1    0    0  503    0 -0.00000000000E+00 -0.00000000000E+00 -0.55274914750E+03  0.55274914750E+03  0.00000000000E+00 0. -1.
         25    2    1    2    0    0 -0.73862157301E+01 -0.11870678104E+03  0.93291350784E+03  0.94873574876E+03  0.12500420722E+03 0.  0.
          4    1    3    3  501    0  0.45947881441E+02 -0.25578288585E+02  0.16047438370E+03  0.16887598225E+03  0.12700000000E+01 0.  1.
         -4    1    3    3    0  501 -0.53334097171E+02 -0.93128492451E+02  0.77243912414E+03  0.77985976651E+03  0.12700000000E+01 0.  1.
          2    1    1    2  502    0 -0.11698578114E+03  0.38790264882E+02  0.13115874327E+04  0.13173655344E+04  0.00000000000E+00 0. -1.
          2    1    1    2  503    0  0.12437199687E+03  0.79916516154E+02 -0.53186728763E+03  0.55203066474E+03  0.00000000000E+00 0. -1.
<mgrwt>
<rscale>  0 0.13460947E+03</rscale>
<asrwt>0</asrwt>
<pdfrwt beam="1">  1        2 0.34852043E+00 0.12324917E+03</pdfrwt>
<pdfrwt beam="2">  1        2 0.85038331E-01 0.14701689E+03</pdfrwt>
<totfact> 0.51636648E+01</totfact>
</mgrwt>
</event>
<event>
 7    1  0.3113530E-004  0.1042417E+03  0.7546771E-02  0.1291047E+00
         -1   -1    0    0    0  501 -0.00000000000E+00  0.00000000000E+00  0.41966781503E+03  0.41966781503E+03  0.00000000000E+00 0.  1.
          1   -1    0    0  503    0  0.00000000000E+00 -0.00000000000E+00 -0.63556027286E+03  0.63556027286E+03  0.00000000000E+00 0. -1.
         25    2    1    2    0    0  0.36483666323E+02 -0.94989070876E+02 -0.54013138935E+02  0.16998471281E+03  0.12499360750E+03 0.  0.
          4    1    3    3  502    0  0.82341346914E+02 -0.49198677309E+02 -0.38288752914E+02  0.10328721489E+03  0.12700000000E+01 0.  1.
         -4    1    3    3    0  502 -0.45857680591E+02 -0.45790393567E+02 -0.15724386021E+02  0.66697497914E+02  0.12700000000E+01 0.  1.
          1    1    1    2  503    0  0.63893934802E+02  0.58578255728E+02 -0.51195707899E+03  0.51924358222E+03  0.00000000000E+00 0. -1.
         -1    1    1    2    0  501 -0.10037760113E+03  0.36410815148E+02  0.35007776009E+03  0.36599979286E+03  0.00000000000E+00 0.  1.
<mgrwt>
<rscale>  0 0.95057510E+02</rscale>
<asrwt>0</asrwt>
<pdfrwt beam="2">  1        1 0.97778504E-01 0.86682449E+02</pdfrwt>
<pdfrwt beam="1">  1       -1 0.64564279E-01 0.10424175E+03</pdfrwt>
<totfact> 0.87879475E+01</totfact>
</mgrwt>
</event>
<event>
 7    1  0.3113530E-004  0.1147284E+03  0.7546771E-02  0.1330205E+00
          1   -1    0    0  503    0  0.00000000000E+00  0.00000000000E+00  0.32503762500E+03  0.32503762500E+03  0.00000000000E+00 0. -1.
          1   -1    0    0  502    0 -0.00000000000E+00 -0.00000000000E+00 -0.10461189659E+04  0.10461189659E+04  0.00000000000E+00 0. -1.
         25    2    1    2    0    0 -0.33269255476E+02  0.81996761939E+02 -0.67178480107E+03  0.68902022287E+03  0.12499494490E+03 0.  0.
          4    1    3    3  501    0 -0.73543778186E+02  0.85174438869E+02 -0.50895586798E+03  0.52124951876E+03  0.12700000000E+01 0. -1.
         -4    1    3    3    0  501  0.40274522709E+02 -0.31776769298E+01 -0.16282893308E+03  0.16777070412E+03  0.12700000000E+01 0. -1.
          1    1    1    2  502    0 -0.54710460778E+02 -0.74870535436E+01 -0.35299623186E+03  0.35728928083E+03  0.00000000000E+00 0. -1.
          1    1    1    2  503    0  0.87979716255E+02 -0.74509708395E+02  0.30369969204E+03  0.32484708720E+03  0.00000000000E+00 0. -1.
<mgrwt>
<rscale>  0 0.79594877E+02</rscale>
<asrwt>0</asrwt>
<pdfrwt beam="1">  1        1 0.50005788E-01 0.11472837E+03</pdfrwt>
<pdfrwt beam="2">  1        1 0.16094138E+00 0.55220381E+02</pdfrwt>
<totfact> 0.15700849E+02</totfact>
</mgrwt>
</event>
<event>
 7    1  0.3113530E-004  0.3974121E+03  0.7546771E-02  0.1044679E+00
          1   -1    0    0  503    0  0.00000000000E+00  0.00000000000E+00  0.40963632452E+03  0.40963632452E+03  0.00000000000E+00 0. -1.
         -2   -1    0    0    0  501 -0.00000000000E+00 -0.00000000000E+00 -0.96388185581E+02  0.96388185581E+02  0.00000000000E+00 0.  1.
         25    2    1    2    0    0  0.75059720588E+01 -0.15413085329E+03  0.26121538948E+03  0.32813186851E+03  0.12499753549E+03 0.  0.
          4    1    3    3  502    0  0.24341611426E+02 -0.11463178602E+03  0.80003778210E+02  0.14189847723E+03  0.12700000000E+01 0. -1.
         -4    1    3    3    0  502 -0.16835639367E+02 -0.39499067267E+02  0.18121161127E+03  0.18623339128E+03  0.12700000000E+01 0. -1.
          1    1    1    2  503    0 -0.44858349580E+01  0.10242882847E+03  0.68781863457E+02  0.12346146102E+03  0.00000000000E+00 0. -1.
         -2    1    1    2    0  501 -0.30201371009E+01  0.51702024816E+02 -0.16749113996E+02  0.54431180566E+02  0.00000000000E+00 0.  1.
<mgrwt>
<rscale>  0 0.39741214E+03</rscale>
<asrwt>0</asrwt>
<pdfrwt beam="1">  1        1 0.63020972E-01 0.39741214E+03</pdfrwt>
<pdfrwt beam="2">  1       -2 0.14828952E-01 0.39741214E+03</pdfrwt>
<totfact> 0.18095034E+03</totfact>
</mgrwt>
</event>
<event>
 7    1  0.3113530E-004  0.8693831E+02  0.7546771E-02  0.1365782E+00
          1   -1    0    0  502    0  0.00000000000E+00  0.00000000000E+00  0.64090731810E+03  0.64090731810E+03  0.00000000000E+00 0. -1.
          1   -1    0    0  503    0 -0.00000000000E+00 -0.00000000000E+00 -0.61968286116E+03  0.61968286116E+03  0.00000000000E+00 0. -1.
         25    2    1    2    0    0  0.73327954636E+02 -0.40207539045E+02 -0.29515060173E+03  0.33126035913E+03  0.12500365076E+03 0.  0.
          4    1    3    3  501    0  0.23008025347E+02 -0.80618986998E+02 -0.13956072676E+03  0.16281154643E+03  0.12700000000E+01 0. -1.
         -4    1    3    3    0  501  0.50319929290E+02  0.40411447953E+02 -0.15558987496E+03  0.16844881270E+03  0.12700000000E+01 0. -1.
          1    1    1    2  502    0 -0.32353733996E+02 -0.42912245315E+02  0.61464778900E+03  0.61699281148E+03  0.00000000000E+00 0. -1.
          1    1    1    2  503    0 -0.40974220640E+02  0.83119784360E+02 -0.29827273034E+03  0.31233700865E+03  0.00000000000E+00 0. -1.
<mgrwt>
<rscale>  0 0.68353908E+02</rscale>
<asrwt>0</asrwt>
<pdfrwt beam="1">  1        1 0.98601127E-01 0.53742208E+02</pdfrwt>
<pdfrwt beam="2">  1        1 0.95335824E-01 0.86938309E+02</pdfrwt>
<totfact> 0.14307842E+02</totfact>
</mgrwt>
</event>
<event>
 7    1  0.3113530E-004  0.4926847E+02  0.7546771E-02  0.1468319E+00
          2   -1    0    0  502    0  0.00000000000E+00  0.00000000000E+00  0.42941906097E+02  0.42941906097E+02  0.00000000000E+00 0.  1.
          1   -1    0    0  503    0 -0.00000000000E+00 -0.00000000000E+00 -0.78316312013E+03  0.78316312013E+03  0.00000000000E+00 0. -1.
         25    2    1    2    0    0  0.81378263861E+02 -0.29549433242E+02 -0.27942288631E+03  0.31811490013E+03  0.12499739780E+03 0.  0.
          4    1    3    3  501    0  0.11035959321E+03 -0.60774504078E+00 -0.21680080368E+03  0.24327722981E+03  0.12700000000E+01 0.  1.
         -4    1    3    3    0  501 -0.28981329345E+02 -0.28941688201E+02 -0.62622082626E+02  0.74837670320E+02  0.12700000000E+01 0.  1.
          2    1    1    2  502    0 -0.42841426083E+02  0.24205492354E+01  0.18480716358E+01  0.42949531035E+02  0.00000000000E+00 0.  1.
          1    1    1    2  503    0 -0.38536837779E+02  0.27128884006E+02 -0.46264639937E+03  0.46504059507E+03  0.00000000000E+00 0. -1.
<mgrwt>
<rscale>  0 0.45979320E+02</rscale>
<asrwt>0</asrwt>
<pdfrwt beam="1">  1        2 0.66064478E-02 0.42909752E+02</pdfrwt>
<pdfrwt beam="2">  1        1 0.12048662E+00 0.49268471E+02</pdfrwt>
<totfact> 0.32969284E+03</totfact>
</mgrwt>
</event>
<event>
 7    1  0.3113530E-004  0.9288590E+02  0.7546771E-02  0.1445889E+00
          2   -1    0    0  503    0  0.00000000000E+00  0.00000000000E+00  0.12692279859E+04  0.12692279859E+04  0.00000000000E+00 0. -1.
         -1   -1    0    0    0  501 -0.00000000000E+00 -0.00000000000E+00 -0.80857132181E+03  0.80857132181E+03  0.00000000000E+00 0.  1.
         25    2    1    2    0    0 -0.60983719122E+02 -0.50035536009E+02  0.70421879244E+03  0.71955827307E+03  0.12496972375E+03 0.  0.
          4    1    3    3  502    0 -0.13578165189E+02 -0.68794905002E+02  0.18511258613E+03  0.19795299434E+03  0.12700000000E+01 0.  1.
         -4    1    3    3    0  502 -0.47405553933E+02  0.18759368993E+02  0.51910620632E+03  0.52160527873E+03  0.12700000000E+01 0.  1.
          2    1    1    2  503    0  0.72482040289E+01 -0.25807149048E+02  0.55431764236E+03  0.55496539896E+03  0.00000000000E+00 0. -1.
         -1    1    1    2    0  501  0.53735515094E+02  0.75842685057E+02 -0.79787977068E+03  0.80327563571E+03  0.00000000000E+00 0.  1.
<mgrwt>
<rscale>  0 0.49898610E+02</rscale>
<asrwt>0</asrwt>
<pdfrwt beam="1">  1        2 0.19526584E+00 0.26805697E+02</pdfrwt>
<pdfrwt beam="2">  1       -1 0.12439559E+00 0.92885899E+02</pdfrwt>
<totfact> 0.15942793E+01</totfact>
</mgrwt>
</event>
<event>
 7    1  0.3113530E-004  0.9012265E+02  0.7546771E-02  0.1476787E+00
         -1   -1    0    0    0  501 -0.00000000000E+00  0.00000000000E+00  0.16855824811E+02  0.16855824811E+02  0.00000000000E+00 0.  1.
          2   -1    0    0  503    0  0.00000000000E+00 -0.00000000000E+00 -0.15555807378E+04  0.15555807378E+04  0.00000000000E+00 0. -1.
         25    2    1    2    0    0  0.15722021876E+02 -0.10138866369E+03 -0.50659755732E+03  0.53178266570E+03  0.12499950143E+03 0.  0.
          4    1    3    3  502    0 -0.17268724008E+02 -0.75372349910E+02 -0.46916837401E+03  0.47549950161E+03  0.12700000000E+01 0.  1.
         -4    1    3    3    0  502  0.32990745885E+02 -0.26016313776E+02 -0.37429183313E+02  0.56283164090E+02  0.12700000000E+01 0.  1.
          2    1    1    2  503    0 -0.22999602604E+01  0.21962137849E+02 -0.63784513111E+03  0.63822726093E+03  0.00000000000E+00 0. -1.
         -1    1    1    2    0  501 -0.13422061616E+02  0.79426525836E+02 -0.39428222454E+03  0.40242663596E+03  0.00000000000E+00 0.  1.
<mgrwt>
<rscale>  0 0.44610649E+02</rscale>
<asrwt>0</asrwt>
<pdfrwt beam="2">  1        2 0.23932013E+00 0.22082240E+02</pdfrwt>
<pdfrwt beam="1">  1       -1 0.25932037E-02 0.90122653E+02</pdfrwt>
<totfact> 0.74838030E+03</totfact>
</mgrwt>
</event>
<event>
 7    1  0.3113530E-004  0.5095277E+02  0.7546771E-02  0.1481589E+00
         -1   -1    0    0    0  501 -0.00000000000E+00  0.00000000000E+00  0.29372109991E+04  0.29372109991E+04  0.00000000000E+00 0.  1.
          2   -1    0    0  503    0  0.00000000000E+00 -0.00000000000E+00 -0.20944797434E+04  0.20944797434E+04  0.00000000000E+00 0. -1.
         25    2    1    2    0    0  0.26156206215E+02  0.29816568000E+01 -0.11918533708E+01  0.12774994916E+03  0.12500236636E+03 0.  0.
          4    1    3    3  502    0 -0.20516686756E+02 -0.16136316679E+02  0.49659974510E+02  0.56116317767E+02  0.12700000000E+01 0.  1.
         -4    1    3    3    0  502  0.46672892971E+02  0.19117973479E+02 -0.50851827881E+02  0.71633631397E+02  0.12700000000E+01 0.  1.
          2    1    1    2  503    0  0.13381251230E+02 -0.35302999125E+02 -0.20296064161E+04  0.20299575276E+04  0.00000000000E+00 0. -1.
         -1    1    1    2    0  501 -0.39537457445E+02  0.32321342325E+02  0.28735295252E+04  0.28739832657E+04  0.00000000000E+00 0.  1.
<mgrwt>
<rscale>  0 0.43859634E+02</rscale>
<asrwt>0</asrwt>
<pdfrwt beam="2">  1        2 0.32222765E+00 0.37753935E+02</pdfrwt>
<pdfrwt beam="1">  1       -1 0.45187861E+00 0.50952767E+02</pdfrwt>
<totfact> 0.50314110E-02</totfact>
</mgrwt>
</event>
<event>
 7    1  0.3113530E-004  0.1438054E+03  0.7546771E-02  0.1388366E+00
          1   -1    0    0  503    0  0.00000000000E+00  0.00000000000E+00  0.52806156615E+03  0.52806156615E+03  0.00000000000E+00 0. -1.
          1   -1    0    0  502    0 -0.00000000000E+00 -0.00000000000E+00 -0.20054659304E+03  0.20054659304E+03  0.00000000000E+00 0. -1.
         25    2    1    2    0    0 -0.10791284882E+03  0.52804743057E+02 -0.12629209444E+02  0.17383390710E+03  0.12500082598E+03 0.  0.
          4    1    3    3  501    0 -0.11458483366E+03  0.21626314597E+02  0.30164606021E+02  0.12045288683E+03  0.12700000000E+01 0. -1.
         -4    1    3    3    0  501  0.66719848411E+01  0.31178428460E+02 -0.42793815466E+02  0.53381020270E+02  0.12700000000E+01 0. -1.
          1    1    1    2  502    0 -0.25782102312E+02  0.80272793343E+01 -0.93294522630E+02  0.97123745633E+02  0.00000000000E+00 0. -1.
          1    1    1    2  503    0  0.13369495113E+03 -0.60832022391E+02  0.43343870519E+03  0.45765050646E+03  0.00000000000E+00 0. -1.
<mgrwt>
<rscale>  0 0.62314970E+02</rscale>
<asrwt>0</asrwt>
<pdfrwt beam="1">  1        1 0.81240240E-01 0.14380538E+03</pdfrwt>
<pdfrwt beam="2">  1        1 0.30853322E-01 0.27002852E+02</pdfrwt>
<totfact> 0.71246613E+02</totfact>
</mgrwt>
</event>
<event>
 7    1  0.3113530E-004  0.3402778E+02  0.7546771E-02  0.1644856E+00
          2   -1    0    0  503    0  0.00000000000E+00  0.00000000000E+00  0.28778347501E+03  0.28778347501E+03  0.00000000000E+00 0. -1.
         -1   -1    0    0    0  501 -0.00000000000E+00 -0.00000000000E+00 -0.43160050656E+02  0.43160050656E+02  0.00000000000E+00 0.  1.
         25    2    1    2    0    0 -0.40466818157E+01 -0.26818517952E+02  0.94875927194E+02  0.15925589622E+03  0.12500156152E+03 0.  0.
          4    1    3    3  502    0  0.23086193008E+02 -0.71680699718E+02  0.59682277316E+02  0.96097253578E+02  0.12700000000E+01 0.  1.
         -4    1    3    3    0  502 -0.27132874824E+02  0.44862181766E+02  0.35193649878E+02  0.63158642645E+02  0.12700000000E+01 0.  1.
          2    1    1    2  503    0  0.18927059165E+02 -0.68072367001E+01  0.12670862247E+03  0.12829515598E+03  0.00000000000E+00 0. -1.
         -1    1    1    2    0  501 -0.14880377350E+02  0.33625754653E+02  0.23038874688E+02  0.43392473459E+02  0.00000000000E+00 0.  1.
<mgrwt>
<rscale>  0 0.26161689E+02</rscale>
<asrwt>0</asrwt>
<pdfrwt beam="1">  1        2 0.44274380E-01 0.20113976E+02</pdfrwt>
<pdfrwt beam="2">  1       -1 0.66400080E-02 0.34027779E+02</pdfrwt>
<totfact> 0.12028082E+04</totfact>
</mgrwt>
</event>
<event>
 7    1  0.3113530E-004  0.3795713E+03  0.7546771E-02  0.1051092E+00
         -1   -1    0    0    0  501 -0.00000000000E+00  0.00000000000E+00  0.56560013493E+02  0.56560013493E+02  0.00000000000E+00 0.  1.
          2   -1    0    0  503    0  0.00000000000E+00 -0.00000000000E+00 -0.63682089829E+03  0.63682089829E+03  0.00000000000E+00 0. -1.
         25    2    1    2    0    0 -0.10736387230E+03  0.10800935954E+03 -0.41504166281E+03  0.45943143756E+03  0.12499856450E+03 0.  0.
          4    1    3    3  502    0 -0.12661356090E+03  0.87805171948E+02 -0.39781061145E+03  0.42660946720E+03  0.12700000000E+01 0. -1.
         -4    1    3    3    0  502  0.19249688596E+02  0.20204187589E+02 -0.17231051360E+02  0.32821970357E+02  0.12700000000E+01 0. -1.
          2    1    1    2  503    0  0.24134901656E+02 -0.70172990976E+02 -0.73458547142E+02  0.10441695403E+03  0.00000000000E+00 0. -1.
         -1    1    1    2    0  501  0.83228970644E+02 -0.37836368561E+02 -0.91760674846E+02  0.12953252020E+03  0.00000000000E+00 0.  1.
<mgrwt>
<rscale>  0 0.37957133E+03</rscale>
<asrwt>0</asrwt>
<pdfrwt beam="2">  1        2 0.97972448E-01 0.37957133E+03</pdfrwt>
<pdfrwt beam="1">  1       -1 0.87015404E-02 0.37957133E+03</pdfrwt>
<totfact> 0.40671666E+03</totfact>
</mgrwt>
</event>
<event>
 7    1  0.3113530E-004  0.3689623E+02  0.7546771E-02  0.1541448E+00
         -2   -1    0    0    0  501 -0.00000000000E+00  0.00000000000E+00  0.57236048015E+01  0.57236048015E+01  0.00000000000E+00 0.  1.
          1   -1    0    0  503    0  0.00000000000E+00 -0.00000000000E+00 -0.18703567144E+04  0.18703567144E+04  0.00000000000E+00 0. -1.
         25    2    1    2    0    0 -0.54932478268E+01  0.33456972017E+01 -0.97285152314E+03  0.98087045185E+03  0.12500155112E+03 0.  0.
          4    1    3    3  502    0 -0.61841849879E+02  0.15955450213E+02 -0.62508251900E+03  0.62833809311E+03  0.12700000000E+01 0. -1.
         -4    1    3    3    0  502  0.56348602052E+02 -0.12609753012E+02 -0.34776900413E+03  0.35253235874E+03  0.12700000000E+01 0. -1.
          1    1    1    2  503    0  0.74009015993E+01 -0.40192579209E+02 -0.51913189504E+03  0.52073807352E+03  0.00000000000E+00 0. -1.
         -2    1    1    2    0  501 -0.19076537725E+01  0.36846882007E+02 -0.37264969147E+03  0.37447179388E+03  0.00000000000E+00 0.  1.
<mgrwt>
<rscale>  0 0.35818749E+02</rscale>
<asrwt>0</asrwt>
<pdfrwt beam="2">  1        1 0.28774756E+00 0.34772733E+02</pdfrwt>
<pdfrwt beam="1">  1       -2 0.88055344E-03 0.36896231E+02</pdfrwt>
<totfact> 0.84476698E+03</totfact>
</mgrwt>
</event>
<event>
 7    1  0.3113530E-004  0.6830883E+02  0.7546771E-02  0.1484211E+00
          2   -1    0    0  503    0  0.00000000000E+00  0.00000000000E+00  0.62771701750E+03  0.62771701750E+03  0.00000000000E+00 0. -1.
         -1   -1    0    0    0  501 -0.00000000000E+00 -0.00000000000E+00 -0.42330475678E+03  0.42330475678E+03  0.00000000000E+00 0.  1.
         25    2    1    2    0    0  0.54101502159E+02  0.64146257110E+02  0.44363475516E+02  0.15695432289E+03  0.12499930671E+03 0.  0.
          4    1    3    3  502    0  0.19900393175E+02  0.45020685738E+02 -0.40316281401E+02  0.63638850075E+02  0.12700000000E+01 0.  1.
         -4    1    3    3    0  502  0.34201108984E+02  0.19125571372E+02  0.84679756916E+02  0.93315472819E+02  0.12700000000E+01 0.  1.
          2    1    1    2  503    0 -0.57082658874E+02 -0.36660771269E+02  0.52434909328E+03  0.52871959838E+03  0.00000000000E+00 0. -1.
         -1    1    1    2    0  501  0.29811567147E+01 -0.27485485841E+02 -0.36430030808E+03  0.36534785300E+03  0.00000000000E+00 0.  1.
<mgrwt>
<rscale>  0 0.43457023E+02</rscale>
<asrwt>0</asrwt>
<pdfrwt beam="1">  1        2 0.96571849E-01 0.68308833E+02</pdfrwt>
<pdfrwt beam="2">  1       -1 0.65123809E-01 0.27646686E+02</pdfrwt>
<totfact> 0.14703677E+02</totfact>
</mgrwt>
</event>
<event>
 7    1  0.3113530E-004  0.9905019E+02  0.7546771E-02  0.1334975E+00
         -2   -1    0    0    0  501 -0.00000000000E+00  0.00000000000E+00  0.73871994692E+03  0.73871994692E+03  0.00000000000E+00 0.  1.
          2   -1    0    0  503    0  0.00000000000E+00 -0.00000000000E+00 -0.60662273830E+02  0.60662273830E+02  0.00000000000E+00 0.  1.
         25    2    1    2    0    0 -0.29611698955E+02 -0.52171288831E+02  0.50999788429E+03  0.52850905627E+03  0.12500113797E+03 0.  0.
          4    1    3    3  502    0 -0.37876634705E+02  0.18663035004E+02  0.62974195034E+02  0.75830801607E+02  0.12700000000E+01 0. -1.
         -4    1    3    3    0  502  0.82649357501E+01 -0.70834323835E+02  0.44702368925E+03  0.45267825467E+03  0.12700000000E+01 0. -1.
          2    1    1    2  503    0 -0.24618430402E+01  0.10446102675E+03  0.14470886644E+02  0.10548731365E+03  0.00000000000E+00 0.  1.
         -2    1    1    2    0  501  0.32073541995E+02 -0.52289737917E+02  0.15358890216E+03  0.16538585083E+03  0.00000000000E+00 0.  1.
<mgrwt>
<rscale>  0 0.77948751E+02</rscale>
<asrwt>0</asrwt>
<pdfrwt beam="2">  1        2 0.93326580E-02 0.99050191E+02</pdfrwt>
<pdfrwt beam="1">  1       -2 0.11364922E+00 0.61342716E+02</pdfrwt>
<totfact> 0.43958398E+02</totfact>
</mgrwt>
</event>
<event>
 7    1  0.3113530E-004  0.9782041E+02  0.7546771E-02  0.1468279E+00
          2   -1    0    0  503    0  0.00000000000E+00  0.00000000000E+00  0.13541039911E+03  0.13541039911E+03  0.00000000000E+00 0. -1.
         -2   -1    0    0    0  501 -0.00000000000E+00 -0.00000000000E+00 -0.39292682914E+03  0.39292682914E+03  0.00000000000E+00 0.  1.
         25    2    1    2    0    0 -0.73705619940E+02  0.41963008797E+02 -0.14224641666E+03  0.20749305252E+03  0.12500364505E+03 0.  0.
          4    1    3    3  502    0  0.61062022935E+01 -0.23971554700E+02  0.71026548098E+01  0.25767843265E+02  0.12700000000E+01 0. -1.
         -4    1    3    3    0  502 -0.79811822234E+02  0.65934563497E+02 -0.14934907147E+03  0.18172520926E+03  0.12700000000E+01 0. -1.
          2    1    1    2  503    0  0.77129217852E+02 -0.63308505538E+02  0.77823672362E+02  0.12654409152E+03  0.00000000000E+00 0. -1.
         -2    1    1    2    0  501 -0.34235979119E+01  0.21345496741E+02 -0.19309368572E+03  0.19430008420E+03  0.00000000000E+00 0.  1.
<mgrwt>
<rscale>  0 0.45985994E+02</rscale>
<asrwt>0</asrwt>
<pdfrwt beam="1">  1        2 0.20832369E-01 0.97820405E+02</pdfrwt>
<pdfrwt beam="2">  1       -2 0.60450281E-01 0.21618308E+02</pdfrwt>
<totfact> 0.67552370E+02</totfact>
</mgrwt>
</event>
<event>
 7    1  0.3113530E-004  0.6269146E+02  0.7546771E-02  0.1418472E+00
          2   -1    0    0  503    0  0.00000000000E+00  0.00000000000E+00  0.11154175121E+04  0.11154175121E+04  0.00000000000E+00 0. -1.
         -2   -1    0    0    0  501 -0.00000000000E+00 -0.00000000000E+00 -0.29648095216E+02  0.29648095216E+02  0.00000000000E+00 0. -1.
         25    2    1    2    0    0  0.22615565801E+02 -0.94545419031E+00  0.21683820032E+03  0.25129307747E+03  0.12496818783E+03 0.  0.
          4    1    3    3  502    0  0.15830278219E+02 -0.36101857649E+02  0.90851868609E+01  0.40473390696E+02  0.12700000000E+01 0.  1.
         -4    1    3    3    0  502  0.67852875821E+01  0.35156403458E+02  0.20775301346E+03  0.21081968678E+03  0.12700000000E+01 0.  1.
          2    1    1    2  503    0 -0.56402699020E+02 -0.34349987821E+02  0.82628122900E+03  0.82891607266E+03  0.00000000000E+00 0. -1.
         -2    1    1    2    0  501  0.33787133219E+02  0.35295442011E+02  0.42649987547E+02  0.64856457162E+02  0.00000000000E+00 0. -1.
<mgrwt>
<rscale>  0 0.55345547E+02</rscale>
<asrwt>0</asrwt>
<pdfrwt beam="1">  1        2 0.17160266E+00 0.62691455E+02</pdfrwt>
<pdfrwt beam="2">  1       -2 0.45612463E-02 0.48860399E+02</pdfrwt>
<totfact> 0.46394539E+03</totfact>
</mgrwt>
</event>
<event>
 7    1  0.3113530E-004  0.3286360E+02  0.7546771E-02  0.1628738E+00
         -1   -1    0    0    0  501 -0.00000000000E+00  0.00000000000E+00  0.25162781317E+02  0.25162781317E+02  0.00000000000E+00 0.  1.
          2   -1    0    0  503    0  0.00000000000E+00 -0.00000000000E+00 -0.44195763125E+03  0.44195763125E+03  0.00000000000E+00 0. -1.
         25    2    1    2    0    0 -0.16081543887E+02 -0.16469877447E+02 -0.22965192484E+03  0.26247948901E+03  0.12500241059E+03 0.  0.
          4    1    3    3  502    0  0.42169668388E+02  0.14127707060E+02 -0.16240147295E+03  0.16838564178E+03  0.12700000000E+01 0.  1.
         -4    1    3    3    0  502 -0.58251212275E+02 -0.30597584507E+02 -0.67250451887E+02  0.94093847238E+02  0.12700000000E+01 0.  1.
          2    1    1    2  503    0  0.18728159754E+01  0.34359327207E+02 -0.17579701178E+03  0.17913307946E+03  0.00000000000E+00 0. -1.
         -1    1    1    2    0  501  0.14208727911E+02 -0.17889449759E+02 -0.11345913318E+02  0.25507844098E+02  0.00000000000E+00 0.  1.
<mgrwt>
<rscale>  0 0.27400509E+02</rscale>
<asrwt>0</asrwt>
<pdfrwt beam="2">  1        2 0.67993479E-01 0.32863601E+02</pdfrwt>
<pdfrwt beam="1">  1       -1 0.38711973E-02 0.22845576E+02</pdfrwt>
<totfact> 0.16009712E+04</totfact>
</mgrwt>
</event>
<event>
 7    1  0.3113530E-004  0.1530104E+03  0.7546771E-02  0.1292751E+00
          2   -1    0    0  502    0  0.00000000000E+00  0.00000000000E+00  0.52119101327E+03  0.52119101327E+03  0.00000000000E+00 0. -1.
          3   -1    0    0  503    0 -0.00000000000E+00 -0.00000000000E+00 -0.30076330475E+03  0.30076330475E+03  0.00000000000E+00 0. -1.
         25    2    1    2    0    0 -0.75496746075E+02 -0.13955323004E+03 -0.38782989737E+02  0.20567566013E+03  0.12499397664E+03 0.  0.
          4    1    3    3  501    0 -0.74863543118E+02 -0.14912419398E+02 -0.48914791454E+01  0.76501436645E+02  0.12700000000E+01 0. -1.
         -4    1    3    3    0  501 -0.63320295667E+00 -0.12464081064E+03 -0.33891510592E+02  0.12917422348E+03  0.12700000000E+01 0. -1.
          2    1    1    2  502    0 -0.41979670937E+02  0.40197723730E+02  0.40211470183E+03  0.40629346930E+03  0.00000000000E+00 0. -1.
          3    1    1    2  503    0  0.11747641701E+03  0.99355506307E+02 -0.14290400357E+03  0.20998518858E+03  0.00000000000E+00 0. -1.
<mgrwt>
<rscale>  0 0.94304026E+02</rscale>
<asrwt>0</asrwt>
<pdfrwt beam="1">  1        2 0.80183232E-01 0.58121853E+02</pdfrwt>
<pdfrwt beam="2">  1        3 0.46271278E-01 0.15301042E+03</pdfrwt>
<totfact> 0.17306426E+02</totfact>
</mgrwt>
</event>
<event>
 7    1  0.3113530E-004  0.5058057E+02  0.7546771E-02  0.1517760E+00
          2   -1    0    0  503    0  0.00000000000E+00  0.00000000000E+00  0.64802382572E+03  0.64802382572E+03  0.00000000000E+00 0. -1.
          2   -1    0    0  502    0 -0.00000000000E+00 -0.00000000000E+00 -0.39845094407E+03  0.39845094407E+03  0.00000000000E+00 0. -1.
         25    2    1    2    0    0  0.14398423280E+02 -0.71418237241E+02  0.17909768853E+03  0.23023593598E+03  0.12499889991E+03 0.  0.
          4    1    3    3  501    0 -0.31975317301E+00  0.19776957826E+02 -0.81560335972E+01  0.21432780663E+02  0.12700000000E+01 0.  1.
         -4    1    3    3    0  501  0.14718176453E+02 -0.91195195066E+02  0.18725372213E+03  0.20880315532E+03  0.12700000000E+01 0.  1.
          2    1    1    2  502    0 -0.19711106170E+02  0.22160109851E+02 -0.37090394792E+03  0.37208780786E+03  0.00000000000E+00 0. -1.
          2    1    1    2  503    0  0.53126828898E+01  0.49258127389E+02  0.44137914104E+03  0.44415102596E+03  0.00000000000E+00 0. -1.
<mgrwt>
<rscale>  0 0.38731377E+02</rscale>
<asrwt>0</asrwt>
<pdfrwt beam="1">  1        2 0.99695973E-01 0.50580570E+02</pdfrwt>
<pdfrwt beam="2">  1        2 0.61300145E-01 0.29658020E+02</pdfrwt>
<totfact> 0.60334362E+02</totfact>
</mgrwt>
</event>
<event>
 7    1  0.3113530E-004  0.7560054E+02  0.7546771E-02  0.1386507E+00
         -2   -1    0    0    0  501 -0.00000000000E+00  0.00000000000E+00  0.68313188908E+02  0.68313188908E+02  0.00000000000E+00 0.  1.
          1   -1    0    0  503    0  0.00000000000E+00 -0.00000000000E+00 -0.10499484856E+04  0.10499484856E+04  0.00000000000E+00 0. -1.
         25    2    1    2    0    0 -0.22860981970E+02  0.11127247028E+03 -0.29003254898E+03  0.33563041207E+03  0.12499882758E+03 0.  0.
          4    1    3    3  502    0 -0.51604947079E+02  0.11633144550E+03 -0.27444403531E+03  0.30251812705E+03  0.12700000000E+01 0.  1.
         -4    1    3    3    0  502  0.28743965109E+02 -0.50589752232E+01 -0.15588513670E+02  0.33112285015E+02  0.12700000000E+01 0.  1.
          1    1    1    2  503    0 -0.11580273356E+02 -0.72126855307E+02 -0.71970321817E+03  0.72340107011E+03  0.00000000000E+00 0. -1.
         -2    1    1    2    0  501  0.34441255327E+02 -0.39145614970E+02  0.28100470484E+02  0.59230192312E+02  0.00000000000E+00 0.  1.
<mgrwt>
<rscale>  0 0.62783850E+02</rscale>
<asrwt>0</asrwt>
<pdfrwt beam="2">  1        1 0.16153052E+00 0.75600539E+02</pdfrwt>
<pdfrwt beam="1">  1       -2 0.10509722E-01 0.52139997E+02</pdfrwt>
<totfact> 0.77717705E+02</totfact>
</mgrwt>
</event>
<event>
 7    1  0.3113530E-004  0.1048947E+03  0.7546771E-02  0.1376013E+00
          2   -1    0    0  502    0  0.00000000000E+00  0.00000000000E+00  0.16853436625E+04  0.16853436625E+04  0.00000000000E+00 0.  1.
          2   -1    0    0  503    0 -0.00000000000E+00 -0.00000000000E+00 -0.14943509584E+04  0.14943509584E+04  0.00000000000E+00 0. -1.
         25    2    1    2    0    0  0.33853682656E+02 -0.12483395947E+03 -0.10770274096E+04  0.10919444637E+04  0.12500032588E+03 0.  0.
          4    1    3    3  501    0  0.31748495376E+02  0.61775982056E+01 -0.79339017602E+02  0.85687935512E+02  0.12700000000E+01 0. -1.
         -4    1    3    3    0  501  0.21051872801E+01 -0.13101155767E+03 -0.99768839197E+03  0.10062565281E+04  0.12700000000E+01 0. -1.
          2    1    1    2  502    0  0.18654288885E+01  0.10484891664E+03  0.16752197072E+04  0.16784986871E+04  0.00000000000E+00 0.  1.
          2    1    1    2  503    0 -0.35719111545E+02  0.19985042831E+02 -0.40719959356E+03  0.40925147020E+03  0.00000000000E+00 0. -1.
<mgrwt>
<rscale>  0 0.65523514E+02</rscale>
<asrwt>0</asrwt>
<pdfrwt beam="1">  1        2 0.25928364E+00 0.10489473E+03</pdfrwt>
<pdfrwt beam="2">  1        2 0.22990015E+00 0.40929902E+02</pdfrwt>
<totfact> 0.29698343E+01</totfact>
</mgrwt>
</event>
<event>
 7    1  0.3113530E-004  0.3515610E+02  0.7546771E-02  0.1550880E+00
          1   -1    0    0  503    0  0.00000000000E+00  0.00000000000E+00  0.18517588419E+04  0.18517588419E+04  0.00000000000E+00 0. -1.
         -2   -1    0    0    0  501 -0.00000000000E+00 -0.00000000000E+00 -0.73520007010E+01  0.73520007010E+01  0.00000000000E+00 0.  1.
         25    2    1    2    0    0 -0.30938347600E+02 -0.25657811813E+02  0.13683164107E+04  0.13746015658E+04  0.12499664094E+03 0.  0.
          4    1    3    3  502    0  0.24918401989E+02  0.38476532570E+02  0.43037291804E+03  0.43280923257E+03  0.12700000000E+01 0.  1.
         -4    1    3    3    0  502 -0.55856749589E+02 -0.64134344383E+02  0.93794349266E+03  0.94179233322E+03  0.12700000000E+01 0.  1.
          1    1    1    2  503    0 -0.38990003147E+01  0.34115851769E+02  0.38635443941E+03  0.38787735999E+03  0.00000000000E+00 0. -1.
         -2    1    1    2    0  501  0.34837347915E+02 -0.84580399561E+01  0.89735991141E+02  0.96631916858E+02  0.00000000000E+00 0.  1.
<mgrwt>
<rscale>  0 0.34744608E+02</rscale>
<asrwt>0</asrwt>
<pdfrwt beam="1">  1        1 0.28488560E+00 0.34337932E+02</pdfrwt>
<pdfrwt beam="2">  1       -2 0.11310785E-02 0.35156100E+02</pdfrwt>
<totfact> 0.60932739E+03</totfact>
</mgrwt>
</event>
<event>
 7    1  0.3113530E-004  0.8941688E+02  0.7546771E-02  0.1314564E+00
         -2   -1    0    0    0  501 -0.00000000000E+00  0.00000000000E+00  0.40138332919E+03  0.40138332919E+03  0.00000000000E+00 0.  1.
          2   -1    0    0  503    0  0.00000000000E+00 -0.00000000000E+00 -0.18457190679E+04  0.18457190679E+04  0.00000000000E+00 0. -1.
         25    2    1    2    0    0  0.21199667473E+02  0.31778015393E+02  0.15324813261E+03  0.20141814829E+03  0.12500004859E+03 0.  0.
          4    1    3    3  502    0  0.75742399075E+01  0.43368193004E+01 -0.21898274660E+02  0.23607720028E+02  0.12700000000E+01 0. -1.
         -4    1    3    3    0  502  0.13625427565E+02  0.27441196092E+02  0.17514640727E+03  0.17781042826E+03  0.12700000000E+01 0. -1.
          2    1    1    2  503    0  0.46640655175E+02 -0.76827236047E+02 -0.18130841395E+04  0.18153104064E+04  0.00000000000E+00 0. -1.
         -2    1    1    2    0  501 -0.67840322648E+02  0.45049220654E+02  0.21550026817E+03  0.23037384235E+03  0.00000000000E+00 0.  1.
<mgrwt>
<rscale>  0 0.85332931E+02</rscale>
<asrwt>0</asrwt>
<pdfrwt beam="2">  1        2 0.28395678E+00 0.89416883E+02</pdfrwt>
<pdfrwt beam="1">  1       -2 0.61751282E-01 0.81435506E+02</pdfrwt>
<totfact> 0.25501783E+01</totfact>
</mgrwt>
</event>
<event>
 7    1  0.3113530E-004  0.3153848E+02  0.7546771E-02  0.1609640E+00
         -2   -1    0    0    0  501 -0.00000000000E+00  0.00000000000E+00  0.16100960058E+03  0.16100960058E+03  0.00000000000E+00 0.  1.
          2   -1    0    0  503    0  0.00000000000E+00 -0.00000000000E+00 -0.78636088002E+02  0.78636088002E+02  0.00000000000E+00 0. -1.
         25    2    1    2    0    0  0.28851382056E+01 -0.22139265844E+02  0.63038284977E+02  0.14176620528E+03  0.12500144188E+03 0.  0.
          4    1    3    3  502    0 -0.33094259073E+02 -0.38218212412E+02  0.83289587512E+02  0.97440392197E+02  0.12700000000E+01 0. -1.
         -4    1    3    3    0  502  0.35979397278E+02  0.16078946568E+02 -0.20251302535E+02  0.44325813085E+02  0.12700000000E+01 0. -1.
          2    1    1    2  503    0  0.28429007811E+02  0.18384288674E+02  0.45629604161E+02  0.56817702620E+02  0.00000000000E+00 0.  1.
         -2    1    1    2    0  501 -0.31314146016E+02  0.37549771692E+01 -0.26294376557E+02  0.41061780682E+02  0.00000000000E+00 0. -1.
<mgrwt>
<rscale>  0 0.28980427E+02</rscale>
<asrwt>0</asrwt>
<pdfrwt beam="2">  1        2 0.12097860E-01 0.26629858E+02</pdfrwt>
<pdfrwt beam="1">  1       -2 0.24770708E-01 0.31538478E+02</pdfrwt>
<totfact> 0.59088672E+03</totfact>
</mgrwt>
</event>
<event>
 7    1  0.3113530E-004  0.1076346E+03  0.7546771E-02  0.1416953E+00
          2   -1    0    0  503    0  0.00000000000E+00  0.00000000000E+00  0.46237023052E+03  0.46237023052E+03  0.00000000000E+00 0. -1.
         -1   -1    0    0    0  501 -0.00000000000E+00 -0.00000000000E+00 -0.30721254887E+03  0.30721254887E+03  0.00000000000E+00 0.  1.
         25    2    1    2    0    0 -0.83650226977E+02 -0.40644426301E+02  0.23298280818E+03  0.28027691758E+03  0.12499932703E+03 0.  0.
          4    1    3    3  502    0 -0.30524557114E+02 -0.16244942981E+01  0.20726422253E+03  0.20951004369E+03  0.12700000000E+01 0. -1.
         -4    1    3    3    0  502 -0.53125669863E+02 -0.39019932003E+02  0.25718585657E+02  0.70766873889E+02  0.12700000000E+01 0. -1.
          2    1    1    2  503    0 -0.22329125290E+02  0.18179966922E+02  0.19429342653E+03  0.19641546941E+03  0.00000000000E+00 0. -1.
         -1    1    1    2    0  501  0.10597935227E+03  0.22464459379E+02 -0.27211855306E+03  0.29289039240E+03  0.00000000000E+00 0.  1.
<mgrwt>
<rscale>  0 0.55670848E+02</rscale>
<asrwt>0</asrwt>
<pdfrwt beam="1">  1        2 0.71133882E-01 0.28794115E+02</pdfrwt>
<pdfrwt beam="2">  1       -1 0.47263469E-01 0.10763461E+03</pdfrwt>
<totfact> 0.36549675E+02</totfact>
</mgrwt>
</event>
<event>
 7    1  0.3113530E-004  0.3801422E+02  0.7546771E-02  0.1529272E+00
         -1   -1    0    0    0  501 -0.00000000000E+00  0.00000000000E+00  0.11719284931E+04  0.11719284931E+04  0.00000000000E+00 0.  1.
          3   -1    0    0  503    0  0.00000000000E+00 -0.00000000000E+00 -0.75002062186E+02  0.75002062186E+02  0.00000000000E+00 0. -1.
         25    2    1    2    0    0 -0.24227691747E+01 -0.41310441420E+02  0.10010517396E+04  0.10096736797E+04  0.12499572716E+03 0.  0.
          4    1    3    3  502    0  0.22155643080E+02 -0.81051055719E+02  0.69749321678E+03  0.70253722073E+03  0.12700000000E+01 0.  1.
         -4    1    3    3    0  502 -0.24578412254E+02  0.39740614299E+02  0.30355852279E+03  0.30713645898E+03  0.12700000000E+01 0.  1.
          3    1    1    2  503    0 -0.32331145424E+02  0.17050604663E+02 -0.62994703864E+02  0.72831029093E+02  0.00000000000E+00 0. -1.
         -1    1    1    2    0  501  0.34753914599E+02  0.24259836758E+02  0.15886939516E+03  0.16442584644E+03  0.00000000000E+00 0.  1.
<mgrwt>
<rscale>  0 0.37275783E+02</rscale>
<asrwt>0</asrwt>
<pdfrwt beam="2">  1        3 0.11538780E-01 0.36551691E+02</pdfrwt>
<pdfrwt beam="1">  1       -1 0.18029668E+00 0.38014219E+02</pdfrwt>
<totfact> 0.57405671E+01</totfact>
</mgrwt>
</event>
<event>
 7    1  0.3113530E-004  0.1027041E+03  0.7546771E-02  0.1280885E+00
          2   -1    0    0  502    0  0.00000000000E+00  0.00000000000E+00  0.11237230864E+04  0.11237230864E+04  0.00000000000E+00 0. -1.
          1   -1    0    0  503    0 -0.00000000000E+00 -0.00000000000E+00 -0.24423992300E+03  0.24423992300E+03  0.00000000000E+00 0. -1.
         25    2    1    2    0    0 -0.17512168598E+02  0.18528210530E+02  0.32066618740E+03  0.34510971050E+03  0.12499575156E+03 0.  0.
          4    1    3    3  501    0 -0.31475624919E+01  0.34278062323E+02  0.32188280502E+03  0.32372062921E+03  0.12700000000E+01 0.  1.
         -4    1    3    3    0  501 -0.14364606106E+02 -0.15749851793E+02 -0.12166176258E+01  0.21389081292E+02  0.12700000000E+01 0.  1.
          2    1    1    2  502    0  0.10518429225E+03 -0.72023327080E+02  0.77399424892E+03  0.78442220286E+03  0.00000000000E+00 0. -1.
          1    1    1    2  503    0 -0.87672123652E+02  0.53495116550E+02 -0.21517727294E+03  0.23843109602E+03  0.00000000000E+00 0. -1.
<mgrwt>
<rscale>  0 0.99720201E+02</rscale>
<asrwt>0</asrwt>
<pdfrwt beam="1">  1        2 0.17288047E+00 0.96823009E+02</pdfrwt>
<pdfrwt beam="2">  1        1 0.37575374E-01 0.10270408E+03</pdfrwt>
<totfact> 0.36210216E+02</totfact>
</mgrwt>
</event>
<event>
 7    1  0.3113530E-004  0.2983071E+02  0.7546771E-02  0.1657379E+00
         -3   -1    0    0    0  501 -0.00000000000E+00  0.00000000000E+00  0.35028218972E+03  0.35028218972E+03  0.00000000000E+00 0.  1.
          2   -1    0    0  503    0  0.00000000000E+00 -0.00000000000E+00 -0.10802165981E+03  0.10802165981E+03  0.00000000000E+00 0.  1.
         25    2    1    2    0    0  0.42809314367E+01 -0.50545427644E+02  0.94648147239E+02  0.16479239834E+03  0.12500038459E+03 0.  0.
          4    1    3    3  502    0 -0.35535954034E+02 -0.38799843799E+02 -0.87618710822E+01  0.53353680218E+02  0.12700000000E+01 0. -1.
         -4    1    3    3    0  502  0.39816885470E+02 -0.11745583844E+02  0.10341001832E+03  0.11143871813E+03  0.12700000000E+01 0. -1.
          2    1    1    2  503    0 -0.21286086337E+01  0.29274459931E+02 -0.69450481516E+02  0.75398238453E+02  0.00000000000E+00 0.  1.
         -3    1    1    2    0  501 -0.21523228030E+01  0.21270967712E+02  0.21706286419E+03  0.21811321274E+03  0.00000000000E+00 0.  1.
<mgrwt>
<rscale>  0 0.25254070E+02</rscale>
<asrwt>0</asrwt>
<pdfrwt beam="2">  1        2 0.16618717E-01 0.29830707E+02</pdfrwt>
<pdfrwt beam="1">  1       -3 0.53889567E-01 0.21379583E+02</pdfrwt>
<totfact> 0.56703946E+02</totfact>
</mgrwt>
</event>
<event>
 7    1  0.3113530E-004  0.1497429E+03  0.7546771E-02  0.1269965E+00
          2   -1    0    0  502    0  0.00000000000E+00  0.00000000000E+00  0.39306588718E+04  0.39306588718E+04  0.00000000000E+00 0. -1.
          2   -1    0    0  503    0 -0.00000000000E+00 -0.00000000000E+00 -0.15653446161E+04  0.15653446161E+04  0.00000000000E+00 0.  1.
         25    2    1    2    0    0  0.57673241261E+02 -0.65271869705E+02 -0.13188389506E+03  0.20150332051E+03  0.12499442656E+03 0.  0.
          4    1    3    3  501    0 -0.31622803653E+02 -0.19782768540E+02 -0.80819624119E+02  0.89021256926E+02  0.12700000000E+01 0. -1.
         -4    1    3    3    0  501  0.89296044915E+02 -0.45489101165E+02 -0.51064270937E+02  0.11248206359E+03  0.12700000000E+01 0. -1.
          2    1    1    2  502    0  0.24677271595E+02 -0.69484411528E+02  0.38910407244E+04  0.38917393245E+04  0.00000000000E+00 0. -1.
          2    1    1    2  503    0 -0.82350512856E+02  0.13475628123E+03 -0.13938425736E+04  0.14027608429E+04  0.00000000000E+00 0.  1.
<mgrwt>
<rscale>  0 0.10507852E+03</rscale>
<asrwt>0</asrwt>
<pdfrwt beam="1">  1        2 0.60471675E+00 0.73736363E+02</pdfrwt>
<pdfrwt beam="2">  1        2 0.24082225E+00 0.14974287E+03</pdfrwt>
<totfact> 0.13664089E+00</totfact>
</mgrwt>
</event>
<event>
 7    1  0.3113530E-004  0.6423942E+02  0.7546771E-02  0.1418642E+00
         -3   -1    0    0    0  501 -0.00000000000E+00  0.00000000000E+00  0.32144556768E+03  0.32144556768E+03  0.00000000000E+00 0. -1.
          1   -1    0    0  503    0  0.00000000000E+00 -0.00000000000E+00 -0.38573191349E+03  0.38573191349E+03  0.00000000000E+00 0. -1.
         25    2    1    2    0    0 -0.30334383103E+02  0.10247298897E+03 -0.13959425436E+03  0.21571146481E+03  0.12499596766E+03 0.  0.
          4    1    3    3  502    0 -0.12959298227E+02 -0.25866840297E+02 -0.51468997941E+02  0.59056815750E+02  0.12700000000E+01 0. -1.
         -4    1    3    3    0  502 -0.17375084876E+02  0.12833982927E+03 -0.88125256420E+02  0.15665464906E+03  0.12700000000E+01 0. -1.
          1    1    1    2  503    0  0.13709133260E+02 -0.57849026303E+02 -0.20175939853E+03  0.21033617158E+03  0.00000000000E+00 0. -1.
         -3    1    1    2    0  501  0.16625249843E+02 -0.44623962671E+02  0.27706730708E+03  0.28112984478E+03  0.00000000000E+00 0. -1.
<mgrwt>
<rscale>  0 0.55309161E+02</rscale>
<asrwt>0</asrwt>
<pdfrwt beam="2">  1        1 0.59343372E-01 0.64239422E+02</pdfrwt>
<pdfrwt beam="1">  1       -3 0.49453164E-01 0.47620342E+02</pdfrwt>
<totfact> 0.13228383E+02</totfact>
</mgrwt>
</event>
<event>
 7    1  0.3113530E-004  0.8527358E+02  0.7546771E-02  0.1328913E+00
         -2   -1    0    0    0  501 -0.00000000000E+00  0.00000000000E+00  0.36941356149E+03  0.36941356149E+03  0.00000000000E+00 0.  1.
          1   -1    0    0  503    0  0.00000000000E+00 -0.00000000000E+00 -0.29677165555E+03  0.29677165555E+03  0.00000000000E+00 0. -1.
         25    2    1    2    0    0  0.82463461011E+02  0.39551674745E+02  0.28429305744E+02  0.15747531538E+03  0.12500276858E+03 0.  0.
          4    1    3    3  502    0 -0.71620038716E+00 -0.24198621767E+02  0.45242317656E+02  0.51328027873E+02  0.12700000000E+01 0.  1.
         -4    1    3    3    0  502  0.83179661398E+02  0.63750296512E+02 -0.16813011912E+02  0.10614728751E+03  0.12700000000E+01 0.  1.
          1    1    1    2  503    0 -0.79861288751E+02  0.35547431606E+02 -0.21856578747E+03  0.23539848935E+03  0.00000000000E+00 0. -1.
         -2    1    1    2    0  501 -0.26021722597E+01 -0.75099106351E+02  0.26277838766E+03  0.27331141231E+03  0.00000000000E+00 0.  1.
<mgrwt>
<rscale>  0 0.80048815E+02</rscale>
<asrwt>0</asrwt>
<pdfrwt beam="2">  1        1 0.45657178E-01 0.85273580E+02</pdfrwt>
<pdfrwt beam="1">  1       -2 0.56832856E-01 0.75144175E+02</pdfrwt>
<totfact> 0.23490271E+02</totfact>
</mgrwt>
</event>
<event>
 7    1  0.3113530E-004  0.4055799E+03  0.7546771E-02  0.1212436E+00
          1   -1    0    0  503    0 -0.00000000000E+00  0.00000000000E+00  0.16872137580E+04  0.16872137580E+04  0.00000000000E+00 0. -1.
          2   -1    0    0  502    0  0.00000000000E+00 -0.00000000000E+00 -0.54454257300E+03  0.54454257300E+03  0.00000000000E+00 0. -1.
         25    2    1    2    0    0 -0.21819120571E+02  0.43211128619E+03  0.17347019969E+03  0.48261061452E+03  0.12499942955E+03 0.  0.
          4    1    3    3  501    0  0.66955700368E+01  0.56072742552E+02 -0.18504679784E+02  0.59439205827E+02  0.12700000000E+01 0. -1.
         -4    1    3    3    0  501 -0.28514690608E+02  0.37603854364E+03  0.19197487947E+03  0.42317140869E+03  0.12700000000E+01 0. -1.
          2    1    1    2  502    0  0.37056540894E+02 -0.31732666893E+02 -0.35875734659E+03  0.36205936406E+03  0.00000000000E+00 0. -1.
          1    1    1    2  503    0 -0.15237420323E+02 -0.40037861930E+03  0.13279583319E+04  0.13870863524E+04  0.00000000000E+00 0. -1.
<mgrwt>
<rscale>  0 0.14066604E+03</rscale>
<asrwt>0</asrwt>
<pdfrwt beam="2">  1        2 0.83775781E-01 0.48786775E+02</pdfrwt>
<pdfrwt beam="1">  1        1 0.25957135E+00 0.40557987E+03</pdfrwt>
<totfact> 0.41524182E+01</totfact>
</mgrwt>
</event>
<event>
 7    1  0.3113530E-004  0.1062574E+03  0.7546771E-02  0.1285155E+00
          1   -1    0    0  503    0 -0.00000000000E+00  0.00000000000E+00  0.26122506439E+03  0.26122506439E+03  0.00000000000E+00 0.  1.
          2   -1    0    0  502    0  0.00000000000E+00 -0.00000000000E+00 -0.28507694024E+03  0.28507694024E+03  0.00000000000E+00 0. -1.
         25    2    1    2    0    0 -0.86181379007E+02 -0.52237838547E+02 -0.16532865010E+03  0.23046312801E+03  0.12499467574E+03 0.  0.
          4    1    3    3  501    0 -0.86733437797E+02 -0.27686880281E+01 -0.39695581139E+02  0.95434306868E+02  0.12700000000E+01 0. -1.
         -4    1    3    3    0  501  0.55205878931E+00 -0.49469150519E+02 -0.12563306896E+03  0.13502882114E+03  0.12700000000E+01 0. -1.
          2    1    1    2  502    0 -0.40622654634E+01  0.10833348821E+03 -0.31446209082E+02  0.11287830055E+03  0.00000000000E+00 0. -1.
          1    1    1    2  503    0  0.90243644471E+02 -0.56095649663E+02  0.17292298333E+03  0.20296057608E+03  0.00000000000E+00 0.  1.
<mgrwt>
<rscale>  0 0.97724392E+02</rscale>
<asrwt>0</asrwt>
<pdfrwt beam="2">  1        2 0.43857991E-01 0.89876619E+02</pdfrwt>
<pdfrwt beam="1">  1        1 0.40188471E-01 0.10625741E+03</pdfrwt>
<totfact> 0.16191883E+03</totfact>
</mgrwt>
</event>
<event>
 7    1  0.3113530E-004  0.7759769E+02  0.7546771E-02  0.1493140E+00
          1   -1    0    0  503    0 -0.00000000000E+00  0.00000000000E+00  0.19337049927E+04  0.19337049927E+04  0.00000000000E+00 0. -1.
          2   -1    0    0  502    0  0.00000000000E+00 -0.00000000000E+00 -0.35104801627E+03  0.35104801627E+03  0.00000000000E+00 0. -1.
         25    2    1    2    0    0  0.58920452032E+02 -0.16881745832E+02  0.23439876471E+03  0.27262536217E+03  0.12500077676E+03 0.  0.
          4    1    3    3  501    0  0.81211937294E+02 -0.30562061223E+02  0.23031687603E+03  0.24612373845E+03  0.12700000000E+01 0.  1.
         -4    1    3    3    0  501 -0.22291485261E+02  0.13680315391E+02  0.40818886770E+01  0.26501623715E+02  0.12700000000E+01 0.  1.
          2    1    1    2  502    0 -0.77817030489E+02  0.40050355904E+01 -0.32728279320E+03  0.33643061286E+03  0.00000000000E+00 0. -1.
          1    1    1    2  503    0  0.18896578457E+02  0.12876710242E+02  0.16755410049E+04  0.16756970340E+04  0.00000000000E+00 0. -1.
<mgrwt>
<rscale>  0 0.42123753E+02</rscale>
<asrwt>0</asrwt>
<pdfrwt beam="2">  1        2 0.54007388E-01 0.77597693E+02</pdfrwt>
<pdfrwt beam="1">  1        1 0.29749307E+00 0.22866796E+02</pdfrwt>
<totfact> 0.64006919E+01</totfact>
</mgrwt>
</event>
<event>
 7    1  0.3113530E-004  0.3479121E+02  0.7546771E-02  0.1616522E+00
          1   -1    0    0  503    0 -0.00000000000E+00  0.00000000000E+00  0.38750082465E+03  0.38750082465E+03  0.00000000000E+00 0. -1.
          2   -1    0    0  502    0  0.00000000000E+00 -0.00000000000E+00 -0.12902924701E+03  0.12902924701E+03  0.00000000000E+00 0. -1.
         25    2    1    2    0    0  0.35091758552E+02  0.59289665029E+01  0.55013656508E+01  0.13008682862E+03  0.12500293514E+03 0.  0.
          4    1    3    3  501    0  0.54973486334E+01 -0.21706436408E+02 -0.53789333666E+02  0.58277744807E+02  0.12700000000E+01 0.  1.
         -4    1    3    3    0  501  0.29594409919E+02  0.27635402911E+02  0.59290699317E+02  0.71809083813E+02  0.12700000000E+01 0.  1.
          2    1    1    2  502    0 -0.30929004930E+02  0.16871111558E+02 -0.61630563154E+02  0.70989887067E+02  0.00000000000E+00 0. -1.
          1    1    1    2  503    0 -0.41627536226E+01 -0.22800078061E+02  0.31460077514E+03  0.31545335598E+03  0.00000000000E+00 0. -1.
<mgrwt>
<rscale>  0 0.28396391E+02</rscale>
<asrwt>0</asrwt>
<pdfrwt beam="2">  1        2 0.19850653E-01 0.34791214E+02</pdfrwt>
<pdfrwt beam="1">  1        1 0.59615511E-01 0.23176973E+02</pdfrwt>
<totfact> 0.22641214E+03</totfact>
</mgrwt>
</event>
<event>
 7    1  0.3113530E-004  0.5750890E+02  0.7546771E-02  0.1465555E+00
          2   -1    0    0  503    0  0.00000000000E+00  0.00000000000E+00  0.74859563756E+03  0.74859563756E+03  0.00000000000E+00 0. -1.
         -3   -1    0    0    0  501 -0.00000000000E+00 -0.00000000000E+00 -0.21576579649E+04  0.21576579649E+04  0.00000000000E+00 0.  1.
         25    2    1    2    0    0  0.30362262798E+02  0.68079969389E+02  0.11325746069E+03  0.18441472210E+03  0.12499915236E+03 0.  0.
          4    1    3    3  502    0 -0.42755035182E+02  0.57465602350E+02  0.56645484738E+02  0.91326952911E+02  0.12700000000E+01 0. -1.
         -4    1    3    3    0  502  0.73117297980E+02  0.10614367040E+02  0.56611975956E+02  0.93087769192E+02  0.12700000000E+01 0. -1.
          2    1    1    2  503    0 -0.35893479088E+02 -0.10857042909E+02  0.59878353340E+03  0.59995661268E+03  0.00000000000E+00 0. -1.
         -3    1    1    2    0  501  0.55312162900E+01 -0.57222926481E+02 -0.21211033214E+04  0.21218822676E+04  0.00000000000E+00 0.  1.
<mgrwt>
<rscale>  0 0.46438763E+02</rscale>
<asrwt>0</asrwt>
<pdfrwt beam="1">  1        2 0.11516856E+00 0.37499563E+02</pdfrwt>
<pdfrwt beam="2">  1       -3 0.33194738E+00 0.57508903E+02</pdfrwt>
<totfact> 0.86967679E-01</totfact>
</mgrwt>
</event>
<event>
 7    1  0.3113530E-004  0.1045560E+03  0.7546771E-02  0.1276327E+00
         -3   -1    0    0    0  501 -0.00000000000E+00  0.00000000000E+00  0.98460812009E+02  0.98460812009E+02  0.00000000000E+00 0.  1.
          2   -1    0    0  503    0  0.00000000000E+00 -0.00000000000E+00 -0.19956212719E+04  0.19956212719E+04  0.00000000000E+00 0. -1.
         25    2    1    2    0    0  0.53112020089E+01 -0.27278116996E+02 -0.91257836074E+01  0.12836043622E+03  0.12498326739E+03 0.  0.
          4    1    3    3  502    0 -0.83072672402E+01 -0.73901542727E+02  0.12068963056E+02  0.75350656771E+02  0.12700000000E+01 0.  1.
         -4    1    3    3    0  502  0.13618469249E+02  0.46623425732E+02 -0.21194746664E+02  0.53009779454E+02  0.12700000000E+01 0.  1.
          2    1    1    2  503    0  0.88397124748E+02  0.60232174514E+02 -0.18592177126E+04  0.18622922621E+04  0.00000000000E+00 0. -1.
         -3    1    1    2    0  501 -0.93708326757E+02 -0.32954057518E+02 -0.28816963667E+02  0.10342938560E+03  0.00000000000E+00 0.  1.
<mgrwt>
<rscale>  0 0.10191149E+03</rscale>
<asrwt>0</asrwt>
<pdfrwt beam="2">  1        2 0.30701867E+00 0.10455599E+03</pdfrwt>
<pdfrwt beam="1">  1       -3 0.15147817E-01 0.99333883E+02</pdfrwt>
<totfact> 0.17474179E+02</totfact>
</mgrwt>
</event>
<event>
 7    1  0.3113530E-004  0.9458586E+02  0.7546771E-02  0.1437058E+00
          2   -1    0    0  503    0  0.00000000000E+00  0.00000000000E+00  0.97204197562E+03  0.97204197562E+03  0.00000000000E+00 0. -1.
         -2   -1    0    0    0  501 -0.00000000000E+00 -0.00000000000E+00 -0.15731598724E+03  0.15731598724E+03  0.00000000000E+00 0.  1.
         25    2    1    2    0    0 -0.26115349766E+02 -0.84588116571E+02  0.29178927155E+03  0.32955158252E+03  0.12500442228E+03 0.  0.
          4    1    3    3  502    0 -0.52477819612E+02  0.38754382437E+00  0.52449279613E+02  0.74206546701E+02  0.12700000000E+01 0.  1.
         -4    1    3    3    0  502  0.26362469846E+02 -0.84975660395E+02  0.23933999194E+03  0.25534503582E+03  0.12700000000E+01 0.  1.
          2    1    1    2  503    0  0.53832353795E+02  0.79869282356E+02  0.65639227482E+03  0.66342131638E+03  0.00000000000E+00 0. -1.
         -2    1    1    2    0  501 -0.27717004029E+02  0.47188342149E+01 -0.13345555800E+03  0.13638506396E+03  0.00000000000E+00 0.  1.
<mgrwt>
<rscale>  0 0.51568978E+02</rscale>
<asrwt>0</asrwt>
<pdfrwt beam="1">  1        2 0.14954492E+00 0.94585856E+02</pdfrwt>
<pdfrwt beam="2">  1       -2 0.24202460E-01 0.28115827E+02</pdfrwt>
<totfact> 0.40361696E+02</totfact>
</mgrwt>
</event>
<event>
 7    1  0.3113530E-004  0.9053033E+02  0.7546771E-02  0.1465410E+00
         -3   -1    0    0    0  501 -0.00000000000E+00  0.00000000000E+00  0.14055693819E+03  0.14055693819E+03  0.00000000000E+00 0.  1.
          1   -1    0    0  503    0  0.00000000000E+00 -0.00000000000E+00 -0.16680251519E+04  0.16680251519E+04  0.00000000000E+00 0. -1.
         25    2    1    2    0    0  0.45415735444E+02  0.52293211956E+02 -0.82746939227E+03  0.83971961650E+03  0.12500508050E+03 0.  0.
          4    1    3    3  502    0  0.45975353567E+02  0.61724605027E+02 -0.23728628792E+03  0.24945952644E+03  0.12700000000E+01 0.  1.
         -4    1    3    3    0  502 -0.55961812246E+00 -0.94313930707E+01 -0.59018310435E+03  0.59026009005E+03  0.12700000000E+01 0.  1.
          1    1    1    2  503    0  0.51514090231E+01  0.23283188696E+02 -0.81885983187E+03  0.81920697516E+03  0.00000000000E+00 0. -1.
         -3    1    1    2    0  501 -0.50567144467E+02 -0.75576400653E+02  0.11886101038E+03  0.14965549848E+03  0.00000000000E+00 0.  1.
<mgrwt>
<rscale>  0 0.46462989E+02</rscale>
<asrwt>0</asrwt>
<pdfrwt beam="2">  1        1 0.25661925E+00 0.23846255E+02</pdfrwt>
<pdfrwt beam="1">  1       -3 0.21624145E-01 0.90530331E+02</pdfrwt>
<totfact> 0.72237589E+01</totfact>
</mgrwt>
</event>
<event>
 7    1  0.3113530E-004  0.3890089E+02  0.7546771E-02  0.1520194E+00
         -1   -1    0    0    0  501 -0.00000000000E+00  0.00000000000E+00  0.12159681594E+03  0.12159681594E+03  0.00000000000E+00 0.  1.
          2   -1    0    0  503    0  0.00000000000E+00 -0.00000000000E+00 -0.51325377200E+03  0.51325377200E+03  0.00000000000E+00 0. -1.
         25    2    1    2    0    0 -0.47735671571E+00  0.12469359094E+01  0.50749210015E+02  0.13491207330E+03  0.12499600988E+03 0.  0.
          4    1    3    3  502    0 -0.32634165807E+02 -0.49846729087E+02  0.44156111466E+02  0.74169132787E+02  0.12700000000E+01 0.  1.
         -4    1    3    3    0  502  0.32156809091E+02  0.51093664996E+02  0.65930985489E+01  0.60742940513E+02  0.12700000000E+01 0.  1.
          2    1    1    2  503    0  0.21705417697E+02 -0.32691583280E+02 -0.45744659430E+03  0.45912661806E+03  0.00000000000E+00 0. -1.
         -1    1    1    2    0  501 -0.21228060981E+02  0.31444647370E+02  0.15040428223E+02  0.40811896579E+02  0.00000000000E+00 0.  1.
<mgrwt>
<rscale>  0 0.38417127E+02</rscale>
<asrwt>0</asrwt>
<pdfrwt beam="2">  1        2 0.78962119E-01 0.38900891E+02</pdfrwt>
<pdfrwt beam="1">  1       -1 0.18707202E-01 0.37939378E+02</pdfrwt>
<totfact> 0.14743360E+03</totfact>
</mgrwt>
</event>
<event>
 7    1  0.3113530E-004  0.1323519E+03  0.7546771E-02  0.1374274E+00
          2   -1    0    0  503    0  0.00000000000E+00  0.00000000000E+00  0.21055275749E+04  0.21055275749E+04  0.00000000000E+00 0. -1.
         -2   -1    0    0    0  501 -0.00000000000E+00 -0.00000000000E+00 -0.64798707406E+02  0.64798707406E+02  0.00000000000E+00 0.  1.
         25    2    1    2    0    0  0.11879000293E+03  0.92398406039E+02  0.11470476033E+04  0.11636109834E+04  0.12499514539E+03 0.  0.
          4    1    3    3  502    0  0.13237366792E+03  0.10836963998E+03  0.93474907916E+03  0.95027586558E+03  0.12700000000E+01 0. -1.
         -4    1    3    3    0  502 -0.13583664992E+02 -0.15971233940E+02  0.21229852410E+03  0.21333511784E+03  0.12700000000E+01 0. -1.
          2    1    1    2  503    0 -0.32278740940E+02  0.63921560839E+01  0.87319092677E+03  0.87381071828E+03  0.00000000000E+00 0. -1.
         -2    1    1    2    0  501 -0.86511261991E+02 -0.98790562123E+02  0.20490337460E+02  0.13290458060E+03  0.00000000000E+00 0.  1.
<mgrwt>
<rscale>  0 0.65993297E+02</rscale>
<asrwt>0</asrwt>
<pdfrwt beam="1">  1        2 0.32392727E+00 0.32905574E+02</pdfrwt>
<pdfrwt beam="2">  1       -2 0.99690335E-02 0.13235190E+03</pdfrwt>
<totfact> 0.53569659E+02</totfact>
</mgrwt>
</event>
<event>
 7    1  0.3113530E-004  0.1303323E+03  0.7546771E-02  0.1247013E+00
          1   -1    0    0  503    0  0.00000000000E+00  0.00000000000E+00  0.12960104356E+04  0.12960104356E+04  0.00000000000E+00 0. -1.
          1   -1    0    0  502    0 -0.00000000000E+00 -0.00000000000E+00 -0.10789592253E+04  0.10789592253E+04  0.00000000000E+00 0. -1.
         25    2    1    2    0    0 -0.61609112122E+02  0.83940773037E+02 -0.60405562058E+03  0.62557968257E+03  0.12500004167E+03 0.  0.
          4    1    3    3  501    0  0.13174956276E+02  0.56265223476E+02 -0.10208148835E+03  0.11730983765E+03  0.12700000000E+01 0. -1.
         -4    1    3    3    0  501 -0.74784068397E+02  0.27675549561E+02 -0.50197413223E+03  0.50826984492E+03  0.12700000000E+01 0. -1.
          1    1    1    2  502    0 -0.69044494686E+02 -0.80711549913E+02 -0.45468264570E+03  0.46692376770E+03  0.00000000000E+00 0. -1.
          1    1    1    2  503    0  0.13065360681E+03 -0.32292231235E+01  0.12757894765E+04  0.12824662106E+04  0.00000000000E+00 0. -1.
<mgrwt>
<rscale>  0 0.11765697E+03</rscale>
<asrwt>0</asrwt>
<pdfrwt beam="1">  1        1 0.19938622E+00 0.13033227E+03</pdfrwt>
<pdfrwt beam="2">  1        1 0.16599373E+00 0.10621439E+03</pdfrwt>
<totfact> 0.18778703E+01</totfact>
</mgrwt>
</event>
<event>
 7    1  0.3113530E-004  0.1149239E+03  0.7546771E-02  0.1332458E+00
         -2   -1    0    0    0  501 -0.00000000000E+00  0.00000000000E+00  0.65335941713E+02  0.65335941713E+02  0.00000000000E+00 0.  1.
          1   -1    0    0  503    0  0.00000000000E+00 -0.00000000000E+00 -0.13949317347E+04  0.13949317347E+04  0.00000000000E+00 0. -1.
         25    2    1    2    0    0  0.51992989356E+02 -0.13443152721E+03 -0.21403197267E+03  0.28672221766E+03  0.12499935329E+03 0.  0.
          4    1    3    3  502    0  0.61257358351E+02 -0.12047540199E+03 -0.91909146844E+02  0.16344935182E+03  0.12700000000E+01 0.  1.
         -4    1    3    3    0  502 -0.92643689956E+01 -0.13956125219E+02 -0.12212282583E+03  0.12327286584E+03  0.12700000000E+01 0.  1.
          1    1    1    2  503    0 -0.45336701642E+02  0.29421788376E+02 -0.10460298550E+04  0.10474251838E+04  0.00000000000E+00 0. -1.
         -2    1    1    2    0  501 -0.66562877130E+01  0.10500973883E+03 -0.69533965298E+02  0.12612027492E+03  0.00000000000E+00 0.  1.
<mgrwt>
<rscale>  0 0.78811607E+02</rscale>
<asrwt>0</asrwt>
<pdfrwt beam="2">  1        1 0.21460489E+00 0.54046814E+02</pdfrwt>
<pdfrwt beam="1">  1       -2 0.10051683E-01 0.11492387E+03</pdfrwt>
<totfact> 0.53536880E+02</totfact>
</mgrwt>
</event>
<event>
 7    1  0.3900344E-004  0.1199978E+03  0.7546771E-02  0.1402114E+00
         -2   -1    0    0    0  501 -0.00000000000E+00  0.00000000000E+00  0.70081015629E+02  0.70081015629E+02  0.00000000000E+00 0.  1.
          1   -1    0    0  503    0  0.00000000000E+00 -0.00000000000E+00 -0.37751833362E+03  0.37751833362E+03  0.00000000000E+00 0. -1.
         25    2    1    2    0    0 -0.40438238904E+02  0.11764118130E+03 -0.15285031571E+03  0.23337215762E+03  0.12499858493E+03 0.  0.
          4    1    3    3  502    0  0.36371387848E+02  0.30441015667E+02 -0.87433543007E+01  0.48245128596E+02  0.12700000000E+01 0.  1.
         -4    1    3    3    0  502 -0.76809626751E+02  0.87200165631E+02 -0.14410696141E+03  0.18512702902E+03  0.12700000000E+01 0.  1.
          1    1    1    2  503    0  0.63522583016E+02 -0.10008756216E+03 -0.11504646924E+03  0.16519179380E+03  0.00000000000E+00 0. -1.
         -2    1    1    2    0  501 -0.23084344113E+02 -0.17553619138E+02 -0.39540533034E+02  0.49035397832E+02  0.00000000000E+00 0.  1.
<mgrwt>
<rscale>  0 0.58991284E+02</rscale>
<asrwt>0</asrwt>
<pdfrwt beam="2">  1        1 0.58079743E-01 0.11999784E+03</pdfrwt>
<pdfrwt beam="1">  1       -2 0.10781695E-01 0.29000284E+02</pdfrwt>
<totfact> 0.29163210E+03</totfact>
</mgrwt>
</event>
<event>
 7    1  0.3113530E-004  0.1007487E+03  0.7546771E-02  0.1297582E+00
          1   -1    0    0  503    0  0.00000000000E+00  0.00000000000E+00  0.21481532062E+04  0.21481532062E+04  0.00000000000E+00 0. -1.
          1   -1    0    0  502    0 -0.00000000000E+00 -0.00000000000E+00 -0.10121903742E+03  0.10121903742E+03  0.00000000000E+00 0. -1.
         25    2    1    2    0    0  0.63642761652E+02 -0.12511451834E+03  0.32308945774E+03  0.37378628045E+03  0.12500136776E+03 0.  0.
          4    1    3    3  501    0 -0.70179931080E+01  0.64163963988E+00 -0.91281087854E+01  0.11601689476E+02  0.12700000000E+01 0.  1.
         -4    1    3    3    0  501  0.70660754760E+02 -0.12575615798E+03  0.33221756652E+03  0.36218459097E+03  0.12700000000E+01 0.  1.
          1    1    1    2  502    0 -0.88760977522E+02  0.44540926884E+02 -0.41927744620E+02  0.10779768582E+03  0.00000000000E+00 0. -1.
          1    1    1    2  503    0  0.25118215870E+02  0.80573591453E+02  0.17657724557E+04  0.17677882774E+04  0.00000000000E+00 0. -1.
<mgrwt>
<rscale>  0 0.92211680E+02</rscale>
<asrwt>0</asrwt>
<pdfrwt beam="1">  1        1 0.33048508E+00 0.84398036E+02</pdfrwt>
<pdfrwt beam="2">  1        1 0.15572161E-01 0.10074872E+03</pdfrwt>
<totfact> 0.12745198E+02</totfact>
</mgrwt>
</event>
<event>
 7    1  0.3113530E-004  0.1232788E+03  0.7546771E-02  0.1323963E+00
          2   -1    0    0  502    0  0.00000000000E+00  0.00000000000E+00  0.95656477202E+03  0.95656477202E+03  0.00000000000E+00 0. -1.
          3   -1    0    0  503    0 -0.00000000000E+00 -0.00000000000E+00 -0.52032827962E+02  0.52032827962E+02  0.00000000000E+00 0. -1.
         25    2    1    2    0    0 -0.13298715995E+03  0.87082384941E+02  0.45151920519E+03  0.49473590545E+03  0.12500038800E+03 0.  0.
          4    1    3    3  501    0 -0.45299438441E+02  0.10264017823E+03  0.22757978936E+03  0.25373454383E+03  0.12700000000E+01 0.  1.
         -4    1    3    3    0  501 -0.87687721509E+02 -0.15557793285E+02  0.22393941583E+03  0.24100136161E+03  0.12700000000E+01 0.  1.
          2    1    1    2  502    0  0.10492206394E+03 -0.40592168467E+02  0.44496201609E+03  0.45896357089E+03  0.00000000000E+00 0. -1.
          3    1    1    2  503    0  0.28065096014E+02 -0.46490216474E+02  0.80507227682E+01  0.54898123640E+02  0.00000000000E+00 0. -1.
<mgrwt>
<rscale>  0 0.81820581E+02</rscale>
<asrwt>0</asrwt>
<pdfrwt beam="1">  1        2 0.14716380E+00 0.12327882E+03</pdfrwt>
<pdfrwt beam="2">  1        3 0.80050512E-02 0.54304602E+02</pdfrwt>
<totfact> 0.16180158E+03</totfact>
</mgrwt>
</event>
<event>
 7    1  0.3113530E-004  0.8737303E+02  0.7546771E-02  0.1354898E+00
         -1   -1    0    0    0  501 -0.00000000000E+00  0.00000000000E+00  0.25726509235E+02  0.25726509235E+02  0.00000000000E+00 0.  1.
          2   -1    0    0  503    0  0.00000000000E+00 -0.00000000000E+00 -0.12405692274E+04  0.12405692274E+04  0.00000000000E+00 0. -1.
         25    2    1    2    0    0  0.55760981166E+01  0.11958221979E+03 -0.35308104568E+03  0.39322053064E+03  0.12500064294E+03 0.  0.
          4    1    3    3  502    0 -0.27720540662E+02  0.12417091550E+03 -0.32629010262E+03  0.35021948632E+03  0.12700000000E+01 0.  1.
         -4    1    3    3    0  502  0.33296638779E+02 -0.45886957078E+01 -0.26790943055E+02  0.43001044313E+02  0.12700000000E+01 0.  1.
          2    1    1    2  503    0  0.15143179463E+02 -0.56603012732E+02 -0.60723052159E+03  0.61005091860E+03  0.00000000000E+00 0. -1.
         -1    1    1    2    0  501 -0.20719277580E+02 -0.62979207058E+02 -0.25453115091E+03  0.26302428741E+03  0.00000000000E+00 0.  1.
<mgrwt>
<rscale>  0 0.71550719E+02</rscale>
<asrwt>0</asrwt>
<pdfrwt beam="2">  1        2 0.19085678E+00 0.58593660E+02</pdfrwt>
<pdfrwt beam="1">  1       -1 0.39579250E-02 0.87373027E+02</pdfrwt>
<totfact> 0.53443428E+03</totfact>
</mgrwt>
</event>
<event>
 7    1  0.3113530E-004  0.1685366E+03  0.7546771E-02  0.1349191E+00
          1   -1    0    0  503    0  0.00000000000E+00  0.00000000000E+00  0.19458249506E+03  0.19458249506E+03  0.00000000000E+00 0. -1.
         -2   -1    0    0    0  501 -0.00000000000E+00 -0.00000000000E+00 -0.30829896412E+03  0.30829896412E+03  0.00000000000E+00 0.  1.
         25    2    1    2    0    0 -0.19069962422E+03  0.30540544055E+02  0.50729756504E+02  0.23557455207E+03  0.12499115920E+03 0.  0.
          4    1    3    3  502    0 -0.58190566357E+02  0.68275050012E+02  0.30308710995E+01  0.89768722542E+02  0.12700000000E+01 0. -1.
         -4    1    3    3    0  502 -0.13250905786E+03 -0.37734505957E+02  0.47698885404E+02  0.14580582952E+03  0.12700000000E+01 0. -1.
          1    1    1    2  503    0  0.31563326243E+02  0.45318947840E+01  0.49337622967E+01  0.32266447655E+02  0.00000000000E+00 0. -1.
         -2    1    1    2    0  501  0.15913629797E+03 -0.35072438839E+02 -0.16937998785E+03  0.23504045946E+03  0.00000000000E+00 0.  1.
<mgrwt>
<rscale>  0 0.73308456E+02</rscale>
<asrwt>0</asrwt>
<pdfrwt beam="1">  1        1 0.29935769E-01 0.31887014E+02</pdfrwt>
<pdfrwt beam="2">  1       -2 0.47430610E-01 0.16853663E+03</pdfrwt>
<totfact> 0.54870274E+02</totfact>
</mgrwt>
</event>
<event>
 7    1  0.3113530E-004  0.5565769E+02  0.7546771E-02  0.1417582E+00
          2   -1    0    0  503    0  0.00000000000E+00  0.00000000000E+00  0.29989548806E+04  0.29989548806E+04  0.00000000000E+00 0. -1.
          2   -1    0    0  502    0 -0.00000000000E+00 -0.00000000000E+00 -0.99838203260E+01  0.99838203260E+01  0.00000000000E+00 0. -1.
         25    2    1    2    0    0  0.56981132865E+02  0.31822885430E+01  0.24219347151E+04  0.24258300445E+04  0.12500665659E+03 0.  0.
          4    1    3    3  501    0 -0.27174119408E+02 -0.94796755193E+01  0.18088213042E+03  0.18316182740E+03  0.12700000000E+01 0.  1.
         -4    1    3    3    0  501  0.84155252273E+02  0.12661964062E+02  0.22410525847E+04  0.22426682171E+04  0.12700000000E+01 0.  1.
          2    1    1    2  502    0 -0.41697025024E+02 -0.56446955766E+02  0.20093948548E+03  0.21284167246E+03  0.00000000000E+00 0. -1.
          2    1    1    2  503    0 -0.15284107841E+02  0.53264667223E+02  0.36609685969E+03  0.37026698395E+03  0.00000000000E+00 0. -1.
<mgrwt>
<rscale>  0 0.55535789E+02</rscale>
<asrwt>0</asrwt>
<pdfrwt beam="1">  1        2 0.46137696E+00 0.55657689E+02</pdfrwt>
<pdfrwt beam="2">  1        2 0.15359747E-02 0.55414156E+02</pdfrwt>
<totfact> 0.26525834E+03</totfact>
</mgrwt>
</event>
<event>
 7    1  0.3113530E-004  0.4833129E+02  0.7546771E-02  0.1477393E+00
          2   -1    0    0  502    0  0.00000000000E+00  0.00000000000E+00  0.11233976717E+04  0.11233976717E+04  0.00000000000E+00 0.  1.
          1   -1    0    0  503    0 -0.00000000000E+00 -0.00000000000E+00 -0.54286479030E+03  0.54286479030E+03  0.00000000000E+00 0. -1.
         25    2    1    2    0    0 -0.78268595756E+02 -0.36899678782E+02  0.33896728058E+03  0.37149864762E+03  0.12499947401E+03 0.  0.
          4    1    3    3  501    0 -0.72111186636E+00 -0.39708171602E+02  0.22518832733E+02  0.45672416423E+02  0.12700000000E+01 0.  1.
         -4    1    3    3    0  501 -0.77547483890E+02  0.28084928199E+01  0.31644844785E+03  0.32582623120E+03  0.12700000000E+01 0.  1.
          2    1    1    2  502    0  0.40386462828E+02  0.70660528710E+01  0.76651185924E+03  0.76760759887E+03  0.00000000000E+00 0.  1.
          1    1    1    2  503    0  0.37882132929E+02  0.29833625911E+02 -0.52494625846E+03  0.52715621547E+03  0.00000000000E+00 0. -1.
<mgrwt>
<rscale>  0 0.44514942E+02</rscale>
<asrwt>0</asrwt>
<pdfrwt beam="1">  1        2 0.17283041E+00 0.40999945E+02</pdfrwt>
<pdfrwt beam="2">  1        1 0.83517660E-01 0.48331286E+02</pdfrwt>
<totfact> 0.14372040E+02</totfact>
</mgrwt>
</event>
<event>
 7    1  0.3113530E-004  0.9609391E+02  0.7546771E-02  0.1382625E+00
          2   -1    0    0  502    0  0.00000000000E+00  0.00000000000E+00  0.14933691712E+04  0.14933691712E+04  0.00000000000E+00 0.  1.
          2   -1    0    0  503    0 -0.00000000000E+00 -0.00000000000E+00 -0.11231907632E+04  0.11231907632E+04  0.00000000000E+00 0. -1.
         25    2    1    2    0    0  0.15473733648E+02 -0.91218978914E+02 -0.65360167426E+03  0.67184857258E+03  0.12500006935E+03 0.  0.
          4    1    3    3  501    0  0.67547149686E+02 -0.74801775317E+02 -0.43567705379E+03  0.44718456047E+03  0.12700000000E+01 0. -1.
         -4    1    3    3    0  501 -0.52073416039E+02 -0.16417203596E+02 -0.21792462047E+03  0.22466401212E+03  0.12700000000E+01 0. -1.
          2    1    1    2  502    0 -0.41753574697E+02 -0.69663613967E+01  0.14783300737E+04  0.14789360020E+04  0.00000000000E+00 0.  1.
          2    1    1    2  503    0  0.26279841049E+02  0.98185340310E+02 -0.45454999147E+03  0.46577535985E+03  0.00000000000E+00 0. -1.
<mgrwt>
<rscale>  0 0.63778728E+02</rscale>
<asrwt>0</asrwt>
<pdfrwt beam="1">  1        2 0.22974910E+00 0.42330736E+02</pdfrwt>
<pdfrwt beam="2">  1        2 0.17279858E+00 0.96093915E+02</pdfrwt>
<totfact> 0.58834947E+01</totfact>
</mgrwt>
</event>
<event>
 7    1  0.3113530E-004  0.6445597E+02  0.7546771E-02  0.1514930E+00
          2   -1    0    0  503    0  0.00000000000E+00  0.00000000000E+00  0.50481623723E+03  0.50481623723E+03  0.00000000000E+00 0. -1.
         -1   -1    0    0    0  501 -0.00000000000E+00 -0.00000000000E+00 -0.51028765653E+03  0.51028765653E+03  0.00000000000E+00 0.  1.
         25    2    1    2    0    0  0.20116925351E+01 -0.68254771492E+02  0.28607695315E+03  0.31957686657E+03  0.12500635897E+03 0.  0.
          4    1    3    3  502    0  0.27719622281E+02 -0.58796285738E+02  0.28479814020E+03  0.29212492917E+03  0.12700000000E+01 0. -1.
         -4    1    3    3    0  502 -0.25707929746E+02 -0.94584857540E+01  0.12788129485E+01  0.27451937402E+02  0.12700000000E+01 0. -1.
          2    1    1    2  503    0  0.20540360095E+02  0.60901967803E+02  0.19658118652E+03  0.20682146641E+03  0.00000000000E+00 0. -1.
         -1    1    1    2    0  501 -0.22552052630E+02  0.73528036890E+01 -0.48812955897E+03  0.48870556078E+03  0.00000000000E+00 0.  1.
<mgrwt>
<rscale>  0 0.39101449E+02</rscale>
<asrwt>0</asrwt>
<pdfrwt beam="1">  1        2 0.77664037E-01 0.64455970E+02</pdfrwt>
<pdfrwt beam="2">  1       -1 0.78505792E-01 0.23720430E+02</pdfrwt>
<totfact> 0.13143943E+02</totfact>
</mgrwt>
</event>
<event>
 7    1  0.3113530E-004  0.6950788E+02  0.7546771E-02  0.1370129E+00
         -2   -1    0    0    0  501 -0.00000000000E+00  0.00000000000E+00  0.55758926840E+02  0.55758926840E+02  0.00000000000E+00 0.  1.
          1   -1    0    0  503    0  0.00000000000E+00 -0.00000000000E+00 -0.68053794417E+03  0.68053794417E+03  0.00000000000E+00 0. -1.
         25    2    1    2    0    0 -0.75897490329E+01 -0.37736744885E+01 -0.94512318905E+02  0.15694631176E+03  0.12501088528E+03 0.  0.
          4    1    3    3  502    0  0.55924573514E+02  0.45095252789E+01 -0.66525299050E+02  0.87035177111E+02  0.12700000000E+01 0. -1.
         -4    1    3    3    0  502 -0.63514322547E+02 -0.82831997674E+01 -0.27987019855E+02  0.69911134645E+02  0.12700000000E+01 0. -1.
          1    1    1    2  503    0  0.37103074592E+02 -0.59157315788E+02 -0.49772954378E+03  0.50260414335E+03  0.00000000000E+00 0. -1.
         -2    1    1    2    0  501 -0.29513325559E+02  0.62930990276E+02 -0.32537154645E+02  0.76746415910E+02  0.00000000000E+00 0.  1.
<mgrwt>
<rscale>  0 0.67131408E+02</rscale>
<asrwt>0</asrwt>
<pdfrwt beam="2">  1        1 0.10469815E+00 0.64836184E+02</pdfrwt>
<pdfrwt beam="1">  1       -2 0.85782961E-02 0.69507884E+02</pdfrwt>
<totfact> 0.21080154E+03</totfact>
</mgrwt>
</event>
<event>
 7    1  0.3113530E-004  0.6489483E+02  0.7546771E-02  0.1387290E+00
         -3   -1    0    0    0  502 -0.00000000000E+00  0.00000000000E+00  0.75089225125E+02  0.75089225125E+02  0.00000000000E+00 0.  1.
         -1   -1    0    0    0  501  0.00000000000E+00 -0.00000000000E+00 -0.52686861406E+03  0.52686861406E+03  0.00000000000E+00 0.  1.
         25    2    1    2    0    0  0.39294576306E+02  0.20914881018E+02 -0.16443235929E+03  0.21129358691E+03  0.12500193244E+03 0.  0.
          4    1    3    3  503    0  0.70463977484E+02  0.42587824581E+02 -0.65173290955E+02  0.10501459746E+03  0.12700000000E+01 0. -1.
         -4    1    3    3    0  503 -0.31169401179E+02 -0.21672943563E+02 -0.99259068337E+02  0.10627898946E+03  0.12700000000E+01 0. -1.
         -1    1    1    2    0  501 -0.50950190820E+02  0.42924653458E+02 -0.31364562473E+03  0.32064314391E+03  0.00000000000E+00 0.  1.
         -3    1    1    2    0  502  0.11655614514E+02 -0.63839534476E+02  0.26298595096E+02  0.70021108359E+02  0.00000000000E+00 0.  1.
<mgrwt>
<rscale>  0 0.62585663E+02</rscale>
<asrwt>0</asrwt>
<pdfrwt beam="2">  1       -1 0.81056711E-01 0.60358659E+02</pdfrwt>
<pdfrwt beam="1">  1       -3 0.11552188E-01 0.64894834E+02</pdfrwt>
<totfact> 0.38918104E+02</totfact>
</mgrwt>
</event>
<event>
 7    1  0.3113530E-004  0.1725077E+03  0.7546771E-02  0.1224304E+00
          1   -1    0    0  502    0  0.00000000000E+00  0.00000000000E+00  0.11899035818E+03  0.11899035818E+03  0.00000000000E+00 0. -1.
          1   -1    0    0  503    0 -0.00000000000E+00 -0.00000000000E+00 -0.15778242931E+04  0.15778242931E+04  0.00000000000E+00 0. -1.
         25    2    1    2    0    0 -0.17728378889E+03  0.10598185997E+03 -0.18348380596E+03  0.30323715912E+03  0.12499908471E+03 0.  0.
          4    1    3    3  501    0 -0.46528525267E+02  0.10026156398E+03 -0.83775626383E+02  0.13869842592E+03  0.12700000000E+01 0.  1.
         -4    1    3    3    0  501 -0.13075526362E+03  0.57202959883E+01 -0.99708179573E+02  0.16453873320E+03  0.12700000000E+01 0.  1.
          1    1    1    2  502    0  0.82521940167E+02 -0.14158620720E+03 -0.60767019085E+02  0.17478316649E+03  0.00000000000E+00 0. -1.
          1    1    1    2  503    0  0.94761848721E+02  0.35604347229E+02 -0.12145831098E+04  0.12187943256E+04  0.00000000000E+00 0. -1.
<mgrwt>
<rscale>  0 0.13214737E+03</rscale>
<asrwt>0</asrwt>
<pdfrwt beam="1">  1        1 0.18306209E-01 0.17250773E+03</pdfrwt>
<pdfrwt beam="2">  1        1 0.24274220E+00 0.10122983E+03</pdfrwt>
<totfact> 0.23604477E+02</totfact>
</mgrwt>
</event>
<event>
 7    1  0.3113530E-004  0.6000035E+02  0.7546771E-02  0.1427180E+00
          1   -1    0    0  502    0  0.00000000000E+00  0.00000000000E+00  0.10271842327E+02  0.10271842327E+02  0.00000000000E+00 0. -1.
          1   -1    0    0  503    0 -0.00000000000E+00 -0.00000000000E+00 -0.17128321566E+04  0.17128321566E+04  0.00000000000E+00 0. -1.
         25    2    1    2    0    0  0.41209359719E+02  0.11326341644E+02 -0.11371149628E+04  0.11447638386E+04  0.12500924024E+03 0.  0.
          4    1    3    3  501    0 -0.36343693424E+02 -0.21187904843E+02 -0.55650309441E+03  0.55809237439E+03  0.12700000000E+01 0. -1.
         -4    1    3    3    0  501  0.77553053143E+02  0.32514246487E+02 -0.58061186837E+03  0.58667146417E+03  0.12700000000E+01 0. -1.
          1    1    1    2  502    0 -0.31037983059E+02 -0.57988667798E+02 -0.22038186818E+03  0.22998741228E+03  0.00000000000E+00 0. -1.
          1    1    1    2  503    0 -0.10171376660E+02  0.46662326154E+02 -0.34506348336E+03  0.34835274814E+03  0.00000000000E+00 0. -1.
<mgrwt>
<rscale>  0 0.53530351E+02</rscale>
<asrwt>0</asrwt>
<pdfrwt beam="1">  1        1 0.15802826E-02 0.60000347E+02</pdfrwt>
<pdfrwt beam="2">  1        1 0.26351278E+00 0.47758032E+02</pdfrwt>
<totfact> 0.51471080E+03</totfact>
</mgrwt>
</event>
<event>
 7    1  0.3113530E-004  0.4657328E+02  0.7546771E-02  0.1536200E+00
          1   -1    0    0  502    0  0.00000000000E+00  0.00000000000E+00  0.17492577245E+03  0.17492577245E+03  0.00000000000E+00 0. -1.
          1   -1    0    0  503    0 -0.00000000000E+00 -0.00000000000E+00 -0.34813082742E+04  0.34813082742E+04  0.00000000000E+00 0. -1.
         25    2    1    2    0    0 -0.15612059600E+02 -0.62146376739E+02 -0.55533986151E+02  0.15104806762E+03  0.12500234625E+03 0.  0.
          4    1    3    3  501    0 -0.59151562830E+02 -0.60526191969E+02 -0.56862889901E+01  0.84830855719E+02  0.12700000000E+01 0.  1.
         -4    1    3    3    0  501  0.43539503231E+02 -0.16201847704E+01 -0.49847697161E+02  0.66217211905E+02  0.12700000000E+01 0.  1.
          1    1    1    2  502    0  0.23406555975E+02  0.16271183813E+02  0.12540887099E+03  0.12860794380E+03  0.00000000000E+00 0. -1.
          1    1    1    2  503    0 -0.77944963752E+01  0.45875192926E+02 -0.33762573866E+04  0.33765780353E+04  0.00000000000E+00 0. -1.
<mgrwt>
<rscale>  0 0.36436787E+02</rscale>
<asrwt>0</asrwt>
<pdfrwt beam="1">  1        1 0.26911659E-01 0.28506460E+02</pdfrwt>
<pdfrwt beam="2">  1        1 0.53558586E+00 0.46573283E+02</pdfrwt>
<totfact> 0.89904962E+00</totfact>
</mgrwt>
</event>
<event>
 7    1  0.3113530E-004  0.1055788E+03  0.7546771E-02  0.1367528E+00
          3   -1    0    0  503    0 -0.00000000000E+00  0.00000000000E+00  0.86780320261E+02  0.86780320261E+02  0.00000000000E+00 0. -1.
          2   -1    0    0  502    0  0.00000000000E+00 -0.00000000000E+00 -0.11960387806E+04  0.11960387806E+04  0.00000000000E+00 0. -1.
         25    2    1    2    0    0 -0.64281219947E+02  0.65066991536E+01 -0.47135462237E+02  0.14839745626E+03  0.12500256338E+03 0.  0.
          4    1    3    3  501    0 -0.27859819043E+02 -0.36076424950E+02  0.28863077291E+02  0.53966360679E+02  0.12700000000E+01 0. -1.
         -4    1    3    3    0  501 -0.36421400904E+02  0.42583124104E+02 -0.75998539527E+02  0.94431095580E+02  0.12700000000E+01 0. -1.
          2    1    1    2  502    0  0.10606352358E+03 -0.19018864974E+02 -0.10813862050E+04  0.10867416034E+04  0.00000000000E+00 0. -1.
          3    1    1    2  503    0 -0.41782303633E+02  0.12512165820E+02  0.19263206867E+02  0.47680041203E+02  0.00000000000E+00 0. -1.
<mgrwt>
<rscale>  0 0.67859241E+02</rscale>
<asrwt>0</asrwt>
<pdfrwt beam="2">  1        2 0.18400597E+00 0.10557881E+03</pdfrwt>
<pdfrwt beam="1">  1        3 0.13350818E-01 0.43615538E+02</pdfrwt>
<totfact> 0.50343977E+02</totfact>
</mgrwt>
</event>
<event>
 7    1  0.3113530E-004  0.8735908E+02  0.7546771E-02  0.1342215E+00
          1   -1    0    0  503    0 -0.00000000000E+00  0.00000000000E+00  0.71156179867E+03  0.71156179867E+03  0.00000000000E+00 0. -1.
          2   -1    0    0  502    0  0.00000000000E+00 -0.00000000000E+00 -0.36978167994E+03  0.36978167994E+03  0.00000000000E+00 0. -1.
         25    2    1    2    0    0  0.10075095836E+03 -0.84347043195E+02  0.12189306753E+03  0.21851339194E+03  0.12500001296E+03 0.  0.
          4    1    3    3  501    0  0.12063334036E+03 -0.41666701873E+02  0.11323434228E+03  0.17062281800E+03  0.12700000000E+01 0. -1.
         -4    1    3    3    0  501 -0.19882382000E+02 -0.42680341321E+02  0.86587252498E+01  0.47890573940E+02  0.12700000000E+01 0. -1.
          2    1    1    2  502    0 -0.35694011403E+02  0.78543233386E+02 -0.31365561801E+03  0.32530439387E+03  0.00000000000E+00 0. -1.
          1    1    1    2  503    0 -0.65056946953E+02  0.58038098091E+01  0.53354266921E+03  0.53752569280E+03  0.00000000000E+00 0. -1.
<mgrwt>
<rscale>  0 0.75537314E+02</rscale>
<asrwt>0</asrwt>
<pdfrwt beam="2">  1        2 0.56889489E-01 0.87359078E+02</pdfrwt>
<pdfrwt beam="1">  1        1 0.10947105E+00 0.65315316E+02</pdfrwt>
<totfact> 0.34838424E+02</totfact>
</mgrwt>
</event>
<event>
 7    1  0.3113530E-004  0.1149693E+03  0.7546771E-02  0.1426048E+00
          2   -1    0    0  503    0  0.00000000000E+00  0.00000000000E+00  0.24969916711E+02  0.24969916711E+02  0.00000000000E+00 0. -1.
          2   -1    0    0  502    0 -0.00000000000E+00 -0.00000000000E+00 -0.12227758772E+04  0.12227758772E+04  0.00000000000E+00 0. -1.
         25    2    1    2    0    0 -0.25612016148E+02  0.12452733759E+03 -0.51774299740E+03  0.54758180670E+03  0.12499996199E+03 0.  0.
          4    1    3    3  501    0  0.45925493053E+02  0.61549601928E+02 -0.30393399572E+03  0.31348842253E+03  0.12700000000E+01 0.  1.
         -4    1    3    3    0  501 -0.71537509201E+02  0.62977735665E+02 -0.21380900168E+03  0.23409338417E+03  0.12700000000E+01 0.  1.
          2    1    1    2  502    0  0.19166651840E+02 -0.16267960977E+02 -0.38468858521E+03  0.38550916291E+03  0.00000000000E+00 0. -1.
          2    1    1    2  503    0  0.64453643083E+01 -0.10825937662E+03 -0.29537437789E+03  0.31465482431E+03  0.00000000000E+00 0. -1.
<mgrwt>
<rscale>  0 0.53761505E+02</rscale>
<asrwt>0</asrwt>
<pdfrwt beam="1">  1        2 0.38415266E-02 0.11496929E+03</pdfrwt>
<pdfrwt beam="2">  1        2 0.18811932E+00 0.25139751E+02</pdfrwt>
<totfact> 0.72538956E+03</totfact>
</mgrwt>
</event>
<event>
 7    1  0.3113530E-004  0.1919197E+03  0.7546771E-02  0.1367077E+00
          1   -1    0    0  503    0 -0.00000000000E+00  0.00000000000E+00  0.19289457948E+03  0.19289457948E+03  0.00000000000E+00 0. -1.
          2   -1    0    0  502    0  0.00000000000E+00 -0.00000000000E+00 -0.90077306463E+03  0.90077306463E+03  0.00000000000E+00 0. -1.
         25    2    1    2    0    0  0.20801619589E+03 -0.51100012097E+02 -0.65728094383E+03  0.70251238730E+03  0.12499386464E+03 0.  0.
          4    1    3    3  501    0  0.32195092373E+02 -0.63998461285E+01 -0.16924536535E+02  0.36953143848E+02  0.12700000000E+01 0.  1.
         -4    1    3    3    0  501  0.17582110352E+03 -0.44700165969E+02 -0.64035640730E+03  0.66555924346E+03  0.12700000000E+01 0.  1.
          2    1    1    2  502    0 -0.23705549414E+02  0.42524342664E+01 -0.16664250783E+03  0.16837387472E+03  0.00000000000E+00 0. -1.
          1    1    1    2  503    0 -0.18431064648E+03  0.46847577831E+02  0.11604496651E+03  0.22278138209E+03  0.00000000000E+00 0. -1.
<mgrwt>
<rscale>  0 0.67986639E+02</rscale>
<asrwt>0</asrwt>
<pdfrwt beam="2">  1        2 0.13858047E+00 0.24083942E+02</pdfrwt>
<pdfrwt beam="1">  1        1 0.29676089E-01 0.19191971E+03</pdfrwt>
<totfact> 0.70359520E+02</totfact>
</mgrwt>
</event>
<event>
 7    1  0.3113530E-004  0.6051033E+02  0.7546771E-02  0.1411120E+00
          2   -1    0    0  502    0  0.00000000000E+00  0.00000000000E+00  0.71475787602E+02  0.71475787602E+02  0.00000000000E+00 0.  1.
          2   -1    0    0  503    0 -0.00000000000E+00 -0.00000000000E+00 -0.28779789129E+04  0.28779789129E+04  0.00000000000E+00 0. -1.
         25    2    1    2    0    0 -0.15527301147E+02 -0.37669488420E+01 -0.93628083938E+03  0.94473029832E+03  0.12505294631E+03 0.  0.
          4    1    3    3  501    0  0.44573200646E+02  0.27989951152E+02 -0.27745956247E+03  0.28241039160E+03  0.12700000000E+01 0. -1.
         -4    1    3    3    0  501 -0.60100501793E+02 -0.31756899994E+02 -0.65882127692E+03  0.66231990671E+03  0.12700000000E+01 0. -1.
          2    1    1    2  502    0 -0.48827470968E+02  0.22082957158E+02  0.55901532819E+02  0.77438751859E+02  0.00000000000E+00 0.  1.
          2    1    1    2  503    0  0.64354772115E+02 -0.18316008316E+02 -0.19261238188E+04  0.19272856503E+04  0.00000000000E+00 0. -1.
<mgrwt>
<rscale>  0 0.56944595E+02</rscale>
<asrwt>0</asrwt>
<pdfrwt beam="1">  1        2 0.10996275E-01 0.53588981E+02</pdfrwt>
<pdfrwt beam="2">  1        2 0.44276598E+00 0.60510328E+02</pdfrwt>
<totfact> 0.24721826E+02</totfact>
</mgrwt>
</event>
<event>
 7    1  0.3113530E-004  0.1327932E+03  0.7546771E-02  0.1225907E+00
         -3   -1    0    0    0  501 -0.00000000000E+00  0.00000000000E+00  0.43111668231E+03  0.43111668231E+03  0.00000000000E+00 0.  1.
          2   -1    0    0  503    0  0.00000000000E+00 -0.00000000000E+00 -0.29800725696E+04  0.29800725696E+04  0.00000000000E+00 0. -1.
         25    2    1    2    0    0  0.12144293096E+03 -0.65822340679E+02 -0.33587146413E+03  0.38407708034E+03  0.12499838884E+03 0.  0.
          4    1    3    3  502    0  0.72898956912E+02  0.28816184529E+02 -0.16718060974E+03  0.18464993794E+03  0.12700000000E+01 0. -1.
         -4    1    3    3    0  502  0.48543974048E+02 -0.94638525208E+02 -0.16869085440E+03  0.19942714240E+03  0.12700000000E+01 0. -1.
          2    1    1    2  503    0 -0.68606018100E+01  0.13294114849E+03 -0.26075237072E+04  0.26109194358E+04  0.00000000000E+00 0. -1.
         -3    1    1    2    0  501 -0.11458232915E+03 -0.67118807813E+02  0.39443928402E+03  0.41619273576E+03  0.00000000000E+00 0.  1.
<mgrwt>
<rscale>  0 0.13104944E+03</rscale>
<asrwt>0</asrwt>
<pdfrwt beam="2">  1        2 0.45847271E+00 0.12932854E+03</pdfrwt>
<pdfrwt beam="1">  1       -3 0.66325642E-01 0.13279324E+03</pdfrwt>
<totfact> 0.32694700E+00</totfact>
</mgrwt>
</event>
<event>
 7    1  0.3113530E-004  0.6669191E+02  0.7546771E-02  0.1522422E+00
         -1   -1    0    0    0  501 -0.00000000000E+00  0.00000000000E+00  0.16222179975E+02  0.16222179975E+02  0.00000000000E+00 0.  1.
          2   -1    0    0  503    0  0.00000000000E+00 -0.00000000000E+00 -0.93863336870E+03  0.93863336870E+03  0.00000000000E+00 0. -1.
         25    2    1    2    0    0  0.63407796783E+02 -0.19107839240E+02 -0.55946366661E+03  0.57707063981E+03  0.12500108345E+03 0.  0.
          4    1    3    3  502    0  0.32603384850E+01 -0.48279078474E+02 -0.41583030387E+03  0.41863821343E+03  0.12700000000E+01 0.  1.
         -4    1    3    3    0  502  0.60147458298E+02  0.29171239234E+02 -0.14363336274E+03  0.15843242639E+03  0.12700000000E+01 0.  1.
          2    1    1    2  503    0 -0.83328597258E+01 -0.20147883274E+02 -0.20242899386E+03  0.20359978219E+03  0.00000000000E+00 0. -1.
         -1    1    1    2    0  501 -0.55074937057E+02  0.39255722514E+02 -0.16051852825E+03  0.17418512667E+03  0.00000000000E+00 0.  1.
<mgrwt>
<rscale>  0 0.38132508E+02</rscale>
<asrwt>0</asrwt>
<pdfrwt beam="2">  1        2 0.14440507E+00 0.21803067E+02</pdfrwt>
<pdfrwt beam="1">  1       -1 0.24957211E-02 0.66691906E+02</pdfrwt>
<totfact> 0.15469953E+04</totfact>
</mgrwt>
</event>
<event>
 7    1  0.3113530E-004  0.7933193E+02  0.7546771E-02  0.1486077E+00
         -1   -1    0    0    0  501 -0.00000000000E+00  0.00000000000E+00  0.11081848727E+02  0.11081848727E+02  0.00000000000E+00 0.  1.
          2   -1    0    0  503    0  0.00000000000E+00 -0.00000000000E+00 -0.16970613832E+04  0.16970613832E+04  0.00000000000E+00 0. -1.
         25    2    1    2    0    0  0.30757514152E+02  0.69086761638E+02 -0.12385152198E+04  0.12471021128E+04  0.12499889898E+03 0.  0.
          4    1    3    3  502    0 -0.28293313150E+02  0.45737454414E+02 -0.95702249200E+03  0.95853330114E+03  0.12700000000E+01 0. -1.
         -4    1    3    3    0  502  0.59050827302E+02  0.23349307224E+02 -0.28149272777E+03  0.28856881162E+03  0.12700000000E+01 0. -1.
          2    1    1    2  503    0 -0.12511725391E+02 -0.83889929570E+02 -0.38669731055E+03  0.39588997656E+03  0.00000000000E+00 0. -1.
         -1    1    1    2    0  501 -0.18245788761E+02  0.14803167931E+02 -0.60767004107E+02  0.65151142556E+02  0.00000000000E+00 0.  1.
<mgrwt>
<rscale>  0 0.43173490E+02</rscale>
<asrwt>0</asrwt>
<pdfrwt beam="2">  1        2 0.26108637E+00 0.79331932E+02</pdfrwt>
<pdfrwt beam="1">  1       -1 0.17048998E-02 0.23495587E+02</pdfrwt>
<totfact> 0.81985875E+03</totfact>
</mgrwt>
</event>
<event>
 7    1  0.3113530E-004  0.8076180E+02  0.7546771E-02  0.1376019E+00
          1   -1    0    0  503    0 -0.00000000000E+00  0.00000000000E+00  0.24112272170E+04  0.24112272170E+04  0.00000000000E+00 0. -1.
          2   -1    0    0  502    0  0.00000000000E+00 -0.00000000000E+00 -0.18641008413E+03  0.18641008413E+03  0.00000000000E+00 0. -1.
         25    2    1    2    0    0 -0.20520489227E+02  0.29868812250E+02  0.61878850366E+03  0.63232660203E+03  0.12499793182E+03 0.  0.
          4    1    3    3  501    0 -0.38644306392E+01 -0.48272059002E+02  0.18484538240E+03  0.19108781698E+03  0.12700000000E+01 0. -1.
         -4    1    3    3    0  501 -0.16656058587E+02  0.78140871252E+02  0.43394312126E+03  0.44123878506E+03  0.12700000000E+01 0. -1.
          2    1    1    2  502    0 -0.12957455878E+02  0.51554464957E+02 -0.17459706646E+03  0.18250998366E+03  0.00000000000E+00 0. -1.
          1    1    1    2  503    0  0.33477945105E+02 -0.81423277207E+02  0.17806256957E+04  0.17828007154E+04  0.00000000000E+00 0. -1.
<mgrwt>
<rscale>  0 0.65521942E+02</rscale>
<asrwt>0</asrwt>
<pdfrwt beam="2">  1        2 0.28678476E-01 0.53157864E+02</pdfrwt>
<pdfrwt beam="1">  1        1 0.37095801E+00 0.80761802E+02</pdfrwt>
<totfact> 0.51985764E+01</totfact>
</mgrwt>
</event>
<event>
 7    1  0.3113530E-004  0.1867991E+03  0.7546771E-02  0.1348376E+00
          1   -1    0    0  503    0  0.00000000000E+00  0.00000000000E+00  0.10576090829E+04  0.10576090829E+04  0.00000000000E+00 0. -1.
         -1   -1    0    0    0  501 -0.00000000000E+00 -0.00000000000E+00 -0.84219308486E+02  0.84219308486E+02  0.00000000000E+00 0.  1.
         25    2    1    2    0    0 -0.16127190670E+03 -0.12670513482E+03  0.21962544829E+03  0.32546573047E+03  0.12501913889E+03 0.  0.
          4    1    3    3  502    0  0.18878560370E+02 -0.28101606800E+02  0.21638835485E+02  0.40198911024E+02  0.12700000000E+01 0.  1.
         -4    1    3    3    0  502 -0.18015046707E+03 -0.98603528024E+02  0.19798661280E+03  0.28526681944E+03  0.12700000000E+01 0.  1.
          1    1    1    2  503    0  0.13230137446E+03  0.12674999030E+03  0.76398067792E+03  0.78564348783E+03  0.00000000000E+00 0. -1.
         -1    1    1    2    0  501  0.28970532240E+02 -0.44855477155E-01 -0.10216351811E+02  0.30719173078E+02  0.00000000000E+00 0.  1.
<mgrwt>
<rscale>  0 0.73564097E+02</rscale>
<asrwt>0</asrwt>
<pdfrwt beam="1">  1        1 0.16270908E+00 0.18679912E+03</pdfrwt>
<pdfrwt beam="2">  1       -1 0.12956817E-01 0.28970567E+02</pdfrwt>
<totfact> 0.53072864E+02</totfact>
</mgrwt>
</event>
<event>
 7    1  0.3113530E-004  0.3421631E+03  0.7546771E-02  0.1256238E+00
          2   -1    0    0  502    0  0.00000000000E+00  0.00000000000E+00  0.10835861119E+04  0.10835861119E+04  0.00000000000E+00 0. -1.
          1   -1    0    0  503    0 -0.00000000000E+00 -0.00000000000E+00 -0.13613858297E+04  0.13613858297E+04  0.00000000000E+00 0. -1.
         25    2    1    2    0    0  0.24558750766E+03 -0.18642264077E+03  0.50494734216E+03  0.60470775740E+03  0.12503211022E+03 0.  0.
          4    1    3    3  501    0  0.10051271181E+03 -0.11851216528E+03  0.15328234893E+03  0.21827741511E+03  0.12700000000E+01 0. -1.
         -4    1    3    3    0  501  0.14507479585E+03 -0.67910475498E+02  0.35166499323E+03  0.38643034228E+03  0.12700000000E+01 0. -1.
          2    1    1    2  502    0  0.20842526132E+02 -0.30456575136E+02  0.50557707759E+03  0.50692227732E+03  0.00000000000E+00 0. -1.
          1    1    1    2  503    0 -0.26643003380E+03  0.21687921591E+03 -0.12883241376E+04  0.13333419069E+04  0.00000000000E+00 0. -1.
<mgrwt>
<rscale>  0 0.11237299E+03</rscale>
<asrwt>0</asrwt>
<pdfrwt beam="1">  1        2 0.16670556E+00 0.36905472E+02</pdfrwt>
<pdfrwt beam="2">  1        1 0.20944397E+00 0.34216308E+03</pdfrwt>
<totfact> 0.31383319E+01</totfact>
</mgrwt>
</event>
<event>
 7    1  0.3113530E-004  0.6752199E+02  0.7546771E-02  0.1386325E+00
          2   -1    0    0  503    0  0.00000000000E+00  0.00000000000E+00  0.84731068598E+03  0.84731068598E+03  0.00000000000E+00 0.  1.
          2   -1    0    0  502    0 -0.00000000000E+00 -0.00000000000E+00 -0.29126961805E+04  0.29126961805E+04  0.00000000000E+00 0. -1.
         25    2    1    2    0    0 -0.70701520858E+02  0.10341663897E+03  0.35476089503E+02  0.18049815081E+03  0.12500929267E+03 0.  0.
          4    1    3    3  501    0 -0.66085940809E+02 -0.40670932568E+01  0.30184519524E+02  0.72777819005E+02  0.12700000000E+01 0.  1.
         -4    1    3    3    0  501 -0.46155800485E+01  0.10748373222E+03  0.52915699793E+01  0.10772033181E+03  0.12700000000E+01 0.  1.
          2    1    1    2  502    0  0.33244383905E+02 -0.58527551912E+02 -0.28386297544E+04  0.28394276793E+04  0.00000000000E+00 0. -1.
          2    1    1    2  503    0  0.37457136952E+02 -0.44889087055E+02  0.73776817035E+03  0.74008103639E+03  0.00000000000E+00 0.  1.
<mgrwt>
<rscale>  0 0.62830100E+02</rscale>
<asrwt>0</asrwt>
<pdfrwt beam="1">  1        2 0.13035549E+00 0.58464239E+02</pdfrwt>
<pdfrwt beam="2">  1        2 0.44810710E+00 0.67521985E+02</pdfrwt>
<totfact> 0.15885090E+01</totfact>
</mgrwt>
</event>
<event>
 7    1  0.3113530E-004  0.1769510E+03  0.7546771E-02  0.1236580E+00
          3   -1    0    0  503    0 -0.00000000000E+00  0.00000000000E+00  0.11460517165E+04  0.11460517165E+04  0.00000000000E+00 0. -1.
          1   -1    0    0  502    0  0.00000000000E+00 -0.00000000000E+00 -0.29405512420E+03  0.29405512420E+03  0.00000000000E+00 0. -1.
         25    2    1    2    0    0 -0.14565165613E+03  0.53168878360E+01 -0.76517346301E+02  0.20669371081E+03  0.12499884630E+03 0.  0.
          4    1    3    3  501    0 -0.64042337911E+02  0.45292065669E+02  0.12544932188E+02  0.79446714729E+02  0.12700000000E+01 0.  1.
         -4    1    3    3    0  501 -0.81609318216E+02 -0.39975177833E+02 -0.89062278490E+02  0.12724699608E+03  0.12700000000E+01 0.  1.
          1    1    1    2  502    0 -0.14894658074E+02 -0.85662887020E+02 -0.13186137025E+03  0.15794746600E+03  0.00000000000E+00 0. -1.
          3    1    1    2  503    0  0.16054631420E+03  0.80345999184E+02  0.10603753088E+04  0.10754656639E+04  0.00000000000E+00 0. -1.
<mgrwt>
<rscale>  0 0.12403855E+03</rscale>
<asrwt>0</asrwt>
<pdfrwt beam="2">  1        1 0.45239251E-01 0.86948152E+02</pdfrwt>
<pdfrwt beam="1">  1        3 0.17631565E+00 0.17695099E+03</pdfrwt>
<totfact> 0.11054601E+01</totfact>
</mgrwt>
</event>
<event>
 7    1  0.3113530E-004  0.4546610E+02  0.7546771E-02  0.1510581E+00
          1   -1    0    0  503    0  0.00000000000E+00  0.00000000000E+00  0.64113328426E+03  0.64113328426E+03  0.00000000000E+00 0. -1.
         -2   -1    0    0    0  501 -0.00000000000E+00 -0.00000000000E+00 -0.25395482941E+02  0.25395482941E+02  0.00000000000E+00 0.  1.
         25    2    1    2    0    0 -0.35458814418E+02 -0.62799605443E+02  0.31403318227E+03  0.34560728751E+03  0.12500575847E+03 0.  0.
          4    1    3    3  502    0  0.40117743539E+02  0.49899391898E+01  0.11970069637E+03  0.12634952493E+03  0.12700000000E+01 0. -1.
         -4    1    3    3    0  502 -0.75576557957E+02 -0.67789544633E+02  0.19433248591E+03  0.21925776258E+03  0.12700000000E+01 0. -1.
          1    1    1    2  503    0  0.26738242937E+02  0.22006889621E+02  0.25870582946E+03  0.26101330047E+03  0.00000000000E+00 0. -1.
         -2    1    1    2    0  501  0.87205714811E+01  0.40792715822E+02  0.42998789584E+02  0.59908179215E+02  0.00000000000E+00 0.  1.
<mgrwt>
<rscale>  0 0.39679856E+02</rscale>
<asrwt>0</asrwt>
<pdfrwt beam="1">  1        1 0.98635878E-01 0.34629999E+02</pdfrwt>
<pdfrwt beam="2">  1       -2 0.39069979E-02 0.45466099E+02</pdfrwt>
<totfact> 0.71579845E+03</totfact>
</mgrwt>
</event>
<event>
 7    1  0.3113530E-004  0.8320108E+02  0.7546771E-02  0.1376257E+00
          2   -1    0    0  503    0  0.00000000000E+00  0.00000000000E+00  0.13396097768E+04  0.13396097768E+04  0.00000000000E+00 0. -1.
          2   -1    0    0  502    0 -0.00000000000E+00 -0.00000000000E+00 -0.75904758010E+02  0.75904758010E+02  0.00000000000E+00 0. -1.
         25    2    1    2    0    0  0.64621258906E+02 -0.85911221267E+02  0.11876855030E+03  0.20319154830E+03  0.12499676684E+03 0.  0.
          4    1    3    3  501    0  0.74768233789E+02 -0.22318735687E+02  0.11459951155E+03  0.13864730684E+03  0.12700000000E+01 0. -1.
         -4    1    3    3    0  501 -0.10146974883E+02 -0.63592485580E+02  0.41690387422E+01  0.64544241460E+02  0.12700000000E+01 0. -1.
          2    1    1    2  502    0 -0.51325452302E+02  0.42224227952E+01 -0.11632709867E+02  0.52796314711E+02  0.00000000000E+00 0. -1.
          2    1    1    2  503    0 -0.13295806605E+02  0.81688798472E+02  0.11565691783E+04  0.11595266718E+04  0.00000000000E+00 0. -1.
<mgrwt>
<rscale>  0 0.65458073E+02</rscale>
<asrwt>0</asrwt>
<pdfrwt beam="1">  1        2 0.20609379E+00 0.83201078E+02</pdfrwt>
<pdfrwt beam="2">  1        2 0.11677656E-01 0.51498844E+02</pdfrwt>
<totfact> 0.13496034E+03</totfact>
</mgrwt>
</event>
<event>
 7    1  0.3113530E-004  0.4712410E+02  0.7546771E-02  0.1543544E+00
          1   -1    0    0  503    0 -0.00000000000E+00  0.00000000000E+00  0.18812697944E+03  0.18812697944E+03  0.00000000000E+00 0. -1.
          2   -1    0    0  502    0  0.00000000000E+00 -0.00000000000E+00 -0.37507837255E+03  0.37507837255E+03  0.00000000000E+00 0. -1.
         25    2    1    2    0    0 -0.66029298923E+02 -0.20635917185E+02 -0.10025844028E+03  0.17453585748E+03  0.12500120521E+03 0.  0.
          4    1    3    3  501    0 -0.66182536793E+02  0.18395812107E+02 -0.19237386021E+01  0.68730253525E+02  0.12700000000E+01 0.  1.
         -4    1    3    3    0  501  0.15323786973E+00 -0.39031729292E+02 -0.98334701682E+02  0.10580560395E+03  0.12700000000E+01 0.  1.
          2    1    1    2  502    0  0.45813673054E+02  0.29534115553E+01 -0.23424074970E+03  0.23869718075E+03  0.00000000000E+00 0. -1.
          1    1    1    2  503    0  0.20215625869E+02  0.17682505629E+02  0.14754779687E+03  0.14997231376E+03  0.00000000000E+00 0. -1.
<mgrwt>
<rscale>  0 0.35575984E+02</rscale>
<asrwt>0</asrwt>
<pdfrwt beam="2">  1        2 0.57704365E-01 0.47124099E+02</pdfrwt>
<pdfrwt beam="1">  1        1 0.28942612E-01 0.26857821E+02</pdfrwt>
<totfact> 0.17552865E+03</totfact>
</mgrwt>
</event>
<event>
 7    1  0.3113530E-004  0.8330270E+02  0.7546771E-02  0.1380935E+00
          2   -1    0    0  502    0  0.00000000000E+00  0.00000000000E+00  0.25954040624E+03  0.25954040624E+03  0.00000000000E+00 0. -1.
          1   -1    0    0  503    0 -0.00000000000E+00 -0.00000000000E+00 -0.79477468293E+03  0.79477468293E+03  0.00000000000E+00 0. -1.
         25    2    1    2    0    0  0.44510448624E+02 -0.16065449651E+02 -0.91445707970E+02  0.16194827820E+03  0.12500259436E+03 0.  0.
          4    1    3    3  501    0 -0.20058388874E+02  0.29031620210E+02 -0.72936735219E+02  0.81034277813E+02  0.12700000000E+01 0. -1.
         -4    1    3    3    0  501  0.64568837498E+02 -0.45097069861E+02 -0.18508972750E+02  0.80914000384E+02  0.12700000000E+01 0. -1.
          2    1    1    2  502    0  0.14428610725E+02 -0.47357320177E+02  0.21870569631E+03  0.22423889534E+03  0.00000000000E+00 0. -1.
          1    1    1    2  503    0 -0.58939059349E+02  0.63422769828E+02 -0.66249426503E+03  0.66812791564E+03  0.00000000000E+00 0. -1.
<mgrwt>
<rscale>  0 0.64218619E+02</rscale>
<asrwt>0</asrwt>
<pdfrwt beam="1">  1        2 0.39929293E-01 0.49506571E+02</pdfrwt>
<pdfrwt beam="2">  1        1 0.12227303E+00 0.83302700E+02</pdfrwt>
<totfact> 0.42191285E+02</totfact>
</mgrwt>
</event>
<event>
 7    1  0.3113530E-004  0.7026025E+02  0.7546771E-02  0.1502120E+00
          1   -1    0    0  503    0  0.00000000000E+00  0.00000000000E+00  0.11523692177E+04  0.11523692177E+04  0.00000000000E+00 0. -1.
         -2   -1    0    0    0  501 -0.00000000000E+00 -0.00000000000E+00 -0.15681889955E+02  0.15681889955E+02  0.00000000000E+00 0.  1.
         25    2    1    2    0    0 -0.85570623105E+02 -0.44921575232E+01  0.67288789785E+03  0.68974345068E+03  0.12500157466E+03 0.  0.
          4    1    3    3  502    0 -0.84308900153E+02 -0.43012523282E+02  0.59865629840E+03  0.60609326372E+03  0.12700000000E+01 0. -1.
         -4    1    3    3    0  502 -0.12617229526E+01  0.38520365759E+02  0.74231599447E+02  0.83650186966E+02  0.12700000000E+01 0. -1.
          1    1    1    2  503    0  0.64295362686E+02  0.15022841966E+02  0.43915005722E+03  0.44408597388E+03  0.00000000000E+00 0. -1.
         -2    1    1    2    0  501  0.21275260419E+02 -0.10530684443E+02  0.24649372702E+02  0.34221683117E+02  0.00000000000E+00 0.  1.
<mgrwt>
<rscale>  0 0.40839882E+02</rscale>
<asrwt>0</asrwt>
<pdfrwt beam="1">  1        1 0.17728751E+00 0.70260246E+02</pdfrwt>
<pdfrwt beam="2">  1       -2 0.24125994E-02 0.23738829E+02</pdfrwt>
<totfact> 0.50661721E+03</totfact>
</mgrwt>
</event>
<event>
 7    1  0.3113530E-004  0.5264435E+02  0.7546771E-02  0.1454790E+00
          2   -1    0    0  502    0  0.00000000000E+00  0.00000000000E+00  0.13051667608E+04  0.13051667608E+04  0.00000000000E+00 0. -1.
          2   -1    0    0  503    0 -0.00000000000E+00 -0.00000000000E+00 -0.53371036145E+02  0.53371036145E+02  0.00000000000E+00 0. -1.
         25    2    1    2    0    0  0.12108476154E+02  0.66671701089E+02  0.14711581887E+03  0.20461505765E+03  0.12503010332E+03 0.  0.
          4    1    3    3  501    0  0.24797318771E+02 -0.15386818943E+02  0.10971664991E+03  0.11353861627E+03  0.12700000000E+01 0.  1.
         -4    1    3    3    0  501 -0.12688842617E+02  0.82058520033E+02  0.37399168956E+02  0.91076441386E+02  0.12700000000E+01 0.  1.
          2    1    1    2  502    0 -0.38733051939E+02 -0.21490704798E+02  0.11004162821E+04  0.11013074474E+04  0.00000000000E+00 0. -1.
          2    1    1    2  503    0  0.26624575786E+02 -0.45180996291E+02  0.42636237230E+01  0.52615291968E+02  0.00000000000E+00 0. -1.
<mgrwt>
<rscale>  0 0.48289885E+02</rscale>
<asrwt>0</asrwt>
<pdfrwt beam="1">  1        2 0.20079486E+00 0.44295595E+02</pdfrwt>
<pdfrwt beam="2">  1        2 0.82109296E-02 0.52644354E+02</pdfrwt>
<totfact> 0.22448160E+03</totfact>
</mgrwt>
</event>
<event>
 7    1  0.3113530E-004  0.4981635E+02  0.7546771E-02  0.1456595E+00
          1   -1    0    0  503    0 -0.00000000000E+00  0.00000000000E+00  0.38636532981E+03  0.38636532981E+03  0.00000000000E+00 0. -1.
          2   -1    0    0  502    0  0.00000000000E+00 -0.00000000000E+00 -0.13875422052E+03  0.13875422052E+03  0.00000000000E+00 0. -1.
         25    2    1    2    0    0  0.11759378037E+02 -0.77671660473E+02  0.10677600391E+03  0.18220245773E+03  0.12500180310E+03 0.  0.
          4    1    3    3  501    0  0.58349374367E+02 -0.80607370472E+02  0.84071817032E+02  0.13027617197E+03  0.12700000000E+01 0.  1.
         -4    1    3    3    0  501 -0.46589996330E+02  0.29357099990E+01  0.22704186877E+02  0.51926285762E+02  0.12700000000E+01 0.  1.
          2    1    1    2  502    0 -0.32809235584E+02  0.36549232972E+02 -0.92672707304E+02  0.10488337833E+03  0.00000000000E+00 0. -1.
          1    1    1    2  503    0  0.21049857548E+02  0.41122427501E+02  0.23350781268E+03  0.23803371427E+03  0.00000000000E+00 0. -1.
<mgrwt>
<rscale>  0 0.47972486E+02</rscale>
<asrwt>0</asrwt>
<pdfrwt beam="2">  1        2 0.21346803E-01 0.49816353E+02</pdfrwt>
<pdfrwt beam="1">  1        1 0.59440819E-01 0.46196867E+02</pdfrwt>
<totfact> 0.21284495E+03</totfact>
</mgrwt>
</event>
<event>
 7    1  0.3113530E-004  0.4277642E+02  0.7546771E-02  0.1537308E+00
          2   -1    0    0  502    0  0.00000000000E+00  0.00000000000E+00  0.22506517839E+04  0.22506517839E+04  0.00000000000E+00 0. -1.
          1   -1    0    0  503    0 -0.00000000000E+00 -0.00000000000E+00 -0.62095027052E+03  0.62095027052E+03  0.00000000000E+00 0. -1.
         25    2    1    2    0    0 -0.32702892206E+02  0.46487554619E+02  0.87339104694E+03  0.88412236098E+03  0.12501942413E+03 0.  0.
          4    1    3    3  501    0 -0.39333387168E+02 -0.34989159373E+02  0.25754829720E+03  0.26287657734E+03  0.12700000000E+01 0. -1.
         -4    1    3    3    0  501  0.66304949624E+01  0.81476713991E+02  0.61584274974E+03  0.62124578364E+03  0.12700000000E+01 0. -1.
          2    1    1    2  502    0  0.30581377283E+02 -0.37682541221E+01  0.13709787963E+04  0.13713250090E+04  0.00000000000E+00 0. -1.
          1    1    1    2  503    0  0.21215149221E+01 -0.42719300497E+02 -0.61466832985E+03  0.61615468446E+03  0.00000000000E+00 0. -1.
<mgrwt>
<rscale>  0 0.36305033E+02</rscale>
<asrwt>0</asrwt>
<pdfrwt beam="1">  1        2 0.34625412E+00 0.30812666E+02</pdfrwt>
<pdfrwt beam="2">  1        1 0.95530812E-01 0.42776417E+02</pdfrwt>
<totfact> 0.35237339E+01</totfact>
</mgrwt>
</event>
<event>
 7    1  0.3113530E-004  0.8053422E+02  0.7546771E-02  0.1358152E+00
          1   -1    0    0  503    0  0.00000000000E+00  0.00000000000E+00  0.36508849576E+03  0.36508849576E+03  0.00000000000E+00 0. -1.
         -2   -1    0    0    0  501 -0.00000000000E+00 -0.00000000000E+00 -0.71814952711E+03  0.71814952711E+03  0.00000000000E+00 0.  1.
         25    2    1    2    0    0  0.77364430349E+02 -0.98346465019E+02  0.10560495463E+03  0.20595373986E+03  0.12492899686E+03 0.  0.
          4    1    3    3  502    0  0.17601861093E+02 -0.21584538207E+02 -0.28765147225E+02  0.40059510712E+02  0.12700000000E+01 0.  1.
         -4    1    3    3    0  502  0.59762569255E+02 -0.76761926812E+02  0.13437010186E+03  0.16589422915E+03  0.12700000000E+01 0.  1.
          1    1    1    2  503    0 -0.65376436629E+02  0.37673817668E+02  0.20101526101E+03  0.21471034014E+03  0.00000000000E+00 0. -1.
         -2    1    1    2    0  501 -0.11987993719E+02  0.60672647351E+02 -0.65968124699E+03  0.66257394286E+03  0.00000000000E+00 0.  1.
<mgrwt>
<rscale>  0 0.70574004E+02</rscale>
<asrwt>0</asrwt>
<pdfrwt beam="1">  1        1 0.56167461E-01 0.80534225E+02</pdfrwt>
<pdfrwt beam="2">  1       -2 0.11048454E+00 0.61845631E+02</pdfrwt>
<totfact> 0.43585476E+01</totfact>
</mgrwt>
</event>
<event>
 7    1  0.3113530E-004  0.4700476E+02  0.7546771E-02  0.1487760E+00
          2   -1    0    0  502    0  0.00000000000E+00  0.00000000000E+00  0.16876718203E+03  0.16876718203E+03  0.00000000000E+00 0. -1.
          1   -1    0    0  503    0 -0.00000000000E+00 -0.00000000000E+00 -0.84271997680E+02  0.84271997680E+02  0.00000000000E+00 0. -1.
         25    2    1    2    0    0 -0.18281805870E+02 -0.42240461387E+02  0.66843070031E+02  0.14903627659E+03  0.12500133889E+03 0.  0.
          4    1    3    3  501    0  0.36146232549E+02 -0.49466618888E+02 -0.15787026237E+01  0.61299279878E+02  0.12700000000E+01 0. -1.
         -4    1    3    3    0  501 -0.54428038419E+02  0.72261575009E+01  0.68421772655E+02  0.87736996709E+02  0.12700000000E+01 0. -1.
          2    1    1    2  502    0 -0.28644907248E+02  0.26746010085E+02  0.34069271479E+02  0.51928749511E+02  0.00000000000E+00 0. -1.
          1    1    1    2  503    0  0.46926713118E+02  0.15494451302E+02 -0.16417157160E+02  0.52074153612E+02  0.00000000000E+00 0. -1.
<mgrwt>
<rscale>  0 0.42920053E+02</rscale>
<asrwt>0</asrwt>
<pdfrwt beam="1">  1        2 0.25964182E-01 0.39190302E+02</pdfrwt>
<pdfrwt beam="2">  1        1 0.12964923E-01 0.47004764E+02</pdfrwt>
<totfact> 0.10844592E+04</totfact>
</mgrwt>
</event>
<event>
 7    1  0.3113530E-004  0.5249987E+02  0.7546771E-02  0.1442218E+00
          1   -1    0    0  503    0  0.00000000000E+00  0.00000000000E+00  0.14708868856E+02  0.14708868856E+02  0.00000000000E+00 0. -1.
         -3   -1    0    0    0  501 -0.00000000000E+00 -0.00000000000E+00 -0.23553934797E+04  0.23553934797E+04  0.00000000000E+00 0. -1.
         25    2    1    2    0    0  0.11447978696E+02 -0.90495069873E+01 -0.91304556735E+03  0.92167724818E+03  0.12499516770E+03 0.  0.
          4    1    3    3  502    0 -0.51282871503E+02  0.35748286688E+01 -0.23197959380E+03  0.23761072608E+03  0.12700000000E+01 0. -1.
         -4    1    3    3    0  502  0.62730850199E+02 -0.12624335656E+02 -0.68106597356E+03  0.68406652210E+03  0.12700000000E+01 0. -1.
          1    1    1    2  503    0 -0.33021306183E+02 -0.40814581116E+02 -0.60075883783E+02  0.79783134220E+02  0.00000000000E+00 0. -1.
         -3    1    1    2    0  501  0.21573327487E+02  0.49864088103E+02 -0.13675631597E+04  0.13686419661E+04  0.00000000000E+00 0. -1.
<mgrwt>
<rscale>  0 0.50583819E+02</rscale>
<asrwt>0</asrwt>
<pdfrwt beam="1">  1        1 0.22629041E-02 0.52499873E+02</pdfrwt>
<pdfrwt beam="2">  1       -3 0.36236804E+00 0.48737694E+02</pdfrwt>
<totfact> 0.54514498E+01</totfact>
</mgrwt>
</event>
<event>
 7    1  0.3113530E-004  0.2013953E+03  0.7546771E-02  0.1226989E+00
          2   -1    0    0  503    0  0.00000000000E+00  0.00000000000E+00  0.27644528670E+04  0.27644528670E+04  0.00000000000E+00 0. -1.
          2   -1    0    0  502    0 -0.00000000000E+00 -0.00000000000E+00 -0.17313499147E+04  0.17313499147E+04  0.00000000000E+00 0. -1.
         25    2    1    2    0    0  0.23251763911E+03 -0.13506840422E+03  0.78473656055E+03  0.83889593768E+03  0.12500799369E+03 0.  0.
          4    1    3    3  501    0  0.20431460686E+03 -0.15854768081E+03  0.70980188626E+03  0.75544831478E+03  0.12700000000E+01 0. -1.
         -4    1    3    3    0  501  0.28203032248E+02  0.23479276593E+02  0.74934674287E+02  0.83447622901E+02  0.12700000000E+01 0. -1.
          2    1    1    2  502    0 -0.19130326381E+03  0.61505309354E+02 -0.16974306190E+04  0.17092836359E+04  0.00000000000E+00 0. -1.
          2    1    1    2  503    0 -0.41214375293E+02  0.73563094867E+02  0.19457970107E+04  0.19476232081E+04  0.00000000000E+00 0. -1.
<mgrwt>
<rscale>  0 0.13031501E+03</rscale>
<asrwt>0</asrwt>
<pdfrwt beam="1">  1        2 0.42530044E+00 0.84321727E+02</pdfrwt>
<pdfrwt beam="2">  1        2 0.26636153E+00 0.20139533E+03</pdfrwt>
<totfact> 0.55899008E+00</totfact>
</mgrwt>
</event>
<event>
 7    1  0.3113530E-004  0.5454098E+02  0.7546771E-02  0.1474804E+00
         -2   -1    0    0    0  501 -0.00000000000E+00  0.00000000000E+00  0.38162330109E+02  0.38162330109E+02  0.00000000000E+00 0.  1.
          1   -1    0    0  503    0  0.00000000000E+00 -0.00000000000E+00 -0.15170590174E+04  0.15170590174E+04  0.00000000000E+00 0. -1.
         25    2    1    2    0    0 -0.55310617880E+02  0.67228590477E+02 -0.68876861644E+03  0.70541214567E+03  0.12500056170E+03 0.  0.
          4    1    3    3  502    0  0.38169732745E+02  0.41829490355E+01 -0.21532329933E+03  0.21872393946E+03  0.12700000000E+01 0. -1.
         -4    1    3    3    0  502 -0.93480350626E+02  0.63045641441E+02 -0.47344531712E+03  0.48668820620E+03  0.12700000000E+01 0. -1.
          1    1    1    2  503    0  0.26393057283E+02 -0.44136927627E+02 -0.80735406986E+03  0.80899026939E+03  0.00000000000E+00 0. -1.
         -2    1    1    2    0  501  0.28917560598E+02 -0.23091662850E+02  0.17225999017E+02  0.40818932448E+02  0.00000000000E+00 0.  1.
<mgrwt>
<rscale>  0 0.44926028E+02</rscale>
<asrwt>0</asrwt>
<pdfrwt beam="2">  1        1 0.23339363E+00 0.54540979E+02</pdfrwt>
<pdfrwt beam="1">  1       -2 0.58711292E-02 0.37006083E+02</pdfrwt>
<totfact> 0.91400578E+02</totfact>
</mgrwt>
</event>
<event>
 7    1  0.3113530E-004  0.3615013E+02  0.7546771E-02  0.1547044E+00
          1   -1    0    0  503    0  0.00000000000E+00  0.00000000000E+00  0.15553720203E+03  0.15553720203E+03  0.00000000000E+00 0. -1.
         -2   -1    0    0    0  501 -0.00000000000E+00 -0.00000000000E+00 -0.68429848375E+02  0.68429848375E+02  0.00000000000E+00 0.  1.
         25    2    1    2    0    0 -0.12339313189E+02 -0.11650103450E+02  0.47323152140E+02  0.13473279648E+03  0.12500184862E+03 0.  0.
          4    1    3    3  502    0  0.26671002211E+02  0.38087827095E+02 -0.11996869256E+02  0.48037097161E+02  0.12700000000E+01 0.  1.
         -4    1    3    3    0  502 -0.39010315400E+02 -0.49737930545E+02  0.59320021395E+02  0.86695699322E+02  0.12700000000E+01 0.  1.
          1    1    1    2  503    0 -0.30645932782E+02  0.19174419006E+02  0.15971172221E+02  0.39521005585E+02  0.00000000000E+00 0. -1.
         -2    1    1    2    0  501  0.42985245971E+02 -0.75243155563E+01  0.23813029292E+02  0.49713248333E+02  0.00000000000E+00 0.  1.
<mgrwt>
<rscale>  0 0.35175905E+02</rscale>
<asrwt>0</asrwt>
<pdfrwt beam="1">  1        1 0.23928800E-01 0.36150125E+02</pdfrwt>
<pdfrwt beam="2">  1       -2 0.10527669E-01 0.34227940E+02</pdfrwt>
<totfact> 0.88585929E+03</totfact>
</mgrwt>
</event>
<event>
 7    1  0.3113530E-004  0.1095000E+03  0.7546771E-02  0.1383001E+00
          2   -1    0    0  502    0  0.00000000000E+00  0.00000000000E+00  0.23683765820E+04  0.23683765820E+04  0.00000000000E+00 0. -1.
          1   -1    0    0  503    0 -0.00000000000E+00 -0.00000000000E+00 -0.40431727261E+02  0.40431727261E+02  0.00000000000E+00 0. -1.
         25    2    1    2    0    0 -0.65573805340E+02 -0.34791261701E+02  0.19024473982E+04  0.19079942073E+04  0.12500174513E+03 0.  0.
          4    1    3    3  501    0 -0.90935129680E+02 -0.26425653530E+02  0.85909826473E+03  0.86430258263E+03  0.12700000000E+01 0.  1.
         -4    1    3    3    0  501  0.25361324339E+02 -0.83656081712E+01  0.10433491335E+04  0.10436916247E+04  0.12700000000E+01 0.  1.
          2    1    1    2  502    0 -0.30175435729E+02 -0.21471571067E+02  0.37836045044E+03  0.38016866749E+03  0.00000000000E+00 0. -1.
          1    1    1    2  503    0  0.95749241069E+02  0.56262832768E+02  0.47137006093E+02  0.12064543448E+03  0.00000000000E+00 0. -1.
<mgrwt>
<rscale>  0 0.63681426E+02</rscale>
<asrwt>0</asrwt>
<pdfrwt beam="1">  1        2 0.36436552E+00 0.37034920E+02</pdfrwt>
<pdfrwt beam="2">  1        1 0.62202676E-02 0.10950001E+03</pdfrwt>
<totfact> 0.95407797E+02</totfact>
</mgrwt>
</event>
<event>
 7    1  0.3113530E-004  0.3835337E+02  0.7546771E-02  0.1531452E+00
          3   -1    0    0  503    0 -0.00000000000E+00  0.00000000000E+00  0.13699717968E+03  0.13699717968E+03  0.00000000000E+00 0. -1.
          1   -1    0    0  502    0  0.00000000000E+00 -0.00000000000E+00 -0.43956467243E+03  0.43956467243E+03  0.00000000000E+00 0. -1.
         25    2    1    2    0    0  0.31788306508E+02 -0.98364580555E+01 -0.70981243935E+02  0.14755128037E+03  0.12500316401E+03 0.  0.
          4    1    3    3  501    0  0.40256732057E+02  0.16538609966E+02 -0.98986908419E+02  0.10813949803E+03  0.12700000000E+01 0. -1.
         -4    1    3    3    0  501 -0.84684255488E+01 -0.26375068022E+02  0.28005664484E+02  0.39411782345E+02  0.12700000000E+01 0. -1.
          1    1    1    2  502    0 -0.22117177833E+02 -0.28038410466E+02 -0.32541296222E+03  0.32736664154E+03  0.00000000000E+00 0. -1.
          3    1    1    2  503    0 -0.96711286747E+01  0.37874868521E+02  0.93826713405E+02  0.10164393019E+03  0.00000000000E+00 0. -1.
<mgrwt>
<rscale>  0 0.37008946E+02</rscale>
<asrwt>0</asrwt>
<pdfrwt beam="2">  1        1 0.67625335E-01 0.35711651E+02</pdfrwt>
<pdfrwt beam="1">  1        3 0.21076489E-01 0.38353367E+02</pdfrwt>
<totfact> 0.52411964E+02</totfact>
</mgrwt>
</event>
<event>
 7    1  0.3113530E-004  0.2518446E+02  0.7546771E-02  0.1694949E+00
          3   -1    0    0  503    0  0.00000000000E+00  0.00000000000E+00  0.58355260376E+03  0.58355260376E+03  0.00000000000E+00 0. -1.
         -3   -1    0    0    0  501 -0.00000000000E+00 -0.00000000000E+00 -0.98498040137E+02  0.98498040137E+02  0.00000000000E+00 0.  1.
         25    2    1    2    0    0 -0.73064021208E+01 -0.50853350975E+01 -0.38382356934E+02  0.13104973154E+03  0.12498632992E+03 0.  0.
          4    1    3    3  502    0  0.26775690175E+02 -0.56328967829E+02 -0.96701965994E+01  0.63126981579E+02  0.12700000000E+01 0. -1.
         -4    1    3    3    0  502 -0.34082092296E+02  0.51243632732E+02 -0.28712160334E+02  0.67922749958E+02  0.12700000000E+01 0. -1.
          3    1    1    2  503    0  0.17391100351E+02 -0.18215558469E+02  0.52496179203E+03  0.52556554304E+03  0.00000000000E+00 0. -1.
         -3    1    1    2    0  501 -0.10084698230E+02  0.23300893567E+02 -0.15248714720E+01  0.25435369319E+02  0.00000000000E+00 0.  1.
<mgrwt>
<rscale>  0 0.22789287E+02</rscale>
<asrwt>0</asrwt>
<pdfrwt beam="1">  1        3 0.89777322E-01 0.25184458E+02</pdfrwt>
<pdfrwt beam="2">  1       -3 0.15153545E-01 0.20621908E+02</pdfrwt>
<totfact> 0.72432158E+01</totfact>
</mgrwt>
</event>
<event>
 7    1  0.3113530E-004  0.6756185E+02  0.7546771E-02  0.1378169E+00
          1   -1    0    0  503    0 -0.00000000000E+00  0.00000000000E+00  0.14407052051E+03  0.14407052051E+03  0.00000000000E+00 0. -1.
          2   -1    0    0  502    0  0.00000000000E+00 -0.00000000000E+00 -0.49440031055E+03  0.49440031055E+03  0.00000000000E+00 0. -1.
         25    2    1    2    0    0 -0.35382860832E+02  0.93835153871E+02 -0.24265220301E+02  0.16209368460E+03  0.12501431410E+03 0.  0.
          4    1    3    3  501    0 -0.40489768665E+02  0.22534192728E+02 -0.64978855805E+02  0.79819019100E+02  0.12700000000E+01 0.  1.
         -4    1    3    3    0  501  0.51069078332E+01  0.71300961144E+02  0.40713635504E+02  0.82274665503E+02  0.12700000000E+01 0.  1.
          2    1    1    2  502    0  0.56989695895E+02 -0.35258794439E+02 -0.38483912442E+03  0.39063046439E+03  0.00000000000E+00 0. -1.
          1    1    1    2  503    0 -0.21606835063E+02 -0.58576359433E+02  0.58774554691E+02  0.85746682064E+02  0.00000000000E+00 0. -1.
<mgrwt>
<rscale>  0 0.64947509E+02</rscale>
<asrwt>0</asrwt>
<pdfrwt beam="2">  1        2 0.76061587E-01 0.67561854E+02</pdfrwt>
<pdfrwt beam="1">  1        1 0.22164695E-01 0.62434327E+02</pdfrwt>
<totfact> 0.18674466E+03</totfact>
</mgrwt>
</event>
<event>
 7    1  0.3113530E-004  0.1497650E+03  0.7546771E-02  0.1247365E+00
          1   -1    0    0  503    0  0.00000000000E+00  0.00000000000E+00  0.30578723941E+03  0.30578723941E+03  0.00000000000E+00 0. -1.
         -2   -1    0    0    0  501 -0.00000000000E+00 -0.00000000000E+00 -0.10293761500E+04  0.10293761500E+04  0.00000000000E+00 0.  1.
         25    2    1    2    0    0  0.45956806172E+02  0.20406867282E+03 -0.57492552253E+03  0.62443568383E+03  0.12499806205E+03 0.  0.
          4    1    3    3  502    0  0.54227276935E+02  0.21861864469E+03 -0.51293352606E+03  0.56021167823E+03  0.12700000000E+01 0. -1.
         -4    1    3    3    0  502 -0.82704707627E+01 -0.14549971870E+02 -0.61991996477E+02  0.64224005600E+02  0.12700000000E+01 0. -1.
          1    1    1    2  503    0 -0.85747249865E+02 -0.12100015284E+03  0.25592406077E+03  0.29578835800E+03  0.00000000000E+00 0. -1.
         -2    1    1    2    0  501  0.39790443693E+02 -0.83068519979E+02 -0.40458744886E+03  0.41493934761E+03  0.00000000000E+00 0.  1.
<mgrwt>
<rscale>  0 0.11744946E+03</rscale>
<asrwt>0</asrwt>
<pdfrwt beam="1">  1        1 0.47044190E-01 0.14976504E+03</pdfrwt>
<pdfrwt beam="2">  1       -2 0.15836556E+00 0.92106777E+02</pdfrwt>
<totfact> 0.22137905E+01</totfact>
</mgrwt>
</event>
<event>
 7    1  0.3113530E-004  0.1696158E+03  0.7546771E-02  0.1223848E+00
         -1   -1    0    0    0  501 -0.00000000000E+00  0.00000000000E+00  0.15227796616E+04  0.15227796616E+04  0.00000000000E+00 0.  1.
          1   -1    0    0  503    0  0.00000000000E+00 -0.00000000000E+00 -0.36917099215E+03  0.36917099215E+03  0.00000000000E+00 0. -1.
         25    2    1    2    0    0 -0.75737592259E+02 -0.20141197724E+03  0.59813538777E+02  0.25594201757E+03  0.12500275790E+03 0.  0.
          4    1    3    3  502    0 -0.16222980689E+00 -0.15351853192E+03  0.10769589766E+02  0.15390114660E+03  0.12700000000E+01 0.  1.
         -4    1    3    3    0  502 -0.75575362452E+02 -0.47893445320E+02  0.49043949011E+02  0.10204087097E+03  0.12700000000E+01 0.  1.
          1    1    1    2  503    0 -0.20820472771E+02  0.16429668373E+03 -0.24363012463E+03  0.29458874723E+03  0.00000000000E+00 0. -1.
         -1    1    1    2    0  501  0.96558065030E+02  0.37115293511E+02  0.13374252553E+04  0.13414198889E+04  0.00000000000E+00 0.  1.
<mgrwt>
<rscale>  0 0.13246140E+03</rscale>
<asrwt>0</asrwt>
<pdfrwt beam="2">  1        1 0.56795538E-01 0.16961585E+03</pdfrwt>
<pdfrwt beam="1">  1       -1 0.23427379E+00 0.10344566E+03</pdfrwt>
<totfact> 0.75006115E+00</totfact>
</mgrwt>
</event>
<event>
 7    1  0.3113530E-004  0.1044208E+03  0.7546771E-02  0.1327272E+00
         -3   -1    0    0    0  501 -0.00000000000E+00  0.00000000000E+00  0.20435431663E+03  0.20435431663E+03  0.00000000000E+00 0.  1.
          2   -1    0    0  503    0  0.00000000000E+00 -0.00000000000E+00 -0.30087719052E+04  0.30087719052E+04  0.00000000000E+00 0. -1.
         25    2    1    2    0    0  0.66710715786E+02 -0.13856804062E+03 -0.11500194612E+04  0.11669708943E+04  0.12499954184E+03 0.  0.
          4    1    3    3  502    0 -0.24312042008E+02 -0.95426586288E+01 -0.38159614828E+03  0.38249100774E+03  0.12700000000E+01 0.  1.
         -4    1    3    3    0  502  0.91022757794E+02 -0.12902538199E+03 -0.76842331291E+03  0.78447988652E+03  0.12700000000E+01 0.  1.
          2    1    1    2  503    0 -0.22487678394E+02  0.94742435711E+02 -0.18440120722E+04  0.18465812593E+04  0.00000000000E+00 0. -1.
         -3    1    1    2    0  501 -0.44223037392E+02  0.43825604908E+02  0.18961394478E+03  0.19957406830E+03  0.00000000000E+00 0.  1.
<mgrwt>
<rscale>  0 0.80630542E+02</rscale>
<asrwt>0</asrwt>
<pdfrwt beam="2">  1        2 0.46288800E+00 0.10442081E+03</pdfrwt>
<pdfrwt beam="1">  1       -3 0.31439125E-01 0.62260426E+02</pdfrwt>
<totfact> 0.13392756E+01</totfact>
</mgrwt>
</event>
<event>
 7    1  0.3113530E-004  0.1470256E+03  0.7546771E-02  0.1290772E+00
          1   -1    0    0  503    0 -0.00000000000E+00  0.00000000000E+00  0.23392819982E+03  0.23392819982E+03  0.00000000000E+00 0. -1.
          2   -1    0    0  502    0  0.00000000000E+00 -0.00000000000E+00 -0.12892820061E+04  0.12892820061E+04  0.00000000000E+00 0.  1.
         25    2    1    2    0    0 -0.18640474672E+03 -0.46319711520E+02  0.68252574619E+01  0.22926827793E+03  0.12500045540E+03 0.  0.
          4    1    3    3  501    0 -0.13865663102E+03 -0.11953228228E+02  0.58485065201E+02  0.15096574692E+03  0.12700000000E+01 0.  1.
         -4    1    3    3    0  501 -0.47748115697E+02 -0.34366483292E+02 -0.51659807740E+02  0.78302531008E+02  0.12700000000E+01 0.  1.
          2    1    1    2  502    0  0.56243774021E+02  0.25163786735E+02 -0.11394410728E+04  0.11411058393E+04  0.00000000000E+00 0.  1.
          1    1    1    2  503    0  0.13016097270E+03  0.21155924785E+02  0.77262008995E+02  0.15283608868E+03  0.00000000000E+00 0. -1.
<mgrwt>
<rscale>  0 0.95179763E+02</rscale>
<asrwt>0</asrwt>
<pdfrwt beam="2">  1        2 0.19835107E+00 0.61616380E+02</pdfrwt>
<pdfrwt beam="1">  1        1 0.35988954E-01 0.14702563E+03</pdfrwt>
<totfact> 0.32127627E+02</totfact>
</mgrwt>
</event>
<event>
 7    1  0.3113530E-004  0.1038084E+03  0.7546771E-02  0.1295301E+00
          2   -1    0    0  503    0  0.00000000000E+00  0.00000000000E+00  0.33579266137E+02  0.33579266137E+02  0.00000000000E+00 0. -1.
          2   -1    0    0  502    0 -0.00000000000E+00 -0.00000000000E+00 -0.41072437514E+04  0.41072437514E+04  0.00000000000E+00 0. -1.
         25    2    1    2    0    0  0.10421089660E+03 -0.10139094287E+01 -0.18790773239E+03  0.24858409269E+03  0.12499518498E+03 0.  0.
          4    1    3    3  501    0  0.77514418371E+01 -0.45728339698E+02 -0.10139975785E+03  0.11151093979E+03  0.12700000000E+01 0.  1.
         -4    1    3    3    0  501  0.96459454761E+02  0.44714430269E+02 -0.86507974543E+02  0.13707315290E+03  0.12700000000E+01 0.  1.
          2    1    1    2  502    0 -0.82115811134E+01 -0.83257163824E+02 -0.22269869299E+04  0.22285578232E+04  0.00000000000E+00 0. -1.
          2    1    1    2  503    0 -0.95999315484E+02  0.84271073252E+02 -0.16587698230E+04  0.16636811017E+04  0.00000000000E+00 0. -1.
<mgrwt>
<rscale>  0 0.93191890E+02</rscale>
<asrwt>0</asrwt>
<pdfrwt beam="1">  1        2 0.51660448E-02 0.10380840E+03</pdfrwt>
<pdfrwt beam="2">  1        2 0.63188318E+00 0.83661134E+02</pdfrwt>
<totfact> 0.10200650E+02</totfact>
</mgrwt>
</event>
<event>
 7    1  0.3113530E-004  0.6388353E+02  0.7546771E-02  0.1433514E+00
         -2   -1    0    0    0  501 -0.00000000000E+00  0.00000000000E+00  0.18443048541E+03  0.18443048541E+03  0.00000000000E+00 0.  1.
          2   -1    0    0  503    0  0.00000000000E+00 -0.00000000000E+00 -0.12917914162E+03  0.12917914162E+03  0.00000000000E+00 0. -1.
         25    2    1    2    0    0  0.22692351057E+02  0.24175681333E+02  0.48958010223E+02  0.13826123688E+03  0.12497950430E+03 0.  0.
          4    1    3    3  502    0 -0.33730817762E+02 -0.17004607252E+02 -0.17667367756E+02  0.41721379629E+02  0.12700000000E+01 0. -1.
         -4    1    3    3    0  502  0.56423168819E+02  0.41180288585E+02  0.66625377979E+02  0.96539857252E+02  0.12700000000E+01 0. -1.
          2    1    1    2  503    0  0.23601614410E+02  0.35648243096E+02 -0.60739256910E+02  0.74277121435E+02  0.00000000000E+00 0. -1.
         -2    1    1    2    0  501 -0.46293965467E+02 -0.59823924428E+02  0.67032590476E+02  0.10107126871E+03  0.00000000000E+00 0.  1.
<mgrwt>
<rscale>  0 0.52261109E+02</rscale>
<asrwt>0</asrwt>
<pdfrwt beam="2">  1        2 0.19873714E-01 0.42753169E+02</pdfrwt>
<pdfrwt beam="1">  1       -2 0.28373921E-01 0.63883534E+02</pdfrwt>
<totfact> 0.28581461E+03</totfact>
</mgrwt>
</event>
<event>
 7    1  0.3113530E-004  0.1207762E+03  0.7546771E-02  0.1376397E+00
          2   -1    0    0  503    0  0.00000000000E+00  0.00000000000E+00  0.19209885606E+03  0.19209885606E+03  0.00000000000E+00 0. -1.
          2   -1    0    0  502    0 -0.00000000000E+00 -0.00000000000E+00 -0.34395516434E+04  0.34395516434E+04  0.00000000000E+00 0.  1.
         25    2    1    2    0    0 -0.14343557972E+03 -0.41664484119E+02 -0.14012200276E+04  0.14146928254E+04  0.12501411803E+03 0.  0.
          4    1    3    3  501    0 -0.45263242132E+02 -0.13271884780E+02 -0.11342376420E+03  0.12284733289E+03  0.12700000000E+01 0.  1.
         -4    1    3    3    0  501 -0.98172337593E+02 -0.28392599339E+02 -0.12877962634E+04  0.12918454925E+04  0.12700000000E+01 0.  1.
          2    1    1    2  502    0  0.10894689077E+03  0.33524859977E+02 -0.20282866091E+04  0.20314871178E+04  0.00000000000E+00 0.  1.
          2    1    1    2  503    0  0.34488688955E+02  0.81396241421E+01  0.18205384939E+03  0.18547055622E+03  0.00000000000E+00 0. -1.
<mgrwt>
<rscale>  0 0.65420534E+02</rscale>
<asrwt>0</asrwt>
<pdfrwt beam="1">  1        2 0.29553670E-01 0.35436184E+02</pdfrwt>
<pdfrwt beam="2">  1        2 0.52916179E+00 0.12077616E+03</pdfrwt>
<totfact> 0.33712906E+01</totfact>
</mgrwt>
</event>
<event>
 7    1  0.3113530E-004  0.1126959E+03  0.7546771E-02  0.1262597E+00
         -2   -1    0    0    0  501 -0.00000000000E+00  0.00000000000E+00  0.24103487036E+03  0.24103487036E+03  0.00000000000E+00 0.  1.
          2   -1    0    0  503    0  0.00000000000E+00 -0.00000000000E+00 -0.28367351386E+04  0.28367351386E+04  0.00000000000E+00 0. -1.
         25    2    1    2    0    0  0.36714392140E+02  0.12709954580E+03 -0.13796890759E+03  0.22840453473E+03  0.12502388128E+03 0.  0.
          4    1    3    3  502    0  0.21835063931E+02 -0.93945033502E+01 -0.72459431750E+02  0.76269317943E+02  0.12700000000E+01 0.  1.
         -4    1    3    3    0  502  0.14879328209E+02  0.13649404915E+03 -0.65509475844E+02  0.15213521678E+03  0.12700000000E+01 0.  1.
          2    1    1    2  503    0  0.63246922996E+02 -0.94135426984E+02 -0.26380971423E+04  0.26405336930E+04  0.00000000000E+00 0. -1.
         -2    1    1    2    0  501 -0.99961315136E+02 -0.32964118812E+02  0.18036578164E+03  0.20883178120E+03  0.00000000000E+00 0.  1.
<mgrwt>
<rscale>  0 0.10891262E+03</rscale>
<asrwt>0</asrwt>
<pdfrwt beam="2">  1        2 0.43642078E+00 0.11269590E+03</pdfrwt>
<pdfrwt beam="1">  1       -2 0.37082289E-01 0.10525634E+03</pdfrwt>
<totfact> 0.20359908E+01</totfact>
</mgrwt>
</event>
<event>
 7    1  0.3113530E-004  0.7095476E+02  0.7546771E-02  0.1396401E+00
         -3   -1    0    0    0  501 -0.00000000000E+00  0.00000000000E+00  0.45047359665E+03  0.45047359665E+03  0.00000000000E+00 0.  1.
          2   -1    0    0  503    0  0.00000000000E+00 -0.00000000000E+00 -0.31098218562E+04  0.31098218562E+04  0.00000000000E+00 0. -1.
         25    2    1    2    0    0  0.42752236277E+02  0.95481991013E+02  0.19154475753E+03  0.25151496809E+03  0.12500328284E+03 0.  0.
          4    1    3    3  502    0 -0.42269415048E+02  0.25652870450E+02  0.36840347105E+02  0.61673310967E+02  0.12700000000E+01 0.  1.
         -4    1    3    3    0  502  0.85021651325E+02  0.69829120563E+02  0.15470441043E+03  0.18984165712E+03  0.12700000000E+01 0.  1.
          2    1    1    2  503    0  0.22805232174E+01 -0.70875417411E+02 -0.30765474134E+04  0.30773645401E+04  0.00000000000E+00 0. -1.
         -3    1    1    2    0  501 -0.45032759495E+02 -0.24606573602E+02  0.22565439630E+03  0.23141594470E+03  0.00000000000E+00 0.  1.
<mgrwt>
<rscale>  0 0.60342225E+02</rscale>
<asrwt>0</asrwt>
<pdfrwt beam="2">  1        2 0.47843412E+00 0.70954756E+02</pdfrwt>
<pdfrwt beam="1">  1       -3 0.69303632E-01 0.51316984E+02</pdfrwt>
<totfact> 0.26673385E+00</totfact>
</mgrwt>
</event>
<event>
 7    1  0.3113530E-004  0.3497068E+02  0.7546771E-02  0.1557676E+00
         -1   -1    0    0    0  501 -0.00000000000E+00  0.00000000000E+00  0.17651230645E+02  0.17651230645E+02  0.00000000000E+00 0.  1.
          2   -1    0    0  503    0  0.00000000000E+00 -0.00000000000E+00 -0.69809928215E+03  0.69809928215E+03  0.00000000000E+00 0. -1.
         25    2    1    2    0    0  0.92714443743E+01 -0.22309962005E+02 -0.28565805873E+03  0.31274477320E+03  0.12500029025E+03 0.  0.
          4    1    3    3  502    0 -0.56680237789E+02 -0.16912166784E+02 -0.10774049886E+03  0.12291581971E+03  0.12700000000E+01 0. -1.
         -4    1    3    3    0  502  0.65951682163E+02 -0.53977952211E+01 -0.17791755987E+03  0.18982895349E+03  0.12700000000E+01 0. -1.
          2    1    1    2  503    0 -0.23722167410E+02 -0.23017556425E+02 -0.14423207901E+03  0.14797108416E+03  0.00000000000E+00 0. -1.
         -1    1    1    2    0  501  0.14450723035E+02  0.45327518430E+02 -0.25055791376E+03  0.25503465543E+03  0.00000000000E+00 0.  1.
<mgrwt>
<rscale>  0 0.33998698E+02</rscale>
<asrwt>0</asrwt>
<pdfrwt beam="2">  1        2 0.10739990E+00 0.33053731E+02</pdfrwt>
<pdfrwt beam="1">  1       -1 0.27155736E-02 0.34970681E+02</pdfrwt>
<totfact> 0.17305665E+04</totfact>
</mgrwt>
</event>
<event>
 7    1  0.3113530E-004  0.7650140E+02  0.7546771E-02  0.1354438E+00
          2   -1    0    0  502    0  0.00000000000E+00  0.00000000000E+00  0.30973884185E+03  0.30973884185E+03  0.00000000000E+00 0. -1.
          1   -1    0    0  503    0 -0.00000000000E+00 -0.00000000000E+00 -0.91113700397E+03  0.91113700397E+03  0.00000000000E+00 0. -1.
         25    2    1    2    0    0  0.16691478524E+02  0.23336758488E+02 -0.21728387025E+03  0.25230762048E+03  0.12499458120E+03 0.  0.
          4    1    3    3  501    0 -0.30091548677E+02 -0.24859949389E+02 -0.15785422391E+03  0.16261330601E+03  0.12700000000E+01 0.  1.
         -4    1    3    3    0  501  0.46783027201E+02  0.48196707877E+02 -0.59429646348E+02  0.89694314476E+02  0.12700000000E+01 0.  1.
          2    1    1    2  502    0  0.66780811416E+02 -0.73274769678E+01  0.28564427247E+03  0.29343827134E+03  0.00000000000E+00 0. -1.
          1    1    1    2  503    0 -0.83472289940E+02 -0.16009281520E+02 -0.66975856434E+03  0.67512995400E+03  0.00000000000E+00 0. -1.
<mgrwt>
<rscale>  0 0.71690218E+02</rscale>
<asrwt>0</asrwt>
<pdfrwt beam="1">  1        2 0.47652130E-01 0.67181610E+02</pdfrwt>
<pdfrwt beam="2">  1        1 0.14017492E+00 0.76501403E+02</pdfrwt>
<totfact> 0.28838660E+02</totfact>
</mgrwt>
</event>
<event>
 7    1  0.3113530E-004  0.2049423E+03  0.7546771E-02  0.1269689E+00
          1   -1    0    0  503    0  0.00000000000E+00  0.00000000000E+00  0.82142672257E+02  0.82142672257E+02  0.00000000000E+00 0. -1.
         -1   -1    0    0    0  501 -0.00000000000E+00 -0.00000000000E+00 -0.13596899930E+04  0.13596899930E+04  0.00000000000E+00 0.  1.
         25    2    1    2    0    0  0.12030087443E+03 -0.16386610289E+03 -0.57159357462E+03  0.61941072725E+03  0.12500413758E+03 0.  0.
          4    1    3    3  502    0  0.45500173558E+02 -0.99438056647E+02 -0.14543381090E+03  0.18196373033E+03  0.12700000000E+01 0. -1.
         -4    1    3    3    0  502  0.74800700868E+02 -0.64428046246E+02 -0.42615976372E+03  0.43744699691E+03  0.12700000000E+01 0. -1.
          1    1    1    2  503    0  0.42466623128E+02  0.33388298938E+02  0.26977052281E+02  0.60381735116E+02  0.00000000000E+00 0. -1.
         -1    1    1    2    0  501 -0.16276749755E+03  0.13047780395E+03 -0.73293079840E+03  0.76204020289E+03  0.00000000000E+00 0.  1.
<mgrwt>
<rscale>  0 0.10521903E+03</rscale>
<asrwt>0</asrwt>
<pdfrwt beam="1">  1        1 0.12637335E-01 0.54020298E+02</pdfrwt>
<pdfrwt beam="2">  1       -1 0.20918307E+00 0.20494231E+03</pdfrwt>
<totfact> 0.64389247E+01</totfact>
</mgrwt>
</event>
<event>
 7    1  0.3113530E-004  0.6092257E+02  0.7546771E-02  0.1408506E+00
          3   -1    0    0  503    0 -0.00000000000E+00  0.00000000000E+00  0.13904822392E+03  0.13904822392E+03  0.00000000000E+00 0. -1.
          1   -1    0    0  502    0  0.00000000000E+00 -0.00000000000E+00 -0.25242679274E+03  0.25242679274E+03  0.00000000000E+00 0. -1.
         25    2    1    2    0    0 -0.11455245166E+02  0.17543171774E+02 -0.58351310450E+02  0.13952786792E+03  0.12499665987E+03 0.  0.
          4    1    3    3  501    0  0.31768988872E+02  0.66571848357E+01  0.27646823759E+02  0.42656142909E+02  0.12700000000E+01 0. -1.
         -4    1    3    3    0  501 -0.43224234038E+02  0.10885986938E+02 -0.85998134209E+02  0.96871725014E+02  0.12700000000E+01 0. -1.
          1    1    1    2  502    0  0.65201007581E+02 -0.25445123594E+02 -0.13686378274E+03  0.15372156885E+03  0.00000000000E+00 0. -1.
          3    1    1    2  503    0 -0.53745762415E+02  0.79019518200E+01  0.81836524377E+02  0.98225579877E+02  0.00000000000E+00 0. -1.
<mgrwt>
<rscale>  0 0.57528518E+02</rscale>
<asrwt>0</asrwt>
<pdfrwt beam="2">  1        1 0.38834891E-01 0.60922574E+02</pdfrwt>
<pdfrwt beam="1">  1        3 0.21392035E-01 0.54323548E+02</pdfrwt>
<totfact> 0.10351541E+03</totfact>
</mgrwt>
</event>
<event>
 7    1  0.3113530E-004  0.3653521E+02  0.7546771E-02  0.1538666E+00
         -1   -1    0    0    0  501 -0.00000000000E+00  0.00000000000E+00  0.42631067403E+03  0.42631067403E+03  0.00000000000E+00 0.  1.
          2   -1    0    0  503    0  0.00000000000E+00 -0.00000000000E+00 -0.32448243424E+02  0.32448243424E+02  0.00000000000E+00 0. -1.
         25    2    1    2    0    0  0.44590854017E+01  0.31215843334E+02  0.30742742126E+03  0.33336600866E+03  0.12500785605E+03 0.  0.
          4    1    3    3  502    0 -0.49016897572E+02  0.20405388082E+02  0.24390731683E+03  0.24962257152E+03  0.12700000000E+01 0.  1.
         -4    1    3    3    0  502  0.53475982974E+02  0.10810455251E+02  0.63520104430E+02  0.83743437143E+02  0.12700000000E+01 0.  1.
          2    1    1    2  503    0 -0.35733203558E+02 -0.13316933356E+01  0.92851551007E+01  0.36943867541E+02  0.00000000000E+00 0. -1.
         -1    1    1    2    0  501  0.31274118156E+02 -0.29884149998E+02  0.77149854244E+02  0.88449041247E+02  0.00000000000E+00 0.  1.
<mgrwt>
<rscale>  0 0.36144522E+02</rscale>
<asrwt>0</asrwt>
<pdfrwt beam="2">  1        2 0.49920377E-02 0.35758010E+02</pdfrwt>
<pdfrwt beam="1">  1       -1 0.65586254E-01 0.36535213E+02</pdfrwt>
<totfact> 0.37718505E+03</totfact>
</mgrwt>
</event>
<event>
 7    1  0.3113530E-004  0.1055442E+03  0.7546771E-02  0.1349198E+00
         -1   -1    0    0    0  501 -0.00000000000E+00  0.00000000000E+00  0.10127659765E+03  0.10127659765E+03  0.00000000000E+00 0.  1.
          2   -1    0    0  503    0  0.00000000000E+00 -0.00000000000E+00 -0.14928195054E+04  0.14928195054E+04  0.00000000000E+00 0. -1.
         25    2    1    2    0    0 -0.75183137524E+02 -0.85909107763E+02 -0.34480358737E+03  0.38411934025E+03  0.12500109890E+03 0.  0.
          4    1    3    3  502    0 -0.82410513633E+02 -0.28094340525E+02 -0.29459703426E+03  0.30719669630E+03  0.12700000000E+01 0. -1.
         -4    1    3    3    0  502  0.72273761094E+01 -0.57814767238E+02 -0.50206553116E+02  0.76922643948E+02  0.12700000000E+01 0. -1.
          2    1    1    2  503    0  0.26975694884E+02  0.10229168239E+03 -0.11176692837E+04  0.11226646446E+04  0.00000000000E+00 0. -1.
         -1    1    1    2    0  501  0.48207442639E+02 -0.16382574631E+02  0.70929963379E+02  0.87312118187E+02  0.00000000000E+00 0.  1.
<mgrwt>
<rscale>  0 0.73306171E+02</rscale>
<asrwt>0</asrwt>
<pdfrwt beam="2">  1        2 0.22966453E+00 0.10554425E+03</pdfrwt>
<pdfrwt beam="1">  1       -1 0.15581016E-01 0.50915089E+02</pdfrwt>
<totfact> 0.47500707E+02</totfact>
</mgrwt>
</event>
<event>
 7    1  0.3113530E-004  0.9852692E+02  0.7546771E-02  0.1435271E+00
          2   -1    0    0  502    0  0.00000000000E+00  0.00000000000E+00  0.18325443823E+03  0.18325443823E+03  0.00000000000E+00 0. -1.
          3   -1    0    0  503    0 -0.00000000000E+00 -0.00000000000E+00 -0.38440475425E+03  0.38440475425E+03  0.00000000000E+00 0. -1.
         25    2    1    2    0    0  0.72118372414E+02 -0.12206198992E+02  0.85387231010E+02  0.16812834285E+03  0.12500443798E+03 0.  0.
          4    1    3    3  501    0 -0.16140231728E+02 -0.40262372235E+02  0.56229679152E+02  0.71027849579E+02  0.12700000000E+01 0.  1.
         -4    1    3    3    0  501  0.88258604142E+02  0.28056173243E+02  0.29157551857E+02  0.97100493266E+02  0.12700000000E+01 0.  1.
          2    1    1    2  502    0  0.27315787082E+02  0.14857347501E+01  0.45316979925E+02  0.52933810568E+02  0.00000000000E+00 0. -1.
          3    1    1    2  503    0 -0.99434159496E+02  0.10720464242E+02 -0.33185452696E+03  0.34659703907E+03  0.00000000000E+00 0. -1.
<mgrwt>
<rscale>  0 0.51916457E+02</rscale>
<asrwt>0</asrwt>
<pdfrwt beam="1">  1        2 0.28192991E-01 0.27356163E+02</pdfrwt>
<pdfrwt beam="2">  1        3 0.59139192E-01 0.98526922E+02</pdfrwt>
<totfact> 0.29938203E+02</totfact>
</mgrwt>
</event>
<event>
 7    1  0.3113530E-004  0.1362176E+03  0.7546771E-02  0.1317345E+00
          1   -1    0    0  503    0 -0.00000000000E+00  0.00000000000E+00  0.18659311825E+03  0.18659311825E+03  0.00000000000E+00 0. -1.
          2   -1    0    0  502    0  0.00000000000E+00 -0.00000000000E+00 -0.78236524872E+03  0.78236524872E+03  0.00000000000E+00 0.  1.
         25    2    1    2    0    0  0.78350573143E+02 -0.89434272329E+02 -0.22153009782E+02  0.17393637321E+03  0.12500321877E+03 0.  0.
          4    1    3    3  501    0  0.11199485445E+02 -0.91871888740E+02 -0.45042142436E+02  0.10293823347E+03  0.12700000000E+01 0.  1.
         -4    1    3    3    0  501  0.67151087697E+02  0.24376164110E+01  0.22889132653E+02  0.70998139739E+02  0.12700000000E+01 0.  1.
          2    1    1    2  502    0 -0.46337008617E+02  0.13058483037E+03 -0.67068038907E+03  0.68484428929E+03  0.00000000000E+00 0.  1.
          1    1    1    2  503    0 -0.32013564525E+02 -0.41150558039E+02  0.97061268389E+02  0.11017770447E+03  0.00000000000E+00 0. -1.
<mgrwt>
<rscale>  0 0.84273005E+02</rscale>
<asrwt>0</asrwt>
<pdfrwt beam="2">  1        2 0.12036389E+00 0.13621763E+03</pdfrwt>
<pdfrwt beam="1">  1        1 0.28706633E-01 0.52136712E+02</pdfrwt>
<totfact> 0.79037796E+02</totfact>
</mgrwt>
</event>
<event>
 7    1  0.3113530E-004  0.8542805E+02  0.7546771E-02  0.1317333E+00
         -1   -1    0    0    0  501 -0.00000000000E+00  0.00000000000E+00  0.10576028984E+03  0.10576028984E+03  0.00000000000E+00 0.  1.
          1   -1    0    0  503    0  0.00000000000E+00 -0.00000000000E+00 -0.20763222503E+04  0.20763222503E+04  0.00000000000E+00 0. -1.
         25    2    1    2    0    0  0.11202105331E+02  0.14709874812E+03 -0.89733773836E+03  0.91793447364E+03  0.12500060935E+03 0.  0.
          4    1    3    3  502    0  0.36098442779E+02 -0.66112029464E+01 -0.20916214002E+03  0.21236105880E+03  0.12700000000E+01 0.  1.
         -4    1    3    3    0  502 -0.24896337448E+02  0.15370995106E+03 -0.68817559834E+03  0.70557341483E+03  0.12700000000E+01 0.  1.
          1    1    1    2  503    0  0.34133069264E+02 -0.75812797203E+02 -0.11481933810E+04  0.11511996728E+04  0.00000000000E+00 0. -1.
         -1    1    1    2    0  501 -0.45335174595E+02 -0.71285950914E+02  0.74969158867E+02  0.11294839368E+03  0.00000000000E+00 0.  1.
<mgrwt>
<rscale>  0 0.84277440E+02</rscale>
<asrwt>0</asrwt>
<pdfrwt beam="2">  1        1 0.31943418E+00 0.83142328E+02</pdfrwt>
<pdfrwt beam="1">  1       -1 0.16270815E-01 0.85428049E+02</pdfrwt>
<totfact> 0.94160457E+01</totfact>
</mgrwt>
</event>
<event>
 7    1  0.3113530E-004  0.5052036E+02  0.7546771E-02  0.1546201E+00
          2   -1    0    0  503    0  0.00000000000E+00  0.00000000000E+00  0.33329796975E+04  0.33329796975E+04  0.00000000000E+00 0. -1.
         -1   -1    0    0    0  501 -0.00000000000E+00 -0.00000000000E+00 -0.48321643660E+01  0.48321643660E+01  0.00000000000E+00 0.  1.
         25    2    1    2    0    0  0.54989302360E+01  0.46858900301E+02  0.26441680744E+04  0.26475414852E+04  0.12500046069E+03 0.  0.
          4    1    3    3  502    0 -0.34070621203E+02 -0.74170680690E+01  0.24914231745E+03  0.25157370167E+03  0.12700000000E+01 0. -1.
         -4    1    3    3    0  502  0.39569551439E+02  0.54275968370E+02  0.23950257570E+04  0.23959677835E+04  0.12700000000E+01 0. -1.
          2    1    1    2  503    0 -0.30119082628E+02 -0.46344395807E+02  0.60551498463E+03  0.60803236655E+03  0.00000000000E+00 0. -1.
         -1    1    1    2    0  501  0.24620152392E+02 -0.51450449433E+00  0.78464474095E+02  0.82238010152E+02  0.00000000000E+00 0.  1.
<mgrwt>
<rscale>  0 0.35271668E+02</rscale>
<asrwt>0</asrwt>
<pdfrwt beam="1">  1        2 0.51276427E+00 0.50520362E+02</pdfrwt>
<pdfrwt beam="2">  1       -1 0.74341257E-03 0.24625528E+02</pdfrwt>
<totfact> 0.37260517E+03</totfact>
</mgrwt>
</event>
<event>
 7    1  0.3113530E-004  0.3951847E+02  0.7546771E-02  0.1521516E+00
          2   -1    0    0  503    0  0.00000000000E+00  0.00000000000E+00  0.34626778008E+03  0.34626778008E+03  0.00000000000E+00 0. -1.
         -1   -1    0    0    0  501 -0.00000000000E+00 -0.00000000000E+00 -0.84578219604E+02  0.84578219604E+02  0.00000000000E+00 0.  1.
         25    2    1    2    0    0 -0.10922916701E+02 -0.74536607202E+02  0.17225458604E+03  0.22577232268E+03  0.12500593327E+03 0.  0.
          4    1    3    3  502    0  0.30632971543E+02 -0.15057766201E+02  0.14383806616E+03  0.14783814611E+03  0.12700000000E+01 0.  1.
         -4    1    3    3    0  502 -0.41555888245E+02 -0.59478841000E+02  0.28416519876E+02  0.77934176562E+02  0.12700000000E+01 0.  1.
          2    1    1    2  503    0  0.47269785204E+01  0.36715155376E+02  0.13818772626E+03  0.14306010852E+03  0.00000000000E+00 0. -1.
         -1    1    1    2    0  501  0.61959381810E+01  0.37821451826E+02 -0.48752751816E+02  0.62013568498E+02  0.00000000000E+00 0.  1.
<mgrwt>
<rscale>  0 0.38247908E+02</rscale>
<asrwt>0</asrwt>
<pdfrwt beam="1">  1        2 0.53271966E-01 0.37018198E+02</pdfrwt>
<pdfrwt beam="2">  1       -1 0.13012034E-01 0.39518469E+02</pdfrwt>
<totfact> 0.38295130E+03</totfact>
</mgrwt>
</event>
<event>
 7    1  0.3113530E-004  0.1241067E+03  0.7546771E-02  0.1395641E+00
          1   -1    0    0  503    0 -0.00000000000E+00  0.00000000000E+00  0.37325502005E+03  0.37325502005E+03  0.00000000000E+00 0. -1.
          2   -1    0    0  502    0  0.00000000000E+00 -0.00000000000E+00 -0.10829734936E+04  0.10829734936E+04  0.00000000000E+00 0. -1.
         25    2    1    2    0    0 -0.47337321541E+02  0.14198068472E+03 -0.95888284193E+02  0.21729780846E+03  0.12499775067E+03 0.  0.
          4    1    3    3  501    0 -0.29433567152E+02  0.15743472877E+03 -0.10544101305E+03  0.19175882987E+03  0.12700000000E+01 0.  1.
         -4    1    3    3    0  501 -0.17903754390E+02 -0.15454044052E+02  0.95527288608E+01  0.25538978592E+02  0.12700000000E+01 0.  1.
          2    1    1    2  502    0 -0.42796489563E+00 -0.29514155539E+02 -0.91419086517E+03  0.91466726545E+03  0.00000000000E+00 0. -1.
          1    1    1    2  503    0  0.47765286437E+02 -0.11246652918E+03  0.30036067581E+03  0.32426343974E+03  0.00000000000E+00 0. -1.
<mgrwt>
<rscale>  0 0.60525113E+02</rscale>
<asrwt>0</asrwt>
<pdfrwt beam="2">  1        2 0.16661130E+00 0.29517258E+02</pdfrwt>
<pdfrwt beam="1">  1        1 0.57423850E-01 0.12410669E+03</pdfrwt>
<totfact> 0.24259881E+02</totfact>
</mgrwt>
</event>
<event>
 7    1  0.3113530E-004  0.6605136E+02  0.7546771E-02  0.1493058E+00
          2   -1    0    0  502    0  0.00000000000E+00  0.00000000000E+00  0.11047875122E+04  0.11047875122E+04  0.00000000000E+00 0. -1.
          3   -1    0    0  503    0 -0.00000000000E+00 -0.00000000000E+00 -0.58220732138E+03  0.58220732138E+03  0.00000000000E+00 0. -1.
         25    2    1    2    0    0  0.59083509654E+02  0.25882043053E+01  0.32862323253E+03  0.35652925154E+03  0.12498927286E+03 0.  0.
          4    1    3    3  501    0  0.69050085986E+01 -0.39728895773E+02  0.24942724189E+03  0.25266900522E+03  0.12700000000E+01 0. -1.
         -4    1    3    3    0  501  0.52178501055E+02  0.42317100078E+02  0.79195990633E+02  0.10386024631E+03  0.12700000000E+01 0. -1.
          2    1    1    2  502    0  0.24556258823E+01 -0.26766944119E+02  0.76004959894E+03  0.76052474795E+03  0.00000000000E+00 0. -1.
          3    1    1    2  503    0 -0.61539135536E+02  0.24178739814E+02 -0.56609264061E+03  0.56994083413E+03  0.00000000000E+00 0. -1.
<mgrwt>
<rscale>  0 0.42135703E+02</rscale>
<asrwt>0</asrwt>
<pdfrwt beam="1">  1        2 0.16996731E+00 0.26879349E+02</pdfrwt>
<pdfrwt beam="2">  1        3 0.89570357E-01 0.66051357E+02</pdfrwt>
<totfact> 0.18283925E+01</totfact>
</mgrwt>
</event>
<event>
 7    1  0.3113530E-004  0.4818596E+02  0.7546771E-02  0.1469507E+00
          2   -1    0    0  503    0  0.00000000000E+00  0.00000000000E+00  0.38844971626E+02  0.38844971626E+02  0.00000000000E+00 0. -1.
         -1   -1    0    0    0  501 -0.00000000000E+00 -0.00000000000E+00 -0.37551266840E+03  0.37551266840E+03  0.00000000000E+00 0.  1.
         25    2    1    2    0    0 -0.62904649747E+02  0.27140126652E+01 -0.23204596462E+03  0.27098799972E+03  0.12499922189E+03 0.  0.
          4    1    3    3  502    0 -0.69910141546E+02  0.46971924524E+02 -0.95843803697E+02  0.12759873507E+03  0.12700000000E+01 0.  1.
         -4    1    3    3    0  502  0.70054917996E+01 -0.44257911858E+02 -0.13620216092E+03  0.14338926465E+03  0.12700000000E+01 0.  1.
          2    1    1    2  503    0  0.30032036185E+02  0.31471499511E+02 -0.23607460842E+02  0.49494350043E+02  0.00000000000E+00 0. -1.
         -1    1    1    2    0  501  0.32872613562E+02 -0.34185512176E+02 -0.81014271317E+02  0.93875290264E+02  0.00000000000E+00 0.  1.
<mgrwt>
<rscale>  0 0.45783842E+02</rscale>
<asrwt>0</asrwt>
<pdfrwt beam="1">  1        2 0.59761498E-02 0.43501477E+02</pdfrwt>
<pdfrwt beam="2">  1       -1 0.57771177E-01 0.48185956E+02</pdfrwt>
<totfact> 0.38836105E+03</totfact>
</mgrwt>
</event>
<event>
 7    1  0.3113530E-004  0.9671006E+02  0.7546771E-02  0.1341941E+00
          2   -1    0    0  502    0  0.00000000000E+00  0.00000000000E+00  0.30790266561E+04  0.30790266561E+04  0.00000000000E+00 0. -1.
          2   -1    0    0  503    0 -0.00000000000E+00 -0.00000000000E+00 -0.18471791019E+02  0.18471791019E+02  0.00000000000E+00 0.  1.
         25    2    1    2    0    0 -0.83100154037E+01  0.63487189853E+02  0.14788225667E+04  0.14854771361E+04  0.12500583340E+03 0.  0.
          4    1    3    3  501    0  0.28939381376E+02  0.29343372065E+02  0.14638677715E+03  0.15208294678E+03  0.12700000000E+01 0. -1.
         -4    1    3    3    0  501 -0.37249396780E+02  0.34143817788E+02  0.13324357895E+04  0.13333941893E+04  0.12700000000E+01 0. -1.
          2    1    1    2  502    0 -0.57398019974E+02  0.14247517910E+02  0.14179817077E+04  0.14192144475E+04  0.00000000000E+00 0. -1.
          2    1    1    2  503    0  0.65708035377E+02 -0.77734707763E+02  0.16375059069E+03  0.19280686361E+03  0.00000000000E+00 0.  1.
<mgrwt>
<rscale>  0 0.75626849E+02</rscale>
<asrwt>0</asrwt>
<pdfrwt beam="1">  1        2 0.47369600E+00 0.59139872E+02</pdfrwt>
<pdfrwt beam="2">  1        2 0.28418164E-02 0.96710055E+02</pdfrwt>
<totfact> 0.11207122E+03</totfact>
</mgrwt>
</event>
<event>
 7    1  0.3113530E-004  0.5993822E+02  0.7546771E-02  0.1470919E+00
         -1   -1    0    0    0  502 -0.00000000000E+00  0.00000000000E+00  0.67185912804E+03  0.67185912804E+03  0.00000000000E+00 0.  1.
         -2   -1    0    0    0  501  0.00000000000E+00 -0.00000000000E+00 -0.21542405505E+03  0.21542405505E+03  0.00000000000E+00 0.  1.
         25    2    1    2    0    0  0.40206139067E+02  0.57137162146E+02 -0.86074079749E+02  0.16707557966E+03  0.12499725276E+03 0.  0.
          4    1    3    3  503    0  0.82998415693E+02  0.28503987674E+02 -0.72434487325E+02  0.11379623093E+03  0.12700000000E+01 0. -1.
         -4    1    3    3    0  503 -0.42792276627E+02  0.28633174471E+02 -0.13639592424E+02  0.53279348726E+02  0.12700000000E+01 0. -1.
         -2    1    1    2    0  501 -0.34528171840E+02  0.25217269202E+01 -0.83991763258E+02  0.90846959511E+02  0.00000000000E+00 0.  1.
         -1    1    1    2    0  502 -0.56779672263E+01 -0.59658889066E+02  0.62650091600E+03  0.62936064391E+03  0.00000000000E+00 0.  1.
<mgrwt>
<rscale>  0 0.45552930E+02</rscale>
<asrwt>0</asrwt>
<pdfrwt beam="2">  1       -2 0.33142163E-01 0.34620135E+02</pdfrwt>
<pdfrwt beam="1">  1       -1 0.10336294E+00 0.59938225E+02</pdfrwt>
<totfact> 0.61060940E+01</totfact>
</mgrwt>
</event>
<event>
 7    1  0.3113530E-004  0.8168722E+02  0.7546771E-02  0.1362166E+00
          2   -1    0    0  502    0  0.00000000000E+00  0.00000000000E+00  0.22666615287E+04  0.22666615287E+04  0.00000000000E+00 0. -1.
          2   -1    0    0  503    0 -0.00000000000E+00 -0.00000000000E+00 -0.36915645255E+03  0.36915645255E+03  0.00000000000E+00 0. -1.
         25    2    1    2    0    0 -0.23733898647E+02 -0.11494840917E+02  0.90400036514E+02  0.15650301030E+03  0.12500238525E+03 0.  0.
          4    1    3    3  501    0 -0.20406828213E+02 -0.49050993594E+02 -0.55233493847E+01  0.53428072198E+02  0.12700000000E+01 0. -1.
         -4    1    3    3    0  501 -0.33270704340E+01  0.37556152677E+02  0.95923385898E+02  0.10307493810E+03  0.12700000000E+01 0. -1.
          2    1    1    2  502    0 -0.40190878264E+02 -0.43126614940E+02  0.21375385817E+04  0.21383513275E+04  0.00000000000E+00 0. -1.
          2    1    1    2  503    0  0.63924776911E+02  0.54621455858E+02 -0.33043354198E+03  0.34096364353E+03  0.00000000000E+00 0. -1.
<mgrwt>
<rscale>  0 0.69394073E+02</rscale>
<asrwt>0</asrwt>
<pdfrwt beam="1">  1        2 0.34871715E+00 0.58950925E+02</pdfrwt>
<pdfrwt beam="2">  1        2 0.56793302E-01 0.81687223E+02</pdfrwt>
<totfact> 0.87838313E+01</totfact>
</mgrwt>
</event>
<event>
 7    1  0.3113530E-004  0.1641005E+03  0.7546771E-02  0.1346548E+00
          1   -1    0    0  502    0  0.00000000000E+00  0.00000000000E+00  0.80210782034E+02  0.80210782034E+02  0.00000000000E+00 0. -1.
          1   -1    0    0  503    0 -0.00000000000E+00 -0.00000000000E+00 -0.13422144278E+04  0.13422144278E+04  0.00000000000E+00 0. -1.
         25    2    1    2    0    0  0.10249163709E+02 -0.14270177630E+03 -0.90592393984E+03  0.92563133513E+03  0.12500536584E+03 0.  0.
          4    1    3    3  501    0 -0.26190795206E+02 -0.38983786194E+02 -0.57514079444E+03  0.57705653074E+03  0.12700000000E+01 0.  1.
         -4    1    3    3    0  501  0.36439958915E+02 -0.10371799010E+03 -0.33078314540E+03  0.34857480439E+03  0.12700000000E+01 0.  1.
          1    1    1    2  502    0 -0.37410518589E+02  0.16230741518E+03 -0.30300117448E+02  0.16929660671E+03  0.00000000000E+00 0. -1.
          1    1    1    2  503    0  0.27161354881E+02 -0.19605638888E+02 -0.32577958845E+03  0.32749726796E+03  0.00000000000E+00 0. -1.
<mgrwt>
<rscale>  0 0.74142086E+02</rscale>
<asrwt>0</asrwt>
<pdfrwt beam="1">  1        1 0.12340121E-01 0.16410050E+03</pdfrwt>
<pdfrwt beam="2">  1        1 0.20649452E+00 0.33498064E+02</pdfrwt>
<totfact> 0.61808069E+02</totfact>
</mgrwt>
</event>
<event>
 7    1  0.3113530E-004  0.8514109E+02  0.7546771E-02  0.1376102E+00
         -3   -1    0    0    0  501 -0.00000000000E+00  0.00000000000E+00  0.13047236026E+02  0.13047236026E+02  0.00000000000E+00 0.  1.
          2   -1    0    0  503    0  0.00000000000E+00 -0.00000000000E+00 -0.28535203958E+04  0.28535203958E+04  0.00000000000E+00 0. -1.
         25    2    1    2    0    0  0.23477096811E+02 -0.33510738631E+02 -0.60456951213E+03  0.61871100030E+03  0.12499945286E+03 0.  0.
          4    1    3    3  502    0  0.64291255992E+02 -0.45607250020E+02 -0.49348734846E+03  0.49974469766E+03  0.12700000000E+01 0. -1.
         -4    1    3    3    0  502 -0.40814159181E+02  0.12096511389E+02 -0.11108216368E+03  0.11896630264E+03  0.12700000000E+01 0. -1.
          2    1    1    2  503    0 -0.52531067041E+02  0.74680440382E+02 -0.21137099016E+04  0.21156810321E+04  0.00000000000E+00 0. -1.
         -3    1    1    2    0  501  0.29053970230E+02 -0.41169701750E+02 -0.12219374597E+03  0.13217559943E+03  0.00000000000E+00 0.  1.
<mgrwt>
<rscale>  0 0.65499591E+02</rscale>
<asrwt>0</asrwt>
<pdfrwt beam="2">  1        2 0.43900286E+00 0.85141087E+02</pdfrwt>
<pdfrwt beam="1">  1       -3 0.20072684E-02 0.50389260E+02</pdfrwt>
<totfact> 0.13814275E+03</totfact>
</mgrwt>
</event>
<event>
 7    1  0.3113530E-004  0.4474590E+02  0.7546771E-02  0.1484962E+00
          1   -1    0    0  503    0 -0.00000000000E+00  0.00000000000E+00  0.33659245242E+02  0.33659245242E+02  0.00000000000E+00 0. -1.
          2   -1    0    0  502    0  0.00000000000E+00 -0.00000000000E+00 -0.23240837585E+04  0.23240837585E+04  0.00000000000E+00 0. -1.
         25    2    1    2    0    0  0.19222916668E+02  0.14800072903E+02 -0.10259917949E+04  0.10338628855E+04  0.12499896049E+03 0.  0.
          4    1    3    3  501    0  0.33571993833E+02 -0.34771724219E+02 -0.82268648509E+03  0.82410607159E+03  0.12700000000E+01 0.  1.
         -4    1    3    3    0  501 -0.14349077165E+02  0.49571797122E+02 -0.20330530981E+03  0.20975681391E+03  0.12700000000E+01 0.  1.
          2    1    1    2  502    0  0.20515154895E+02 -0.36629576972E+02 -0.12763185492E+04  0.12770088631E+04  0.00000000000E+00 0. -1.
          1    1    1    2  503    0 -0.39738071563E+02  0.21829504069E+02  0.11885830854E+02  0.46871255099E+02  0.00000000000E+00 0. -1.
<mgrwt>
<rscale>  0 0.43342593E+02</rscale>
<asrwt>0</asrwt>
<pdfrwt beam="2">  1        2 0.35755126E+00 0.41983300E+02</pdfrwt>
<pdfrwt beam="1">  1        1 0.51783467E-02 0.44745895E+02</pdfrwt>
<totfact> 0.11568726E+03</totfact>
</mgrwt>
</event>
<event>
 7    1  0.3113530E-004  0.4969708E+02  0.7546771E-02  0.1510896E+00
          2   -1    0    0  503    0  0.00000000000E+00  0.00000000000E+00  0.23319229551E+04  0.23319229551E+04  0.00000000000E+00 0. -1.
         -1   -1    0    0    0  501 -0.00000000000E+00 -0.00000000000E+00 -0.57560438055E+01  0.57560438055E+01  0.00000000000E+00 0.  1.
         25    2    1    2    0    0 -0.29366293948E+02 -0.17183830061E+02  0.17524429802E+04  0.17572246272E+04  0.12499731345E+03 0.  0.
          4    1    3    3  502    0 -0.38649339962E+02 -0.52211589322E+02  0.15625876670E+04  0.15639378669E+04  0.12700000000E+01 0.  1.
         -4    1    3    3    0  502  0.92830460143E+01  0.35027759261E+02  0.18985531320E+03  0.19328676032E+03  0.12700000000E+01 0.  1.
          2    1    1    2  503    0  0.43576274135E+01 -0.31312369419E+02  0.15508574232E+03  0.15827520610E+03  0.00000000000E+00 0. -1.
         -1    1    1    2    0  501  0.25008666535E+02  0.48496199480E+02  0.41863818881E+03  0.42217916564E+03  0.00000000000E+00 0.  1.
<mgrwt>
<rscale>  0 0.39637483E+02</rscale>
<asrwt>0</asrwt>
<pdfrwt beam="1">  1        2 0.35875662E+00 0.31614133E+02</pdfrwt>
<pdfrwt beam="2">  1       -1 0.88554706E-03 0.49697080E+02</pdfrwt>
<totfact> 0.12724150E+04</totfact>
</mgrwt>
</event>
<event>
 7    1  0.3113530E-004  0.1244494E+03  0.7546771E-02  0.1301163E+00
          1   -1    0    0  503    0 -0.00000000000E+00  0.00000000000E+00  0.11856503183E+04  0.11856503183E+04  0.00000000000E+00 0. -1.
          2   -1    0    0  502    0  0.00000000000E+00 -0.00000000000E+00 -0.19944578867E+04  0.19944578867E+04  0.00000000000E+00 0. -1.
         25    2    1    2    0    0  0.50424265433E+02 -0.33891883348E+02 -0.88093031673E+03  0.89182685051E+03  0.12500256820E+03 0.  0.
          4    1    3    3  501    0  0.26748295357E+01 -0.52983703685E+02 -0.73828627917E+03  0.74019096893E+03  0.12700000000E+01 0.  1.
         -4    1    3    3    0  501  0.47749435897E+02  0.19091820337E+02 -0.14264403755E+03  0.15163588158E+03  0.12700000000E+01 0.  1.
          2    1    1    2  502    0  0.64496744635E+02 -0.14490701285E+02 -0.11037942593E+04  0.11057719373E+04  0.00000000000E+00 0. -1.
          1    1    1    2  503    0 -0.11492101007E+03  0.48382584633E+02  0.11759170075E+04  0.11825094172E+04  0.00000000000E+00 0. -1.
<mgrwt>
<rscale>  0 0.90700999E+02</rscale>
<asrwt>0</asrwt>
<pdfrwt beam="2">  1        2 0.30683967E+00 0.66104542E+02</pdfrwt>
<pdfrwt beam="1">  1        1 0.18240774E+00 0.12444941E+03</pdfrwt>
<totfact> 0.14857449E+01</totfact>
</mgrwt>
</event>
<event>
 7    1  0.3113530E-004  0.3218787E+02  0.7546771E-02  0.1602469E+00
          1   -1    0    0  503    0  0.00000000000E+00  0.00000000000E+00  0.20536257924E+04  0.20536257924E+04  0.00000000000E+00 0. -1.
          1   -1    0    0  502    0 -0.00000000000E+00 -0.00000000000E+00 -0.20424589029E+03  0.20424589029E+03  0.00000000000E+00 0. -1.
         25    2    1    2    0    0  0.20519797664E+02  0.46422639763E+02 -0.63095280448E+02  0.14893298744E+03  0.12499558693E+03 0.  0.
          4    1    3    3  501    0 -0.58424549333E+01  0.79544478059E+02 -0.69871565554E+02  0.10604294810E+03  0.12700000000E+01 0. -1.
         -4    1    3    3    0  501  0.26362252597E+02 -0.33121838296E+02  0.67762851060E+01  0.42890039333E+02  0.12700000000E+01 0. -1.
          1    1    1    2  502    0 -0.23142215196E+02 -0.14356914996E+02 -0.96212874764E+02  0.99993001769E+02  0.00000000000E+00 0. -1.
          1    1    1    2  503    0  0.26224175325E+01 -0.32065724767E+02  0.20086880574E+04  0.20089456935E+04  0.00000000000E+00 0. -1.
<mgrwt>
<rscale>  0 0.29607431E+02</rscale>
<asrwt>0</asrwt>
<pdfrwt beam="1">  1        1 0.31594242E+00 0.32187870E+02</pdfrwt>
<pdfrwt beam="2">  1        1 0.31422446E-01 0.27233860E+02</pdfrwt>
<totfact> 0.67189031E+01</totfact>
</mgrwt>
</event>
<event>
 7    1  0.3113530E-004  0.9576704E+02  0.7546771E-02  0.1429711E+00
          1   -1    0    0  503    0  0.00000000000E+00  0.00000000000E+00  0.18372314226E+03  0.18372314226E+03  0.00000000000E+00 0. -1.
          1   -1    0    0  502    0 -0.00000000000E+00 -0.00000000000E+00 -0.14491054984E+04  0.14491054984E+04  0.00000000000E+00 0. -1.
         25    2    1    2    0    0  0.67054285219E+02  0.56755220625E+02 -0.92295505617E+02  0.17850340088E+03  0.12501028571E+03 0.  0.
          4    1    3    3  501    0  0.38009640752E+02  0.66208963754E+02 -0.11665000982E+03  0.13941734958E+03  0.12700000000E+01 0.  1.
         -4    1    3    3    0  501  0.29044644467E+02 -0.94537431290E+01  0.24354504203E+02  0.39086051301E+02  0.12700000000E+01 0.  1.
          1    1    1    2  502    0 -0.88828000917E+02 -0.37072154338E+02 -0.13103897437E+04  0.13139201036E+04  0.00000000000E+00 0. -1.
          1    1    1    2  503    0  0.21773715698E+02 -0.19683066287E+02  0.13730289315E+03  0.14040513616E+03  0.00000000000E+00 0. -1.
<mgrwt>
<rscale>  0 0.53018093E+02</rscale>
<asrwt>0</asrwt>
<pdfrwt beam="1">  1        1 0.28265099E-01 0.29351623E+02</pdfrwt>
<pdfrwt beam="2">  1        1 0.22293931E+00 0.95767042E+02</pdfrwt>
<totfact> 0.15827228E+02</totfact>
</mgrwt>
</event>
<event>
 7    1  0.3113530E-004  0.4910898E+02  0.7546771E-02  0.1469045E+00
         -3   -1    0    0    0  501 -0.00000000000E+00  0.00000000000E+00  0.55086925421E+03  0.55086925421E+03  0.00000000000E+00 0.  1.
          3   -1    0    0  503    0  0.00000000000E+00 -0.00000000000E+00 -0.18558510355E+03  0.18558510355E+03  0.00000000000E+00 0. -1.
         25    2    1    2    0    0 -0.84353331395E+00 -0.60964527314E+02  0.81637679630E+02  0.16124777868E+03  0.12497499852E+03 0.  0.
          4    1    3    3  502    0 -0.43542651541E+02 -0.56179314836E+02  0.24334079958E+01  0.71130951724E+02  0.12700000000E+01 0.  1.
         -4    1    3    3    0  502  0.42699118227E+02 -0.47852124773E+01  0.79204271634E+02  0.90116826957E+02  0.12700000000E+01 0.  1.
          3    1    1    2  503    0 -0.33827519332E+02  0.35826296485E+02 -0.14050728131E+03  0.14889634208E+03  0.00000000000E+00 0. -1.
         -3    1    1    2    0  501  0.34671052646E+02  0.25138230829E+02  0.42415375234E+03  0.42631023700E+03  0.00000000000E+00 0.  1.
<mgrwt>
<rscale>  0 0.45859680E+02</rscale>
<asrwt>0</asrwt>
<pdfrwt beam="2">  1        3 0.28551555E-01 0.49108978E+02</pdfrwt>
<pdfrwt beam="1">  1       -3 0.84749115E-01 0.42825373E+02</pdfrwt>
<totfact> 0.32478582E+01</totfact>
</mgrwt>
</event>
<event>
 7    1  0.3113530E-004  0.9502196E+02  0.7546771E-02  0.1396812E+00
          2   -1    0    0  503    0  0.00000000000E+00  0.00000000000E+00  0.59834371294E+03  0.59834371294E+03  0.00000000000E+00 0. -1.
         -1   -1    0    0    0  501 -0.00000000000E+00 -0.00000000000E+00 -0.15770934045E+03  0.15770934045E+03  0.00000000000E+00 0.  1.
         25    2    1    2    0    0 -0.70410025358E+02 -0.40133761600E+02  0.13742308745E+03  0.20267910044E+03  0.12500168919E+03 0.  0.
          4    1    3    3  502    0  0.27221889992E+02 -0.43088224106E+02  0.41031552610E+02  0.65443315632E+02  0.12700000000E+01 0.  1.
         -4    1    3    3    0  502 -0.97631915350E+02  0.29544625060E+01  0.96391534843E+02  0.13723578481E+03  0.12700000000E+01 0.  1.
          2    1    1    2  503    0  0.61009112688E+02  0.77153120258E+02  0.41955016880E+03  0.43092581720E+03  0.00000000000E+00 0. -1.
         -1    1    1    2    0  501  0.94009126693E+01 -0.37019358659E+02 -0.11633888375E+03  0.12244813574E+03  0.00000000000E+00 0.  1.
<mgrwt>
<rscale>  0 0.60243705E+02</rscale>
<asrwt>0</asrwt>
<pdfrwt beam="1">  1        2 0.92052877E-01 0.95021957E+02</pdfrwt>
<pdfrwt beam="2">  1       -1 0.24262976E-01 0.38194372E+02</pdfrwt>
<totfact> 0.82076195E+02</totfact>
</mgrwt>
</event>
<event>
 7    1  0.3113530E-004  0.7307786E+02  0.7546771E-02  0.1444440E+00
         -2   -1    0    0    0  501  0.00000000000E+00  0.00000000000E+00  0.39519539474E+02  0.39519539474E+02  0.00000000000E+00 0.  1.
         -1   -1    0    0    0  502 -0.00000000000E+00 -0.00000000000E+00 -0.18698008144E+04  0.18698008144E+04  0.00000000000E+00 0.  1.
         25    2    1    2    0    0 -0.43251019042E+02  0.13069045069E+02 -0.72932704924E+03  0.74133967651E+03  0.12500048247E+03 0.  0.
          4    1    3    3  503    0 -0.45943588770E+02  0.69905183872E+01 -0.84237366379E+02  0.96214486908E+02  0.12700000000E+01 0.  1.
         -4    1    3    3    0  503  0.26925697279E+01  0.60785266821E+01 -0.64508968286E+03  0.64512518960E+03  0.12700000000E+01 0.  1.
         -2    1    1    2    0  501 -0.32794136112E+02  0.10518584138E+02  0.22868667103E+02  0.41340922954E+02  0.00000000000E+00 0.  1.
         -1    1    1    2    0  502  0.76045155154E+02 -0.23587629208E+02 -0.11238228928E+04  0.11266397545E+04  0.00000000000E+00 0.  1.
<mgrwt>
<rscale>  0 0.50167546E+02</rscale>
<asrwt>0</asrwt>
<pdfrwt beam="1">  1       -2 0.60799274E-02 0.34439744E+02</pdfrwt>
<pdfrwt beam="2">  1       -1 0.28766175E+00 0.73077855E+02</pdfrwt>
<totfact> 0.48029252E+01</totfact>
</mgrwt>
</event>
<event>
 7    1  0.3113530E-004  0.1082586E+03  0.7546771E-02  0.1321569E+00
         -3   -1    0    0    0  501 -0.00000000000E+00  0.00000000000E+00  0.10751755701E+03  0.10751755701E+03  0.00000000000E+00 0.  1.
          2   -1    0    0  503    0  0.00000000000E+00 -0.00000000000E+00 -0.12039519037E+04  0.12039519037E+04  0.00000000000E+00 0. -1.
         25    2    1    2    0    0  0.48810205847E+02 -0.11426912805E+03 -0.26265771365E+03  0.31632128649E+03  0.12502084597E+03 0.  0.
          4    1    3    3  502    0  0.15089109800E+02 -0.13461628379E+03 -0.21899524008E+03  0.25750680219E+03  0.12700000000E+01 0. -1.
         -4    1    3    3    0  502  0.33721096047E+02  0.20347155741E+02 -0.43662473571E+02  0.58814484302E+02  0.12700000000E+01 0. -1.
          2    1    1    2  503    0 -0.62778787993E+02  0.70215167405E+01 -0.87656494242E+03  0.87883819683E+03  0.00000000000E+00 0. -1.
         -3    1    1    2    0  501  0.13968582146E+02  0.10724761131E+03  0.42788309380E+02  0.11630997738E+03  0.00000000000E+00 0.  1.
<mgrwt>
<rscale>  0 0.82696542E+02</rscale>
<asrwt>0</asrwt>
<pdfrwt beam="2">  1        2 0.18522336E+00 0.63170230E+02</pdfrwt>
<pdfrwt beam="1">  1       -3 0.16541163E-01 0.10825856E+03</pdfrwt>
<totfact> 0.40037716E+02</totfact>
</mgrwt>
</event>
<event>
 7    1  0.3113530E-004  0.6485715E+02  0.7546771E-02  0.1508610E+00
          1   -1    0    0  503    0  0.00000000000E+00  0.00000000000E+00  0.15293765798E+04  0.15293765798E+04  0.00000000000E+00 0. -1.
          1   -1    0    0  502    0 -0.00000000000E+00 -0.00000000000E+00 -0.50106510004E+02  0.50106510004E+02  0.00000000000E+00 0. -1.
         25    2    1    2    0    0 -0.65405492259E+02 -0.56669247850E+02  0.53963269371E+03  0.56064018690E+03  0.12499877188E+03 0.  0.
          4    1    3    3  501    0  0.30347617255E+02 -0.10446901575E+02  0.25094014649E+03  0.25298752073E+03  0.12700000000E+01 0.  1.
         -4    1    3    3    0  501 -0.95753109514E+02 -0.46222346275E+02  0.28869254722E+03  0.30765266617E+03  0.12700000000E+01 0.  1.
          1    1    1    2  502    0  0.21720637345E+02  0.11555068012E+02 -0.34670703890E+02  0.42513096708E+02  0.00000000000E+00 0. -1.
          1    1    1    2  503    0  0.43684854914E+02  0.45114179839E+02  0.97430807993E+03  0.97632980616E+03  0.00000000000E+00 0. -1.
<mgrwt>
<rscale>  0 0.39945939E+02</rscale>
<asrwt>0</asrwt>
<pdfrwt beam="1">  1        1 0.23528867E+00 0.64857154E+02</pdfrwt>
<pdfrwt beam="2">  1        1 0.77086950E-02 0.24602961E+02</pdfrwt>
<totfact> 0.70680543E+02</totfact>
</mgrwt>
</event>
<event>
 7    1  0.3113530E-004  0.8256784E+02  0.7546771E-02  0.1331133E+00
         -1   -1    0    0    0  501 -0.00000000000E+00  0.00000000000E+00  0.48016220473E+03  0.48016220473E+03  0.00000000000E+00 0.  1.
          1   -1    0    0  503    0  0.00000000000E+00 -0.00000000000E+00 -0.45170318463E+03  0.45170318463E+03  0.00000000000E+00 0. -1.
         25    2    1    2    0    0 -0.14269869932E+02  0.73364150450E+02 -0.78428782675E+02  0.16541027363E+03  0.12499422751E+03 0.  0.
          4    1    3    3  502    0  0.55623580547E+02  0.28015848630E+02 -0.32357113679E+02  0.70195912937E+02  0.12700000000E+01 0. -1.
         -4    1    3    3    0  502 -0.69893450479E+02  0.45348301820E+02 -0.46071668996E+02  0.95214360692E+02  0.12700000000E+01 0. -1.
          1    1    1    2  503    0 -0.63543913840E+02 -0.41884328824E+02 -0.32126246685E+03  0.33015405282E+03  0.00000000000E+00 0. -1.
         -1    1    1    2    0  501  0.77813783773E+02 -0.31479821626E+02  0.42815026962E+03  0.43630106291E+03  0.00000000000E+00 0.  1.
<mgrwt>
<rscale>  0 0.79271113E+02</rscale>
<asrwt>0</asrwt>
<pdfrwt beam="2">  1        1 0.69492797E-01 0.76106018E+02</pdfrwt>
<pdfrwt beam="1">  1       -1 0.73871109E-01 0.82567837E+02</pdfrwt>
<totfact> 0.10630777E+02</totfact>
</mgrwt>
</event>
<event>
 7    1  0.3113530E-004  0.2515777E+02  0.7546771E-02  0.1680751E+00
          2   -1    0    0  503    0  0.00000000000E+00  0.00000000000E+00  0.93728446898E+03  0.93728446898E+03  0.00000000000E+00 0. -1.
         -2   -1    0    0    0  501 -0.00000000000E+00 -0.00000000000E+00 -0.14436908991E+02  0.14436908991E+02  0.00000000000E+00 0.  1.
         25    2    1    2    0    0  0.85614139402E+01  0.42312072304E+01  0.34245509135E+03  0.36468119941E+03  0.12500274673E+03 0.  0.
          4    1    3    3  502    0  0.24539299560E+02  0.60720752004E+02  0.20494372440E+03  0.21515745402E+03  0.12700000000E+01 0.  1.
         -4    1    3    3    0  502 -0.15977885620E+02 -0.56489544774E+02  0.13751136695E+03  0.14952374539E+03  0.12700000000E+01 0.  1.
          2    1    1    2  503    0  0.21055795367E+01  0.22185473008E+02  0.51768621700E+03  0.51816565686E+03  0.00000000000E+00 0. -1.
         -2    1    1    2    0  501 -0.10666993477E+02 -0.26416680238E+02  0.62706251644E+02  0.68874521704E+02  0.00000000000E+00 0.  1.
<mgrwt>
<rscale>  0 0.23677947E+02</rscale>
<asrwt>0</asrwt>
<pdfrwt beam="1">  1        2 0.14419756E+00 0.22285167E+02</pdfrwt>
<pdfrwt beam="2">  1       -2 0.22210637E-02 0.25157772E+02</pdfrwt>
<totfact> 0.15452509E+04</totfact>
</mgrwt>
</event>
<event>
 7    1  0.3113530E-004  0.1302207E+03  0.7546771E-02  0.1439382E+00
         -1   -1    0    0    0  501 -0.00000000000E+00  0.00000000000E+00  0.11360674560E+03  0.11360674560E+03  0.00000000000E+00 0.  1.
          2   -1    0    0  503    0  0.00000000000E+00 -0.00000000000E+00 -0.26546932145E+03  0.26546932145E+03  0.00000000000E+00 0. -1.
         25    2    1    2    0    0 -0.13649456589E+03 -0.34729037289E+01 -0.54396274946E+02  0.19294455648E+03  0.12500327823E+03 0.  0.
          4    1    3    3  502    0 -0.60736469351E+01 -0.39898406392E+02 -0.39877662128E+02  0.56750443668E+02  0.12700000000E+01 0.  1.
         -4    1    3    3    0  502 -0.13042091896E+03  0.36425502663E+02 -0.14518612818E+02  0.13619411281E+03  0.12700000000E+01 0.  1.
          2    1    1    2  503    0  0.12704003551E+03 -0.14230085095E+02 -0.10424247347E+03  0.16494895944E+03  0.00000000000E+00 0. -1.
         -1    1    1    2    0  501  0.94545303863E+01  0.17702988824E+02  0.67761725703E+01  0.21182551140E+02  0.00000000000E+00 0.  1.
<mgrwt>
<rscale>  0 0.51122023E+02</rscale>
<asrwt>0</asrwt>
<pdfrwt beam="2">  1        2 0.40841434E-01 0.13022069E+03</pdfrwt>
<pdfrwt beam="1">  1       -1 0.17477961E-01 0.20069478E+02</pdfrwt>
<totfact> 0.31175672E+03</totfact>
</mgrwt>
</event>
<event>
 7    1  0.3113530E-004  0.6016431E+02  0.7546771E-02  0.1483617E+00
         -2   -1    0    0    0  501 -0.00000000000E+00  0.00000000000E+00  0.35814198143E+02  0.35814198143E+02  0.00000000000E+00 0.  1.
          1   -1    0    0  503    0  0.00000000000E+00 -0.00000000000E+00 -0.15049229474E+04  0.15049229474E+04  0.00000000000E+00 0. -1.
         25    2    1    2    0    0  0.10330335338E+02  0.65035046445E+02 -0.32669548183E+03  0.35593702474E+03  0.12499981856E+03 0.  0.
          4    1    3    3  502    0 -0.43402313891E+02  0.45166680431E+02 -0.26255955570E+03  0.26993133027E+03  0.12700000000E+01 0. -1.
         -4    1    3    3    0  502  0.53732649229E+02  0.19868366014E+02 -0.64135926135E+02  0.86005694477E+02  0.12700000000E+01 0. -1.
          1    1    1    2  503    0 -0.36715315851E+02 -0.47790461017E+02 -0.11506452518E+04  0.11522223909E+04  0.00000000000E+00 0. -1.
         -2    1    1    2    0  501  0.26384980513E+02 -0.17244585428E+02  0.82319843243E+01  0.32577729957E+02  0.00000000000E+00 0.  1.
<mgrwt>
<rscale>  0 0.43547791E+02</rscale>
<asrwt>0</asrwt>
<pdfrwt beam="2">  1        1 0.23152659E+00 0.60164310E+02</pdfrwt>
<pdfrwt beam="1">  1       -2 0.55098771E-02 0.31520516E+02</pdfrwt>
<totfact> 0.99019882E+02</totfact>
</mgrwt>
</event>
<event>
 7    1  0.3113530E-004  0.8193547E+02  0.7546771E-02  0.1361934E+00
         -2   -1    0    0    0  501 -0.00000000000E+00  0.00000000000E+00  0.37284906430E+03  0.37284906430E+03  0.00000000000E+00 0.  1.
          3   -1    0    0  503    0  0.00000000000E+00 -0.00000000000E+00 -0.83788289319E+02  0.83788289319E+02  0.00000000000E+00 0. -1.
         25    2    1    2    0    0 -0.12108383442E+02  0.12643551904E+03  0.17865236685E+03  0.25233946856E+03  0.12500394308E+03 0.  0.
          4    1    3    3  502    0  0.11078659591E+02  0.12629561760E+03  0.18845356764E+03  0.22713361658E+03  0.12700000000E+01 0.  1.
         -4    1    3    3    0  502 -0.23187043033E+02  0.13990144611E+00 -0.98012007931E+01  0.25205851980E+02  0.12700000000E+01 0.  1.
          3    1    1    2  503    0  0.18648509032E+02 -0.55855584244E+02 -0.14530221742E+02  0.60652621742E+02  0.00000000000E+00 0. -1.
         -2    1    1    2    0  501 -0.65401255894E+01 -0.70579934801E+02  0.12493862988E+03  0.14364526332E+03  0.00000000000E+00 0.  1.
<mgrwt>
<rscale>  0 0.69461415E+02</rscale>
<asrwt>0</asrwt>
<pdfrwt beam="2">  1        3 0.12890506E-01 0.58886443E+02</pdfrwt>
<pdfrwt beam="1">  1       -2 0.57361394E-01 0.81935466E+02</pdfrwt>
<totfact> 0.49528974E+02</totfact>
</mgrwt>
</event>
<event>
 7    1  0.3113530E-004  0.7275618E+02  0.7546771E-02  0.1516302E+00
          2   -1    0    0  503    0  0.00000000000E+00  0.00000000000E+00  0.78871365225E+03  0.78871365225E+03  0.00000000000E+00 0. -1.
          2   -1    0    0  502    0 -0.00000000000E+00 -0.00000000000E+00 -0.52101911836E+03  0.52101911836E+03  0.00000000000E+00 0. -1.
         25    2    1    2    0    0 -0.48926158239E+02 -0.67494496766E+02 -0.46372665660E+02  0.15724321995E+03  0.12500292016E+03 0.  0.
          4    1    3    3  501    0 -0.88134052234E+02 -0.66511556213E+02 -0.40242745538E+02  0.11752654909E+03  0.12700000000E+01 0.  1.
         -4    1    3    3    0  501  0.39207893995E+02 -0.98294055349E+00 -0.61299201224E+01  0.39716670862E+02  0.12700000000E+01 0.  1.
          2    1    1    2  502    0  0.54524406822E+02  0.47439914715E+02 -0.41594658633E+03  0.42217889470E+03  0.00000000000E+00 0. -1.
          2    1    1    2  503    0 -0.55982485834E+01  0.20054582051E+02  0.73001378587E+03  0.73031065596E+03  0.00000000000E+00 0. -1.
<mgrwt>
<rscale>  0 0.38921439E+02</rscale>
<asrwt>0</asrwt>
<pdfrwt beam="1">  1        2 0.12134056E+00 0.20821303E+02</pdfrwt>
<pdfrwt beam="2">  1        2 0.80156788E-01 0.72756177E+02</pdfrwt>
<totfact> 0.37497123E+02</totfact>
</mgrwt>
</event>
<event>
 7    1  0.3113530E-004  0.6914693E+02  0.7546771E-02  0.1427629E+00
          2   -1    0    0  502    0  0.00000000000E+00  0.00000000000E+00  0.23775063187E+04  0.23775063187E+04  0.00000000000E+00 0. -1.
          2   -1    0    0  503    0 -0.00000000000E+00 -0.00000000000E+00 -0.35306937487E+04  0.35306937487E+04  0.00000000000E+00 0. -1.
         25    2    1    2    0    0  0.71115873940E+02  0.40306462723E+01  0.72256346545E+02  0.16099259914E+03  0.12499569483E+03 0.  0.
          4    1    3    3  501    0  0.91609225146E+02  0.41894369752E+02  0.52584796275E+02  0.11364049475E+03  0.12700000000E+01 0.  1.
         -4    1    3    3    0  501 -0.20493351206E+02 -0.37863723480E+02  0.19671550270E+02  0.47352104383E+02  0.12700000000E+01 0.  1.
          2    1    1    2  502    0 -0.16172429247E+02  0.38000996292E+02  0.22603500392E+04  0.22607272996E+04  0.00000000000E+00 0. -1.
          2    1    1    2  503    0 -0.54943444693E+02 -0.42031642564E+02 -0.34857938157E+04  0.34864801687E+04  0.00000000000E+00 0. -1.
<mgrwt>
<rscale>  0 0.53438863E+02</rscale>
<asrwt>0</asrwt>
<pdfrwt beam="1">  1        2 0.36577020E+00 0.41299191E+02</pdfrwt>
<pdfrwt beam="2">  1        2 0.54318366E+00 0.69146926E+02</pdfrwt>
<totfact> 0.11635976E+00</totfact>
</mgrwt>
</event>
<event>
 7    1  0.3113530E-004  0.6054564E+02  0.7546771E-02  0.1418963E+00
          2   -1    0    0  503    0  0.00000000000E+00  0.00000000000E+00  0.64555889644E+02  0.64555889644E+02  0.00000000000E+00 0. -1.
         -1   -1    0    0    0  501 -0.00000000000E+00 -0.00000000000E+00 -0.29326310807E+03  0.29326310807E+03  0.00000000000E+00 0.  1.
         25    2    1    2    0    0 -0.79518387034E+02 -0.20460500031E+02 -0.81054717043E+02  0.17010837523E+03  0.12500074492E+03 0.  0.
          4    1    3    3  502    0 -0.34247147020E+02 -0.36985399186E+02  0.23006002357E+02  0.55422701815E+02  0.12700000000E+01 0. -1.
         -4    1    3    3    0  502 -0.45271240013E+02  0.16524899155E+02 -0.10406071940E+03  0.11468567342E+03  0.12700000000E+01 0. -1.
          2    1    1    2  503    0  0.43025843154E+02 -0.26249784255E+02 -0.38213095479E+02  0.63249624652E+02  0.00000000000E+00 0. -1.
         -1    1    1    2    0  501  0.36492543880E+02  0.46710284286E+02 -0.10943940590E+03  0.12446099783E+03  0.00000000000E+00 0.  1.
<mgrwt>
<rscale>  0 0.55241007E+02</rscale>
<asrwt>0</asrwt>
<pdfrwt beam="1">  1        2 0.99316754E-02 0.50401134E+02</pdfrwt>
<pdfrwt beam="2">  1       -1 0.45117401E-01 0.60545638E+02</pdfrwt>
<totfact> 0.32994610E+03</totfact>
</mgrwt>
</event>
<event>
 7    1  0.3113530E-004  0.8628571E+02  0.7546771E-02  0.1445226E+00
          2   -1    0    0  503    0  0.00000000000E+00  0.00000000000E+00  0.15447126264E+04  0.15447126264E+04  0.00000000000E+00 0. -1.
         -3   -1    0    0    0  501 -0.00000000000E+00 -0.00000000000E+00 -0.21100412858E+02  0.21100412858E+02  0.00000000000E+00 0.  1.
         25    2    1    2    0    0  0.57771036468E+01 -0.75496883210E+02  0.39293486171E+03  0.41923351809E+03  0.12500313133E+03 0.  0.
          4    1    3    3  502    0 -0.31544341458E+02 -0.97706350259E+02  0.27913520378E+03  0.29742167246E+03  0.12700000000E+01 0.  1.
         -4    1    3    3    0  502  0.37321445105E+02  0.22209467049E+02  0.11379965793E+03  0.12181184563E+03  0.12700000000E+01 0.  1.
          2    1    1    2  503    0  0.25190531484E+02 -0.14364436989E+02  0.84515847655E+03  0.84565581084E+03  0.00000000000E+00 0. -1.
         -3    1    1    2    0  501 -0.30967635131E+02  0.89861320199E+02  0.28551887527E+03  0.30092371031E+03  0.00000000000E+00 0.  1.
<mgrwt>
<rscale>  0 0.50021363E+02</rscale>
<asrwt>0</asrwt>
<pdfrwt beam="1">  1        2 0.23764801E+00 0.28998275E+02</pdfrwt>
<pdfrwt beam="2">  1       -3 0.32462186E-02 0.86285713E+02</pdfrwt>
<totfact> 0.38493443E+03</totfact>
</mgrwt>
</event>
<event>
 7    1  0.3113530E-004  0.1061168E+03  0.7546771E-02  0.1271120E+00
         -1   -1    0    0    0  501 -0.00000000000E+00  0.00000000000E+00  0.30127988750E+03  0.30127988750E+03  0.00000000000E+00 0.  1.
          2   -1    0    0  503    0  0.00000000000E+00 -0.00000000000E+00 -0.22587146249E+03  0.22587146249E+03  0.00000000000E+00 0. -1.
         25    2    1    2    0    0 -0.44164901194E+02 -0.26412846452E+02  0.96268620612E+02  0.16594972062E+03  0.12499394187E+03 0.  0.
          4    1    3    3  502    0 -0.45505933179E+02 -0.69736048626E+02  0.33735893080E+02  0.89853379538E+02  0.12700000000E+01 0.  1.
         -4    1    3    3    0  502  0.13410319844E+01  0.43323202174E+02  0.62532727531E+02  0.76096341081E+02  0.12700000000E+01 0.  1.
          2    1    1    2  503    0  0.92406544079E+02 -0.68104422419E+02 -0.15328585781E+03  0.19150387972E+03  0.00000000000E+00 0. -1.
         -1    1    1    2    0  501 -0.48241642884E+02  0.94517268871E+02  0.13242566221E+03  0.16969774965E+03  0.00000000000E+00 0.  1.
<mgrwt>
<rscale>  0 0.10449392E+03</rscale>
<asrwt>0</asrwt>
<pdfrwt beam="2">  1        2 0.34749456E-01 0.10289588E+03</pdfrwt>
<pdfrwt beam="1">  1       -1 0.46350752E-01 0.10611678E+03</pdfrwt>
<totfact> 0.79800352E+02</totfact>
</mgrwt>
</event>
<event>
 7    1  0.3113530E-004  0.3514244E+03  0.7546771E-02  0.1208762E+00
          1   -1    0    0  503    0  0.00000000000E+00  0.00000000000E+00  0.55727363957E+03  0.55727363957E+03  0.00000000000E+00 0. -1.
         -2   -1    0    0    0  501 -0.00000000000E+00 -0.00000000000E+00 -0.98590521863E+03  0.98590521863E+03  0.00000000000E+00 0.  1.
         25    2    1    2    0    0  0.11315692269E+03 -0.32290360617E+03 -0.28045823185E+03  0.45973574099E+03  0.12501561384E+03 0.  0.
          4    1    3    3  502    0  0.39496470200E+02 -0.26983795270E+03 -0.22305988168E+03  0.35232061477E+03  0.12700000000E+01 0. -1.
         -4    1    3    3    0  502  0.73660452495E+02 -0.53065653472E+02 -0.57398350169E+02  0.10741512623E+03  0.12700000000E+01 0. -1.
          1    1    1    2  503    0 -0.50267938532E+02 -0.30030014723E+02  0.41322119492E+03  0.41734928221E+03  0.00000000000E+00 0. -1.
         -2    1    1    2    0  501 -0.62888984162E+02  0.35293362089E+03 -0.56139454214E+03  0.66609383500E+03  0.00000000000E+00 0.  1.
<mgrwt>
<rscale>  0 0.14344893E+03</rscale>
<asrwt>0</asrwt>
<pdfrwt beam="1">  1        1 0.85734407E-01 0.58554824E+02</pdfrwt>
<pdfrwt beam="2">  1       -2 0.15167772E+00 0.35142441E+03</pdfrwt>
<totfact> 0.11053281E+01</totfact>
</mgrwt>
</event>
<event>
 7    1  0.3113530E-004  0.1011562E+03  0.7546771E-02  0.1314648E+00
          2   -1    0    0  503    0  0.00000000000E+00  0.00000000000E+00  0.97393502230E+03  0.97393502230E+03  0.00000000000E+00 0. -1.
          2   -1    0    0  502    0 -0.00000000000E+00 -0.00000000000E+00 -0.18320575636E+04  0.18320575636E+04  0.00000000000E+00 0. -1.
         25    2    1    2    0    0 -0.64166368476E+01 -0.83945086796E+02 -0.32679663217E+03  0.35987413892E+03  0.12500162493E+03 0.  0.
          4    1    3    3  501    0 -0.76946810350E+01  0.23958993775E+02 -0.13656491041E+02  0.28659276797E+02  0.12700000000E+01 0. -1.
         -4    1    3    3    0  501  0.12780441874E+01 -0.10790408057E+03 -0.31314014113E+03  0.33121486212E+03  0.12700000000E+01 0. -1.
          2    1    1    2  502    0 -0.69882594126E+02  0.17042980626E+02 -0.14851603605E+04  0.14869012531E+04  0.00000000000E+00 0. -1.
          2    1    1    2  503    0  0.76299230974E+02  0.66902106171E+02  0.95383445135E+03  0.95921719388E+03  0.00000000000E+00 0. -1.
<mgrwt>
<rscale>  0 0.85300905E+02</rscale>
<asrwt>0</asrwt>
<pdfrwt beam="1">  1        2 0.14983616E+00 0.10115617E+03</pdfrwt>
<pdfrwt beam="2">  1        2 0.28185501E+00 0.71930801E+02</pdfrwt>
<totfact> 0.46326840E+01</totfact>
</mgrwt>
</event>
<event>
 7    1  0.3113530E-004  0.5007868E+03  0.7546771E-02  0.1181231E+00
          2   -1    0    0  502    0  0.00000000000E+00  0.00000000000E+00  0.23422055048E+04  0.23422055048E+04  0.00000000000E+00 0. -1.
          2   -1    0    0  503    0 -0.00000000000E+00 -0.00000000000E+00 -0.11068637825E+04  0.11068637825E+04  0.00000000000E+00 0. -1.
         25    2    1    2    0    0 -0.47361793654E+03  0.12964851785E+03  0.56615136412E+01  0.50673327319E+03  0.12499547761E+03 0.  0.
          4    1    3    3  501    0 -0.63857342222E+02  0.39213460875E+02 -0.39443297262E+02  0.84692634086E+02  0.12700000000E+01 0.  1.
         -4    1    3    3    0  501 -0.40976059432E+03  0.90435056975E+02  0.45104810903E+02  0.42204063910E+03  0.12700000000E+01 0.  1.
          2    1    1    2  502    0  0.45221045353E+01  0.55369982239E+02  0.20113549297E+04  0.20121219987E+04  0.00000000000E+00 0. -1.
          2    1    1    2  503    0  0.46909583201E+03 -0.18501850009E+03 -0.78167472100E+03  0.93021401539E+03  0.00000000000E+00 0. -1.
<mgrwt>
<rscale>  0 0.16679592E+03</rscale>
<asrwt>0</asrwt>
<pdfrwt beam="1">  1        2 0.36033931E+00 0.55554337E+02</pdfrwt>
<pdfrwt beam="2">  1        2 0.17028674E+00 0.50078678E+03</pdfrwt>
<totfact> 0.20461582E+01</totfact>
</mgrwt>
</event>
<event>
 7    1  0.3113530E-004  0.1621030E+03  0.7546771E-02  0.1244885E+00
          1   -1    0    0  503    0  0.00000000000E+00  0.00000000000E+00  0.95259307998E+03  0.95259307998E+03  0.00000000000E+00 0. -1.
         -1   -1    0    0    0  501 -0.00000000000E+00 -0.00000000000E+00 -0.13674143228E+03  0.13674143228E+03  0.00000000000E+00 0.  1.
         25    2    1    2    0    0 -0.26592972432E+02  0.10658644392E+03  0.11903325852E+03  0.20463363113E+03  0.12505258951E+03 0.  0.
          4    1    3    3  502    0  0.24437482394E+02  0.10241779818E+03  0.44771580576E+02  0.11442335101E+03  0.12700000000E+01 0. -1.
         -4    1    3    3    0  502 -0.51030454826E+02  0.41686457409E+01  0.74261677946E+02  0.90210280115E+02  0.12700000000E+01 0. -1.
          1    1    1    2  503    0 -0.35063628199E+02  0.79887857481E+02  0.68219826390E+03  0.68775431592E+03  0.00000000000E+00 0. -1.
         -1    1    1    2    0  501  0.61656600631E+02 -0.18647430140E+03  0.14620125272E+02  0.19694656521E+03  0.00000000000E+00 0.  1.
<mgrwt>
<rscale>  0 0.11892235E+03</rscale>
<asrwt>0</asrwt>
<pdfrwt beam="1">  1        1 0.14655278E+00 0.87244070E+02</pdfrwt>
<pdfrwt beam="2">  1       -1 0.21037144E-01 0.16210301E+03</pdfrwt>
<totfact> 0.34255734E+02</totfact>
</mgrwt>
</event>
<event>
 7    1  0.3113530E-004  0.6027472E+02  0.7546771E-02  0.1450121E+00
          2   -1    0    0  503    0  0.00000000000E+00  0.00000000000E+00  0.38722003353E+03  0.38722003353E+03  0.00000000000E+00 0. -1.
          2   -1    0    0  502    0 -0.00000000000E+00 -0.00000000000E+00 -0.74059474141E+03  0.74059474141E+03  0.00000000000E+00 0. -1.
         25    2    1    2    0    0  0.55858188399E+02  0.12773960496E+02 -0.41627112954E+03  0.43839510787E+03  0.12500122417E+03 0.  0.
          4    1    3    3  501    0  0.41813517354E+02  0.44995151636E+02 -0.82954327187E+02  0.10322774435E+03  0.12700000000E+01 0.  1.
         -4    1    3    3    0  501  0.14044671045E+02 -0.32221191140E+02 -0.33331680235E+03  0.33516736352E+03  0.12700000000E+01 0.  1.
          2    1    1    2  502    0 -0.19158717474E+02  0.35155618588E+02 -0.30954211184E+03  0.31212063850E+03  0.00000000000E+00 0. -1.
          2    1    1    2  503    0 -0.36699470925E+02 -0.47929579084E+02  0.37243853351E+03  0.37729902857E+03  0.00000000000E+00 0. -1.
<mgrwt>
<rscale>  0 0.49124623E+02</rscale>
<asrwt>0</asrwt>
<pdfrwt beam="1">  1        2 0.59572313E-01 0.60274723E+02</pdfrwt>
<pdfrwt beam="2">  1        2 0.11393765E+00 0.40037157E+02</pdfrwt>
<totfact> 0.53860425E+02</totfact>
</mgrwt>
</event>
<event>
 7    1  0.3113530E-004  0.9820747E+02  0.7546771E-02  0.1394896E+00
          2   -1    0    0  502    0  0.00000000000E+00  0.00000000000E+00  0.22764528308E+04  0.22764528308E+04  0.00000000000E+00 0.  1.
          1   -1    0    0  503    0 -0.00000000000E+00 -0.00000000000E+00 -0.16498294837E+03  0.16498294837E+03  0.00000000000E+00 0. -1.
         25    2    1    2    0    0  0.69343034327E+02  0.56681759047E+02  0.64903404988E+03  0.66700183984E+03  0.12499991291E+03 0.  0.
          4    1    3    3  501    0  0.39495254140E+02  0.46044884523E+01  0.54824212976E+03  0.54968365644E+03  0.12700000000E+01 0. -1.
         -4    1    3    3    0  501  0.29847780187E+02  0.52077270595E+02  0.10079192012E+03  0.11731818340E+03  0.12700000000E+01 0. -1.
          2    1    1    2  502    0 -0.96019362445E+02 -0.30291963165E+02  0.16145873496E+04  0.16177235952E+04  0.00000000000E+00 0.  1.
          1    1    1    2  503    0  0.26676328118E+02 -0.26389795882E+02 -0.15215151706E+03  0.15671034411E+03  0.00000000000E+00 0. -1.
<mgrwt>
<rscale>  0 0.60705299E+02</rscale>
<asrwt>0</asrwt>
<pdfrwt beam="1">  1        2 0.35022349E+00 0.98207465E+02</pdfrwt>
<pdfrwt beam="2">  1        1 0.25381994E-01 0.37523963E+02</pdfrwt>
<totfact> 0.14524867E+02</totfact>
</mgrwt>
</event>
<event>
 7    1  0.3113530E-004  0.1691854E+03  0.7546771E-02  0.1403767E+00
          2   -1    0    0  503    0  0.00000000000E+00  0.00000000000E+00  0.77472147839E+03  0.77472147839E+03  0.00000000000E+00 0. -1.
          2   -1    0    0  502    0 -0.00000000000E+00 -0.00000000000E+00 -0.22147615296E+03  0.22147615296E+03  0.00000000000E+00 0. -1.
         25    2    1    2    0    0 -0.10548023842E+03  0.11179211599E+03  0.33721305914E+03  0.39110470298E+03  0.12500673400E+03 0.  0.
          4    1    3    3  501    0 -0.35902747518E+02  0.90245861149E+02  0.28603086939E+03  0.30207382190E+03  0.12700000000E+01 0.  1.
         -4    1    3    3    0  501 -0.69577490901E+02  0.21546254843E+02  0.51182189743E+02  0.89030881074E+02  0.12700000000E+01 0.  1.
          2    1    1    2  502    0  0.10859121428E+03 -0.13185512557E+03 -0.15670295053E+03  0.23180517825E+03  0.00000000000E+00 0. -1.
          2    1    1    2  503    0 -0.31109758587E+01  0.20063009583E+02  0.37273521682E+03  0.37328775011E+03  0.00000000000E+00 0. -1.
<mgrwt>
<rscale>  0 0.58608294E+02</rscale>
<asrwt>0</asrwt>
<pdfrwt beam="1">  1        2 0.11918792E+00 0.20302771E+02</pdfrwt>
<pdfrwt beam="2">  1        2 0.34073255E-01 0.16918538E+03</pdfrwt>
<totfact> 0.94996597E+02</totfact>
</mgrwt>
</event>
<event>
 7    1  0.3113530E-004  0.1305994E+03  0.7546771E-02  0.1379951E+00
          2   -1    0    0  503    0  0.00000000000E+00  0.00000000000E+00  0.14611624936E+04  0.14611624936E+04  0.00000000000E+00 0.  1.
          2   -1    0    0  502    0 -0.00000000000E+00 -0.00000000000E+00 -0.56314746175E+03  0.56314746175E+03  0.00000000000E+00 0. -1.
         25    2    1    2    0    0  0.73944343151E+02  0.13593884836E+03 -0.19832362425E+02  0.19991443089E+03  0.12500128280E+03 0.  0.
          4    1    3    3  501    0 -0.56842785323E+01  0.31268024562E+02 -0.55210203027E+02  0.63716401347E+02  0.12700000000E+01 0.  1.
         -4    1    3    3    0  501  0.79628621683E+02  0.10467082380E+03  0.35377840602E+02  0.13619802954E+03  0.12700000000E+01 0.  1.
          2    1    1    2  502    0 -0.28499539381E+02 -0.14179268738E+02 -0.44963040145E+03  0.45075578012E+03  0.00000000000E+00 0. -1.
          2    1    1    2  503    0 -0.45444803770E+02 -0.12175957962E+03  0.13674777957E+04  0.13736397443E+04  0.00000000000E+00 0.  1.
<mgrwt>
<rscale>  0 0.64476662E+02</rscale>
<asrwt>0</asrwt>
<pdfrwt beam="1">  1        2 0.22479423E+00 0.13059945E+03</pdfrwt>
<pdfrwt beam="2">  1        2 0.86638071E-01 0.31831987E+02</pdfrwt>
<totfact> 0.13366007E+02</totfact>
</mgrwt>
</event>
<event>
 7    1  0.3113530E-004  0.9970605E+02  0.7546771E-02  0.1372853E+00
          2   -1    0    0  502    0  0.00000000000E+00  0.00000000000E+00  0.38256982028E+04  0.38256982028E+04  0.00000000000E+00 0. -1.
          1   -1    0    0  503    0 -0.00000000000E+00 -0.00000000000E+00 -0.76573521208E+02  0.76573521208E+02  0.00000000000E+00 0. -1.
         25    2    1    2    0    0 -0.93053619156E+02 -0.31568698466E+02  0.31880989288E+03  0.35625683468E+03  0.12499450267E+03 0.  0.
          4    1    3    3  501    0 -0.55745251969E+02  0.39761498580E+02  0.86105627899E+02  0.11001955255E+03  0.12700000000E+01 0.  1.
         -4    1    3    3    0  501 -0.37308367187E+02 -0.71330197046E+02  0.23270426498E+03  0.24623728213E+03  0.12700000000E+01 0.  1.
          2    1    1    2  502    0  0.71461141644E+02  0.70128013003E+02  0.34788980292E+04  0.34803385080E+04  0.00000000000E+00 0. -1.
          1    1    1    2  503    0  0.21592477512E+02 -0.38559314537E+02 -0.48583240401E+02  0.65676381375E+02  0.00000000000E+00 0. -1.
<mgrwt>
<rscale>  0 0.66380331E+02</rscale>
<asrwt>0</asrwt>
<pdfrwt beam="1">  1        2 0.58856880E+00 0.99706047E+02</pdfrwt>
<pdfrwt beam="2">  1        1 0.11780545E-01 0.44193391E+02</pdfrwt>
<totfact> 0.46342437E+01</totfact>
</mgrwt>
</event>
<event>
 7    1  0.3113530E-004  0.6262202E+02  0.7546771E-02  0.1479596E+00
         -1   -1    0    0    0  501 -0.00000000000E+00  0.00000000000E+00  0.53394071099E+01  0.53394071099E+01  0.00000000000E+00 0.  1.
          1   -1    0    0  503    0  0.00000000000E+00 -0.00000000000E+00 -0.46418897629E+04  0.46418897629E+04  0.00000000000E+00 0. -1.
         25    2    1    2    0    0  0.35233497405E+02  0.33000033921E+01 -0.40935166026E+04  0.40955772315E+04  0.12498957498E+03 0.  0.
          4    1    3    3  502    0 -0.29831610951E+02 -0.39917015847E+02 -0.12643871783E+04  0.12653694491E+04  0.12700000000E+01 0.  1.
         -4    1    3    3    0  502  0.65065108356E+02  0.43217019239E+02 -0.28291294243E+04  0.28302077824E+04  0.12700000000E+01 0.  1.
          1    1    1    2  503    0  0.29852899731E+02 -0.89084368821E+01 -0.14683946165E+03  0.15010790575E+03  0.00000000000E+00 0. -1.
         -1    1    1    2    0  501 -0.65086397135E+02  0.56084334899E+01 -0.39619429150E+03  0.40154403275E+03  0.00000000000E+00 0.  1.
<mgrwt>
<rscale>  0 0.44169113E+02</rscale>
<asrwt>0</asrwt>
<pdfrwt beam="2">  1        1 0.71413830E+00 0.31153746E+02</pdfrwt>
<pdfrwt beam="1">  1       -1 0.82144562E-03 0.62622022E+02</pdfrwt>
<totfact> 0.11197458E+02</totfact>
</mgrwt>
</event>
<event>
 7    1  0.3113530E-004  0.4941708E+02  0.7546771E-02  0.1476855E+00
          2   -1    0    0  502    0  0.00000000000E+00  0.00000000000E+00  0.39175366615E+03  0.39175366615E+03  0.00000000000E+00 0.  1.
          2   -1    0    0  503    0 -0.00000000000E+00 -0.00000000000E+00 -0.21568901740E+04  0.21568901740E+04  0.00000000000E+00 0. -1.
         25    2    1    2    0    0  0.39579334049E+02  0.31569599200E+02  0.23670639111E+02  0.13691573936E+03  0.12498982859E+03 0.  0.
          4    1    3    3  501    0 -0.87820856766E+01 -0.27346787275E+02 -0.31624370704E+02  0.42739741757E+02  0.12700000000E+01 0.  1.
         -4    1    3    3    0  501  0.48361419725E+02  0.58916386475E+02  0.55295009815E+02  0.94175997598E+02  0.12700000000E+01 0.  1.
          2    1    1    2  502    0 -0.36112152901E+02  0.17780659838E+02  0.30986723192E+03  0.31247070401E+03  0.00000000000E+00 0.  1.
          2    1    1    2  503    0 -0.34671811484E+01 -0.49350259038E+02 -0.20986743789E+04  0.20992573968E+04  0.00000000000E+00 0. -1.
<mgrwt>
<rscale>  0 0.44599845E+02</rscale>
<asrwt>0</asrwt>
<pdfrwt beam="1">  1        2 0.60269794E-01 0.40252198E+02</pdfrwt>
<pdfrwt beam="2">  1        2 0.33182926E+00 0.49417082E+02</pdfrwt>
<totfact> 0.95810341E+01</totfact>
</mgrwt>
</event>
<event>
 7    1  0.3113530E-004  0.2092277E+03  0.7546771E-02  0.1288607E+00
         -3   -1    0    0    0  501 -0.00000000000E+00  0.00000000000E+00  0.16887401039E+03  0.16887401039E+03  0.00000000000E+00 0.  1.
          2   -1    0    0  503    0  0.00000000000E+00 -0.00000000000E+00 -0.88706144207E+03  0.88706144207E+03  0.00000000000E+00 0. -1.
         25    2    1    2    0    0  0.17500851073E+03 -0.87942435384E+02 -0.19432370243E+03  0.30290439657E+03  0.12501008504E+03 0.  0.
          4    1    3    3  502    0  0.13389440864E+03 -0.11785567767E+03 -0.17043507962E+03  0.24671319926E+03  0.12700000000E+01 0.  1.
         -4    1    3    3    0  502  0.41114102089E+02  0.29913242287E+02 -0.23888622816E+02  0.56191197307E+02  0.12700000000E+01 0.  1.
          2    1    1    2  503    0  0.32780370613E+02  0.29627785798E+02 -0.53510088506E+03  0.53692207589E+03  0.00000000000E+00 0. -1.
         -3    1    1    2    0  501 -0.20778888134E+03  0.58314649587E+02  0.11237155811E+02  0.21610898000E+03  0.00000000000E+00 0.  1.
<mgrwt>
<rscale>  0 0.96150048E+02</rscale>
<asrwt>0</asrwt>
<pdfrwt beam="2">  1        2 0.13647099E+00 0.44185500E+02</pdfrwt>
<pdfrwt beam="1">  1       -3 0.25980617E-01 0.20922773E+03</pdfrwt>
<totfact> 0.29056011E+02</totfact>
</mgrwt>
</event>
<event>
 7    1  0.3113530E-004  0.1213488E+03  0.7546771E-02  0.1316314E+00
          3   -1    0    0  503    0 -0.00000000000E+00  0.00000000000E+00  0.48443768221E+03  0.48443768221E+03  0.00000000000E+00 0. -1.
          1   -1    0    0  502    0  0.00000000000E+00 -0.00000000000E+00 -0.86393478687E+03  0.86393478687E+03  0.00000000000E+00 0. -1.
         25    2    1    2    0    0 -0.88953953464E+02  0.13448478725E+03  0.66976586393E+02  0.21473127508E+03  0.12499877413E+03 0.  0.
          4    1    3    3  501    0  0.29921561545E+02  0.15588172288E+02  0.23280957224E+02  0.41011057409E+02  0.12700000000E+01 0.  1.
         -4    1    3    3    0  501 -0.11887551501E+03  0.11889661497E+03  0.43695629169E+02  0.17372021767E+03  0.12700000000E+01 0.  1.
          1    1    1    2  502    0  0.32957901464E+02 -0.11568007515E+03 -0.78289109278E+03  0.79207737387E+03  0.00000000000E+00 0. -1.
          3    1    1    2  503    0  0.55996052000E+02 -0.18804712104E+02  0.33641740173E+03  0.34156382013E+03  0.00000000000E+00 0. -1.
<mgrwt>
<rscale>  0 0.84663937E+02</rscale>
<asrwt>0</asrwt>
<pdfrwt beam="2">  1        1 0.13291304E+00 0.12134881E+03</pdfrwt>
<pdfrwt beam="1">  1        3 0.74528875E-01 0.59069239E+02</pdfrwt>
<totfact> 0.19422457E+01</totfact>
</mgrwt>
</event>
<event>
 7    1  0.3113530E-004  0.7132035E+02  0.7546771E-02  0.1460172E+00
          2   -1    0    0  502    0  0.00000000000E+00  0.00000000000E+00  0.25583697488E+03  0.25583697488E+03  0.00000000000E+00 0. -1.
          1   -1    0    0  503    0 -0.00000000000E+00 -0.00000000000E+00 -0.19173644836E+03  0.19173644836E+03  0.00000000000E+00 0. -1.
         25    2    1    2    0    0 -0.62753581966E+02 -0.62752918745E+02  0.10176778380E+03  0.18401418190E+03  0.12501438501E+03 0.  0.
          4    1    3    3  501    0  0.48931244181E+01 -0.74764785476E+02  0.84934003640E+02  0.11326567745E+03  0.12700000000E+01 0.  1.
         -4    1    3    3    0  501 -0.67646706384E+02  0.12011866732E+02  0.16833780158E+02  0.70748504447E+02  0.12700000000E+01 0.  1.
          2    1    1    2  502    0  0.59975549533E+02  0.31437513785E+02  0.10087458240E+03  0.12149512414E+03  0.00000000000E+00 0. -1.
          1    1    1    2  503    0  0.27780324328E+01  0.31315404960E+02 -0.13854183969E+03  0.14206411720E+03  0.00000000000E+00 0. -1.
<mgrwt>
<rscale>  0 0.47351839E+02</rscale>
<asrwt>0</asrwt>
<pdfrwt beam="1">  1        2 0.39359535E-01 0.71320351E+02</pdfrwt>
<pdfrwt beam="2">  1        1 0.29497915E-01 0.31438385E+02</pdfrwt>
<totfact> 0.25667896E+03</totfact>
</mgrwt>
</event>
<event>
 7    1  0.3113530E-004  0.1462226E+03  0.7546771E-02  0.1229834E+00
          2   -1    0    0  502    0  0.00000000000E+00  0.00000000000E+00  0.24810285331E+04  0.24810285331E+04  0.00000000000E+00 0. -1.
          1   -1    0    0  503    0 -0.00000000000E+00 -0.00000000000E+00 -0.17575193403E+04  0.17575193403E+04  0.00000000000E+00 0. -1.
         25    2    1    2    0    0 -0.34699268614E+02 -0.11972990903E+02  0.10135144711E+04  0.10218527691E+04  0.12499642717E+03 0.  0.
          4    1    3    3  501    0 -0.37013492891E+02  0.34147383218E+02  0.17605740946E+03  0.18312254575E+03  0.12700000000E+01 0. -1.
         -4    1    3    3    0  501  0.23142242769E+01 -0.46120374122E+02  0.83745706167E+03  0.83873022336E+03  0.12700000000E+01 0. -1.
          2    1    1    2  502    0 -0.79139139546E+02 -0.80333235201E+02  0.14581013951E+04  0.14624555072E+04  0.00000000000E+00 0. -1.
          1    1    1    2  503    0  0.11383840816E+03  0.92306226104E+02 -0.17481066735E+04  0.17542395972E+04  0.00000000000E+00 0. -1.
<mgrwt>
<rscale>  0 0.12840993E+03</rscale>
<asrwt>0</asrwt>
<pdfrwt beam="1">  1        2 0.38169670E+00 0.11276716E+03</pdfrwt>
<pdfrwt beam="2">  1        1 0.27038759E+00 0.14622262E+03</pdfrwt>
<totfact> 0.32731071E+00</totfact>
</mgrwt>
</event>
<event>
 7    1  0.3113530E-004  0.3680556E+02  0.7546771E-02  0.1537822E+00
         -1   -1    0    0    0  501 -0.00000000000E+00  0.00000000000E+00  0.22654165936E+02  0.22654165936E+02  0.00000000000E+00 0.  1.
          2   -1    0    0  503    0  0.00000000000E+00 -0.00000000000E+00 -0.54308053373E+03  0.54308053373E+03  0.00000000000E+00 0. -1.
         25    2    1    2    0    0 -0.85241217743E+01  0.25906856875E+02 -0.22968784112E+03  0.26291622683E+03  0.12499844833E+03 0.  0.
          4    1    3    3  502    0  0.52093062022E+01  0.39891165137E+02 -0.88560361123E+01  0.41212670414E+02  0.12700000000E+01 0.  1.
         -4    1    3    3    0  502 -0.13733427976E+02 -0.13984308262E+02 -0.22083180501E+03  0.22170355641E+03  0.12700000000E+01 0.  1.
          2    1    1    2  503    0  0.38631454996E+02 -0.67386437947E+01 -0.22126493019E+03  0.22471307920E+03  0.00000000000E+00 0. -1.
         -1    1    1    2    0  501 -0.30107333222E+02 -0.19168213080E+02 -0.69473596482E+02  0.78105393633E+02  0.00000000000E+00 0.  1.
<mgrwt>
<rscale>  0 0.36244171E+02</rscale>
<asrwt>0</asrwt>
<pdfrwt beam="2">  1        2 0.83550853E-01 0.36805564E+02</pdfrwt>
<pdfrwt beam="1">  1       -1 0.34852562E-02 0.35691342E+02</pdfrwt>
<totfact> 0.16005122E+04</totfact>
</mgrwt>
</event>
<event>
 7    1  0.3113530E-004  0.8740508E+02  0.7546771E-02  0.1394771E+00
          1   -1    0    0  503    0 -0.00000000000E+00  0.00000000000E+00  0.32759932731E+03  0.32759932731E+03  0.00000000000E+00 0. -1.
          2   -1    0    0  502    0  0.00000000000E+00 -0.00000000000E+00 -0.11104819208E+04  0.11104819208E+04  0.00000000000E+00 0. -1.
         25    2    1    2    0    0  0.59811526736E+02  0.79053601421E+02  0.27209982655E+02  0.16184306166E+03  0.12500361124E+03 0.  0.
          4    1    3    3  501    0 -0.34398637144E+02  0.20135127079E+02 -0.15512434728E+02  0.42789462617E+02  0.12700000000E+01 0.  1.
         -4    1    3    3    0  501  0.94210163881E+02  0.58918474342E+02  0.42722417383E+02  0.11905359904E+03  0.12700000000E+01 0.  1.
          2    1    1    2  502    0 -0.18097219549E+02 -0.85461161261E+02 -0.10394075263E+04  0.10430719655E+04  0.00000000000E+00 0. -1.
          1    1    1    2  503    0 -0.41714307187E+02  0.64075598394E+01  0.22931495015E+03  0.23316622098E+03  0.00000000000E+00 0. -1.
<mgrwt>
<rscale>  0 0.60735535E+02</rscale>
<asrwt>0</asrwt>
<pdfrwt beam="2">  1        2 0.17084337E+00 0.87405077E+02</pdfrwt>
<pdfrwt beam="1">  1        1 0.50399897E-01 0.42203557E+02</pdfrwt>
<totfact> 0.25885413E+02</totfact>
</mgrwt>
</event>
<event>
 7    1  0.3113530E-004  0.4681773E+02  0.7546771E-02  0.1541943E+00
          1   -1    0    0  503    0  0.00000000000E+00  0.00000000000E+00  0.63787012354E+03  0.63787012354E+03  0.00000000000E+00 0. -1.
         -2   -1    0    0    0  501 -0.00000000000E+00 -0.00000000000E+00 -0.21671326222E+02  0.21671326222E+02  0.00000000000E+00 0.  1.
         25    2    1    2    0    0  0.46866083475E+01 -0.44234240682E+02  0.45834193882E+03  0.47715731226E+03  0.12499254143E+03 0.  0.
          4    1    3    3  502    0  0.37589969887E+02 -0.64552809179E+02  0.16317555557E+03  0.17946572331E+03  0.12700000000E+01 0.  1.
         -4    1    3    3    0  502 -0.32903361539E+02  0.20318568496E+02  0.29516638326E+03  0.29769158895E+03  0.12700000000E+01 0.  1.
          1    1    1    2  503    0  0.26221292219E+02  0.76545896093E+01  0.11473373458E+03  0.11794057300E+03  0.00000000000E+00 0. -1.
         -2    1    1    2    0  501 -0.30907900567E+02  0.36579651073E+02  0.43123123908E+02  0.64443564502E+02  0.00000000000E+00 0.  1.
<mgrwt>
<rscale>  0 0.35761157E+02</rscale>
<asrwt>0</asrwt>
<pdfrwt beam="1">  1        1 0.98133851E-01 0.27315726E+02</pdfrwt>
<pdfrwt beam="2">  1       -2 0.33340507E-02 0.46817732E+02</pdfrwt>
<totfact> 0.91602106E+03</totfact>
</mgrwt>
</event>
<event>
 7    1  0.3113530E-004  0.4333309E+02  0.7546771E-02  0.1521678E+00
          2   -1    0    0  502    0  0.00000000000E+00  0.00000000000E+00  0.27496706066E+02  0.27496706066E+02  0.00000000000E+00 0. -1.
          1   -1    0    0  503    0 -0.00000000000E+00 -0.00000000000E+00 -0.13632450390E+04  0.13632450390E+04  0.00000000000E+00 0. -1.
         25    2    1    2    0    0 -0.13907617718E+02 -0.85973729995E+01 -0.10273824558E+04  0.10350874969E+04  0.12499631639E+03 0.  0.
          4    1    3    3  501    0 -0.55493751628E+02  0.34977556623E+02 -0.56490521573E+03  0.56870247195E+03  0.12700000000E+01 0.  1.
         -4    1    3    3    0  501  0.41586133910E+02 -0.43574929623E+02 -0.46247724008E+03  0.46638502497E+03  0.12700000000E+01 0.  1.
          2    1    1    2  502    0  0.24294093651E+02 -0.35882503341E+02  0.59306857488E+00  0.43337152221E+02  0.00000000000E+00 0. -1.
          1    1    1    2  503    0 -0.10386475933E+02  0.44479876340E+02 -0.30895894565E+03  0.31231709588E+03  0.00000000000E+00 0. -1.
<mgrwt>
<rscale>  0 0.38227129E+02</rscale>
<asrwt>0</asrwt>
<pdfrwt beam="1">  1        2 0.42302628E-02 0.43333094E+02</pdfrwt>
<pdfrwt beam="2">  1        1 0.20972999E+00 0.33722803E+02</pdfrwt>
<totfact> 0.23766386E+03</totfact>
</mgrwt>
</event>
<event>
 7    1  0.3113530E-004  0.1109175E+03  0.7546771E-02  0.1321787E+00
          1   -1    0    0  502    0  0.00000000000E+00  0.00000000000E+00  0.13560924858E+03  0.13560924858E+03  0.00000000000E+00 0. -1.
          1   -1    0    0  503    0 -0.00000000000E+00 -0.00000000000E+00 -0.63470359642E+03  0.63470359642E+03  0.00000000000E+00 0. -1.
         25    2    1    2    0    0 -0.53228977531E+02  0.71018512629E+02  0.53597597641E+01  0.15339431044E+03  0.12499653701E+03 0.  0.
          4    1    3    3  501    0 -0.34438390494E+01  0.89787383590E+02  0.30011609043E+02  0.94741457962E+02  0.12700000000E+01 0. -1.
         -4    1    3    3    0  501 -0.49785138482E+02 -0.18768870961E+02 -0.24651849279E+02  0.58652852477E+02  0.12700000000E+01 0. -1.
          1    1    1    2  502    0  0.44752309951E+02  0.42236727119E+02  0.31453426360E+02  0.69108815599E+02  0.00000000000E+00 0. -1.
          1    1    1    2  503    0  0.84766675799E+01 -0.11325523975E+03 -0.53590753396E+03  0.54780971896E+03  0.00000000000E+00 0. -1.
<mgrwt>
<rscale>  0 0.82616271E+02</rscale>
<asrwt>0</asrwt>
<pdfrwt beam="1">  1        1 0.20862962E-01 0.61536252E+02</pdfrwt>
<pdfrwt beam="2">  1        1 0.97646705E-01 0.11091752E+03</pdfrwt>
<totfact> 0.92444569E+02</totfact>
</mgrwt>
</event>
<event>
 7    1  0.3113530E-004  0.8788782E+02  0.7546771E-02  0.1449339E+00
         -1   -1    0    0    0  501 -0.00000000000E+00  0.00000000000E+00  0.66366563043E+03  0.66366563043E+03  0.00000000000E+00 0.  1.
          1   -1    0    0  503    0  0.00000000000E+00 -0.00000000000E+00 -0.40369098835E+03  0.40369098835E+03  0.00000000000E+00 0. -1.
         25    2    1    2    0    0  0.92859629982E+02  0.30715174553E+02 -0.89330653502E+02  0.18212931457E+03  0.12499915497E+03 0.  0.
          4    1    3    3  502    0  0.11424572824E+03  0.32005745595E+02 -0.10263114021E+03  0.15687962905E+03  0.12700000000E+01 0.  1.
         -4    1    3    3    0  502 -0.21386098253E+02 -0.12905710417E+01  0.13300486706E+02  0.25249685517E+02  0.12700000000E+01 0.  1.
          1    1    1    2  503    0 -0.86780123005E+02 -0.37759371520E+01 -0.26060100865E+03  0.27469607416E+03  0.00000000000E+00 0. -1.
         -1    1    1    2    0  501 -0.60795069771E+01 -0.26939237401E+02  0.60990630423E+03  0.61053123005E+03  0.00000000000E+00 0.  1.
<mgrwt>
<rscale>  0 0.49266345E+02</rscale>
<asrwt>0</asrwt>
<pdfrwt beam="2">  1        1 0.62106306E-01 0.87887817E+02</pdfrwt>
<pdfrwt beam="1">  1       -1 0.10210240E+00 0.27616714E+02</pdfrwt>
<totfact> 0.65316799E+01</totfact>
</mgrwt>
</event>
<event>
 7    1  0.3113530E-004  0.1010413E+03  0.7546771E-02  0.1339956E+00
         -1   -1    0    0    0  501 -0.00000000000E+00  0.00000000000E+00  0.13846105460E+03  0.13846105460E+03  0.00000000000E+00 0.  1.
          2   -1    0    0  503    0  0.00000000000E+00 -0.00000000000E+00 -0.28803700280E+03  0.28803700280E+03  0.00000000000E+00 0. -1.
         25    2    1    2    0    0 -0.10027747450E+03  0.53082555365E+02  0.57010971005E+02  0.17817701985E+03  0.12499387990E+03 0.  0.
          4    1    3    3  502    0 -0.67130906654E+02  0.91330926829E+02  0.58429812706E+02  0.12752863497E+03  0.12700000000E+01 0. -1.
         -4    1    3    3    0  502 -0.33146567848E+02 -0.38248371464E+02 -0.14188417013E+01  0.50648384886E+02  0.12700000000E+01 0. -1.
          2    1    1    2  503    0  0.20388881737E+02 -0.53854879027E+02 -0.78404481115E+02  0.97279582402E+02  0.00000000000E+00 0. -1.
         -1    1    1    2    0  501  0.79888592765E+02  0.77232366175E+00 -0.12818243809E+03  0.15104145515E+03  0.00000000000E+00 0.  1.
<mgrwt>
<rscale>  0 0.76278964E+02</rscale>
<asrwt>0</asrwt>
<pdfrwt beam="2">  1        2 0.44313385E-01 0.57585193E+02</pdfrwt>
<pdfrwt beam="1">  1       -1 0.21301701E-01 0.10104126E+03</pdfrwt>
<totfact> 0.22715693E+03</totfact>
</mgrwt>
</event>
<event>
 7    1  0.3113530E-004  0.5616290E+02  0.7546771E-02  0.1483825E+00
          2   -1    0    0  503    0  0.00000000000E+00  0.00000000000E+00  0.14625732610E+03  0.14625732610E+03  0.00000000000E+00 0. -1.
         -1   -1    0    0    0  501 -0.00000000000E+00 -0.00000000000E+00 -0.11501220028E+03  0.11501220028E+03  0.00000000000E+00 0.  1.
         25    2    1    2    0    0  0.60182227884E+02 -0.46939544310E+02  0.38002596803E+02  0.15130821828E+03  0.12499903273E+03 0.  0.
          4    1    3    3  502    0  0.48504400033E+02 -0.64582848335E+02  0.73989509458E+02  0.10954305789E+03  0.12700000000E+01 0.  1.
         -4    1    3    3    0  502  0.11677827852E+02  0.17643304025E+02 -0.35986912655E+02  0.41765160394E+02  0.12700000000E+01 0.  1.
          2    1    1    2  503    0 -0.33716685540E+02  0.37998310264E-01  0.29696553092E+02  0.44929963201E+02  0.00000000000E+00 0. -1.
         -1    1    1    2    0  501 -0.26465542344E+02  0.46901546000E+02 -0.36454024073E+02  0.65031344903E+02  0.00000000000E+00 0.  1.
<mgrwt>
<rscale>  0 0.43515838E+02</rscale>
<asrwt>0</asrwt>
<pdfrwt beam="1">  1        2 0.22501127E-01 0.33716707E+02</pdfrwt>
<pdfrwt beam="2">  1       -1 0.17694185E-01 0.56162903E+02</pdfrwt>
<totfact> 0.59142504E+03</totfact>
</mgrwt>
</event>
<event>
 7    1  0.3113530E-004  0.1247550E+03  0.7546771E-02  0.1324503E+00
          1   -1    0    0  503    0  0.00000000000E+00  0.00000000000E+00  0.34202151168E+02  0.34202151168E+02  0.00000000000E+00 0. -1.
          1   -1    0    0  502    0 -0.00000000000E+00 -0.00000000000E+00 -0.13420611440E+04  0.13420611440E+04  0.00000000000E+00 0. -1.
         25    2    1    2    0    0 -0.77497905023E+02 -0.49419015104E+02 -0.56737553105E+03  0.58820744397E+03  0.12499935827E+03 0.  0.
          4    1    3    3  501    0 -0.16723851334E+02 -0.48770293069E+02 -0.47393296547E+03  0.47673084371E+03  0.12700000000E+01 0.  1.
         -4    1    3    3    0  501 -0.60774053689E+02 -0.64872203468E+00 -0.93442565584E+02  0.11147660026E+03  0.12700000000E+01 0.  1.
          1    1    1    2  502    0 -0.53047484873E+02  0.61713039737E+01 -0.55283907571E+03  0.55541260724E+03  0.00000000000E+00 0. -1.
          1    1    1    2  503    0  0.13054538990E+03  0.43247711130E+02 -0.18764438610E+03  0.23264324399E+03  0.00000000000E+00 0. -1.
<mgrwt>
<rscale>  0 0.81624592E+02</rscale>
<asrwt>0</asrwt>
<pdfrwt beam="1">  1        1 0.52618692E-02 0.12475504E+03</pdfrwt>
<pdfrwt beam="2">  1        1 0.20647095E+00 0.53405249E+02</pdfrwt>
<totfact> 0.18230349E+03</totfact>
</mgrwt>
</event>
<event>
 7    1  0.3113530E-004  0.5860667E+02  0.7546771E-02  0.1454044E+00
         -1   -1    0    0    0  501 -0.00000000000E+00  0.00000000000E+00  0.68239576652E+03  0.68239576652E+03  0.00000000000E+00 0.  1.
          2   -1    0    0  503    0  0.00000000000E+00 -0.00000000000E+00 -0.89766557590E+03  0.89766557590E+03  0.00000000000E+00 0. -1.
         25    2    1    2    0    0  0.60488868417E+02  0.20729194014E+02 -0.30958837634E+03  0.33995715001E+03  0.12504918389E+03 0.  0.
          4    1    3    3  502    0  0.40317510162E+02  0.13167237857E+02 -0.15647765424E+02  0.45225471155E+02  0.12700000000E+01 0. -1.
         -4    1    3    3    0  502  0.20171358256E+02  0.75619561565E+01 -0.29394061091E+03  0.29473167885E+03  0.12700000000E+01 0. -1.
          2    1    1    2  503    0 -0.32669391403E+02 -0.49480651245E+02 -0.57075593980E+03  0.57382747128E+03  0.00000000000E+00 0. -1.
         -1    1    1    2    0  501 -0.27819477014E+02  0.28751457231E+02  0.66507450675E+03  0.66627672113E+03  0.00000000000E+00 0.  1.
<mgrwt>
<rscale>  0 0.48421938E+02</rscale>
<asrwt>0</asrwt>
<pdfrwt beam="2">  1        2 0.13810240E+00 0.58606672E+02</pdfrwt>
<pdfrwt beam="1">  1       -1 0.10498396E+00 0.40007119E+02</pdfrwt>
<totfact> 0.37063422E+01</totfact>
</mgrwt>
</event>
<event>
 7    1  0.3113530E-004  0.1062114E+03  0.7546771E-02  0.1310915E+00
         -1   -1    0    0    0  501 -0.00000000000E+00  0.00000000000E+00  0.21849242497E+02  0.21849242497E+02  0.00000000000E+00 0.  1.
          1   -1    0    0  503    0  0.00000000000E+00 -0.00000000000E+00 -0.15405931742E+04  0.15405931742E+04  0.00000000000E+00 0. -1.
         25    2    1    2    0    0  0.80615375953E+02  0.81382384980E+02 -0.69302071230E+03  0.71345974996E+03  0.12500070287E+03 0.  0.
          4    1    3    3  502    0  0.11190548269E+03  0.79171167723E+02 -0.59243964523E+03  0.60809313184E+03  0.12700000000E+01 0. -1.
         -4    1    3    3    0  502 -0.31290106738E+02  0.22112172570E+01 -0.10058106707E+03  0.10536661813E+03  0.12700000000E+01 0. -1.
          1    1    1    2  503    0 -0.15163637352E+02 -0.10852560287E+03 -0.65557614013E+03  0.66467121036E+03  0.00000000000E+00 0. -1.
         -1    1    1    2    0  501 -0.65451738601E+02  0.27143217892E+02 -0.17014707926E+03  0.18431145635E+03  0.00000000000E+00 0.  1.
<mgrwt>
<rscale>  0 0.86751365E+02</rscale>
<asrwt>0</asrwt>
<pdfrwt beam="2">  1        1 0.23701437E+00 0.10621141E+03</pdfrwt>
<pdfrwt beam="1">  1       -1 0.33614214E-02 0.70856788E+02</pdfrwt>
<totfact> 0.20384347E+03</totfact>
</mgrwt>
</event>
<event>
 7    1  0.3113530E-004  0.4749922E+02  0.7546771E-02  0.1561570E+00
          1   -1    0    0  503    0  0.00000000000E+00  0.00000000000E+00  0.51100969641E+03  0.51100969641E+03  0.00000000000E+00 0. -1.
         -2   -1    0    0    0  501 -0.00000000000E+00 -0.00000000000E+00 -0.70732607548E+02  0.70732607548E+02  0.00000000000E+00 0.  1.
         25    2    1    2    0    0  0.26971978093E+02  0.16321003111E+02  0.10745169230E+03  0.16782376545E+03  0.12500034931E+03 0.  0.
          4    1    3    3  502    0  0.30002355349E+02 -0.42199280618E+02  0.80312824578E+01  0.52412164705E+02  0.12700000000E+01 0.  1.
         -4    1    3    3    0  502 -0.30303772566E+01  0.58520283728E+02  0.99420409839E+02  0.11541160075E+03  0.12700000000E+01 0.  1.
          1    1    1    2  503    0 -0.48159941803E+02 -0.56088886059E+01  0.36816520228E+03  0.37134412046E+03  0.00000000000E+00 0. -1.
         -2    1    1    2    0  501  0.21187963710E+02 -0.10712114505E+02 -0.35339805723E+02  0.42574418045E+02  0.00000000000E+00 0.  1.
<mgrwt>
<rscale>  0 0.33581589E+02</rscale>
<asrwt>0</asrwt>
<pdfrwt beam="1">  1        1 0.78616874E-01 0.47499220E+02</pdfrwt>
<pdfrwt beam="2">  1       -2 0.10881940E-01 0.23741929E+02</pdfrwt>
<totfact> 0.19621053E+03</totfact>
</mgrwt>
</event>
<event>
 7    1  0.3113530E-004  0.5741928E+02  0.7546771E-02  0.1460883E+00
         -1   -1    0    0    0  501 -0.00000000000E+00  0.00000000000E+00  0.12657168434E+02  0.12657168434E+02  0.00000000000E+00 0.  1.
          2   -1    0    0  503    0  0.00000000000E+00 -0.00000000000E+00 -0.14613168504E+04  0.14613168504E+04  0.00000000000E+00 0. -1.
         25    2    1    2    0    0  0.49959940356E+02 -0.39347886784E+02 -0.11353353410E+04  0.11439649749E+04  0.12500110234E+03 0.  0.
          4    1    3    3  502    0  0.76108847668E+01 -0.24240139332E+02 -0.38123334277E+02  0.45831336858E+02  0.12700000000E+01 0.  1.
         -4    1    3    3    0  502  0.42349055590E+02 -0.15107747452E+02 -0.10972120067E+04  0.10981336381E+04  0.12700000000E+01 0.  1.
          2    1    1    2  503    0  0.80533433845E+01  0.38004640060E+02 -0.18701845000E+03  0.19101075794E+03  0.00000000000E+00 0. -1.
         -1    1    1    2    0  501 -0.58013283741E+02  0.13432467240E+01 -0.12630589102E+03  0.13899828599E+03  0.00000000000E+00 0.  1.
<mgrwt>
<rscale>  0 0.47229814E+02</rscale>
<asrwt>0</asrwt>
<pdfrwt beam="2">  1        2 0.22481795E+00 0.38848539E+02</pdfrwt>
<pdfrwt beam="1">  1       -1 0.19472569E-02 0.57419283E+02</pdfrwt>
<totfact> 0.11125332E+04</totfact>
</mgrwt>
</event>
<event>
 7    1  0.3113530E-004  0.4477943E+02  0.7546771E-02  0.1568299E+00
         -1   -1    0    0    0  501 -0.00000000000E+00  0.00000000000E+00  0.26477264478E+02  0.26477264478E+02  0.00000000000E+00 0.  1.
          2   -1    0    0  503    0  0.00000000000E+00 -0.00000000000E+00 -0.62352064323E+03  0.62352064323E+03  0.00000000000E+00 0. -1.
         25    2    1    2    0    0  0.42474324779E+02 -0.38867326028E+02 -0.46596854812E+03  0.48586722182E+03  0.12500212841E+03 0.  0.
          4    1    3    3  502    0 -0.86951990309E+01 -0.72407990276E+02 -0.19820690825E+03  0.21120159782E+03  0.12700000000E+01 0.  1.
         -4    1    3    3    0  502  0.51169523810E+02  0.33540664248E+02 -0.26776163987E+03  0.27466562400E+03  0.12700000000E+01 0.  1.
          2    1    1    2  503    0 -0.24101989019E+02 -0.13362275138E+01 -0.11434961320E+03  0.11686969418E+03  0.00000000000E+00 0. -1.
         -1    1    1    2    0  501 -0.18372335760E+02  0.40203553542E+02 -0.16725217429E+02  0.47260991703E+02  0.00000000000E+00 0.  1.
<mgrwt>
<rscale>  0 0.32877511E+02</rscale>
<asrwt>0</asrwt>
<pdfrwt beam="2">  1        2 0.95926255E-01 0.24139001E+02</pdfrwt>
<pdfrwt beam="1">  1       -1 0.40734252E-02 0.44779431E+02</pdfrwt>
<totfact> 0.11534001E+04</totfact>
</mgrwt>
</event>
<event>
 7    1  0.3113530E-004  0.1570123E+03  0.7546771E-02  0.1278409E+00
          2   -1    0    0  502    0  0.00000000000E+00  0.00000000000E+00  0.11025567053E+04  0.11025567053E+04  0.00000000000E+00 0. -1.
          2   -1    0    0  503    0 -0.00000000000E+00 -0.00000000000E+00 -0.16340488167E+04  0.16340488167E+04  0.00000000000E+00 0. -1.
         25    2    1    2    0    0  0.15406755459E+03  0.11589887136E+03  0.26405575213E+03  0.35002960371E+03  0.12500369385E+03 0.  0.
          4    1    3    3  501    0 -0.19497744235E+01  0.44832926367E+02  0.14346090573E+02  0.47129779563E+02  0.12700000000E+01 0. -1.
         -4    1    3    3    0  501  0.15601732901E+03  0.71065944994E+02  0.24970966156E+03  0.30289982414E+03  0.12700000000E+01 0. -1.
          2    1    1    2  502    0 -0.89606340388E+02 -0.12293520408E+03  0.78757146427E+03  0.80212914919E+03  0.00000000000E+00 0. -1.
          2    1    1    2  503    0 -0.64461214201E+02  0.70363327220E+01 -0.15831193278E+04  0.15844467691E+04  0.00000000000E+00 0. -1.
<mgrwt>
<rscale>  0 0.10090254E+03</rscale>
<asrwt>0</asrwt>
<pdfrwt beam="1">  1        2 0.16962411E+00 0.15701230E+03</pdfrwt>
<pdfrwt beam="2">  1        2 0.25139212E+00 0.64844106E+02</pdfrwt>
<totfact> 0.48196807E+01</totfact>
</mgrwt>
</event>
<event>
 7    1  0.3113530E-004  0.1024650E+03  0.7546771E-02  0.1368952E+00
          2   -1    0    0  503    0  0.00000000000E+00  0.00000000000E+00  0.29635218298E+04  0.29635218298E+04  0.00000000000E+00 0. -1.
         -1   -1    0    0    0  501 -0.00000000000E+00 -0.00000000000E+00 -0.20304348656E+03  0.20304348656E+03  0.00000000000E+00 0.  1.
         25    2    1    2    0    0  0.37392720386E+02  0.50548508221E+02  0.10623696970E+03  0.17568224300E+03  0.12499835820E+03 0.  0.
          4    1    3    3  502    0  0.17926520946E+00  0.60537797497E+01  0.11658353327E+03  0.11674764886E+03  0.12700000000E+01 0.  1.
         -4    1    3    3    0  502  0.37213455176E+02  0.44494728472E+02 -0.10346563575E+02  0.58934594134E+02  0.12700000000E+01 0.  1.
          2    1    1    2  503    0  0.27716745055E+02  0.34703001940E+02  0.28052776176E+04  0.28056291680E+04  0.00000000000E+00 0. -1.
         -1    1    1    2    0  501 -0.65109465441E+02 -0.85251510161E+02 -0.15103624402E+03  0.18525390544E+03  0.00000000000E+00 0.  1.
<mgrwt>
<rscale>  0 0.67459482E+02</rscale>
<asrwt>0</asrwt>
<pdfrwt beam="1">  1        2 0.45592640E+00 0.44413019E+02</pdfrwt>
<pdfrwt beam="2">  1       -1 0.31237462E-01 0.10246504E+03</pdfrwt>
<totfact> 0.31637741E+01</totfact>
</mgrwt>
</event>
<event>
 7    1  0.3113530E-004  0.4749420E+03  0.7546771E-02  0.1020535E+00
         -2   -1    0    0    0  501 -0.00000000000E+00  0.00000000000E+00  0.75956174503E+03  0.75956174503E+03  0.00000000000E+00 0.  1.
          1   -1    0    0  503    0  0.00000000000E+00 -0.00000000000E+00 -0.74243446213E+02  0.74243446213E+02  0.00000000000E+00 0. -1.
         25    2    1    2    0    0  0.20282323428E+03  0.66737897075E+02  0.34322711293E+03  0.42311092132E+03  0.12500715749E+03 0.  0.
          4    1    3    3  502    0  0.14806637984E+03  0.33209535739E+02  0.12805618538E+03  0.19856113824E+03  0.12700000000E+01 0.  1.
         -4    1    3    3    0  502  0.54756854436E+02  0.33528361337E+02  0.21517092755E+03  0.22454978308E+03  0.12700000000E+01 0.  1.
          1    1    1    2  503    0 -0.11198056422E+03 -0.61316937761E+02  0.14244494041E+03  0.19128506128E+03  0.00000000000E+00 0. -1.
         -2    1    1    2    0  501 -0.90842670061E+02 -0.54209593143E+01  0.19964624548E+03  0.21940920864E+03  0.00000000000E+00 0.  1.
<mgrwt>
<rscale>  0 0.47494202E+03</rscale>
<asrwt>0</asrwt>
<pdfrwt beam="2">  1        1 0.11422069E-01 0.47494202E+03</pdfrwt>
<pdfrwt beam="1">  1       -2 0.11685565E+00 0.47494202E+03</pdfrwt>
<totfact> 0.27961525E+02</totfact>
</mgrwt>
</event>
<event>
 7    1  0.3113530E-004  0.5003034E+02  0.7546771E-02  0.1477695E+00
         -1   -1    0    0    0  501 -0.00000000000E+00  0.00000000000E+00  0.76598314405E+03  0.76598314405E+03  0.00000000000E+00 0. -1.
          2   -1    0    0  503    0  0.00000000000E+00 -0.00000000000E+00 -0.10268520823E+04  0.10268520823E+04  0.00000000000E+00 0. -1.
         25    2    1    2    0    0  0.24267052667E+02 -0.55052590540E+02 -0.14607507797E+03  0.20145036877E+03  0.12499858041E+03 0.  0.
          4    1    3    3  502    0  0.43372602616E+02  0.12929486782E+02 -0.74705150248E+01  0.45888732613E+02  0.12700000000E+01 0. -1.
         -4    1    3    3    0  502 -0.19105549949E+02 -0.67982077321E+02 -0.13860456295E+03  0.15556163616E+03  0.12700000000E+01 0. -1.
          2    1    1    2  503    0  0.14614243542E+02  0.47960798194E+02 -0.85182275565E+03  0.85329702995E+03  0.00000000000E+00 0. -1.
         -1    1    1    2    0  501 -0.38881296208E+02  0.70917923457E+01  0.73702889535E+03  0.73808782763E+03  0.00000000000E+00 0. -1.
<mgrwt>
<rscale>  0 0.44467259E+02</rscale>
<asrwt>0</asrwt>
<pdfrwt beam="2">  1        2 0.15797724E+00 0.50030336E+02</pdfrwt>
<pdfrwt beam="1">  1       -1 0.11784356E+00 0.39522762E+02</pdfrwt>
<totfact> 0.24352222E+01</totfact>
</mgrwt>
</event>
<event>
 7    1  0.3113530E-004  0.1712565E+03  0.7546771E-02  0.1337464E+00
          1   -1    0    0  503    0 -0.00000000000E+00  0.00000000000E+00  0.10382246691E+04  0.10382246691E+04  0.00000000000E+00 0. -1.
          2   -1    0    0  502    0  0.00000000000E+00 -0.00000000000E+00 -0.10149430721E+04  0.10149430721E+04  0.00000000000E+00 0.  1.
         25    2    1    2    0    0 -0.11675367018E+03  0.73062642429E+02 -0.64492216930E+03  0.67120735956E+03  0.12500058342E+03 0.  0.
          4    1    3    3  501    0  0.11553272930E+02  0.44899052192E+02 -0.93732382053E+02  0.10457903876E+03  0.12700000000E+01 0.  1.
         -4    1    3    3    0  501 -0.12830694311E+03  0.28163590237E+02 -0.55118978725E+03  0.56662832080E+03  0.12700000000E+01 0.  1.
          2    1    1    2  502    0 -0.33008112810E+02  0.10761049058E+02 -0.34882697144E+03  0.35055041249E+03  0.00000000000E+00 0.  1.
          1    1    1    2  503    0  0.14976178299E+03 -0.83823691487E+02  0.10170307378E+04  0.10314099692E+04  0.00000000000E+00 0. -1.
<mgrwt>
<rscale>  0 0.77108201E+02</rscale>
<asrwt>0</asrwt>
<pdfrwt beam="2">  1        2 0.15614509E+00 0.34717945E+02</pdfrwt>
<pdfrwt beam="1">  1        1 0.15972687E+00 0.17125653E+03</pdfrwt>
<totfact> 0.60725511E+01</totfact>
</mgrwt>
</event>
<event>
 7    1  0.3113530E-004  0.2532794E+03  0.7546771E-02  0.1128916E+00
          1   -1    0    0  503    0 -0.00000000000E+00  0.00000000000E+00  0.85647138516E+03  0.85647138516E+03  0.00000000000E+00 0. -1.
          2   -1    0    0  502    0  0.00000000000E+00 -0.00000000000E+00 -0.10514504609E+04  0.10514504609E+04  0.00000000000E+00 0. -1.
         25    2    1    2    0    0  0.19287047210E+03 -0.31979178358E+03  0.69026801057E+02  0.39981932365E+03  0.12499995377E+03 0.  0.
          4    1    3    3  501    0  0.50442805814E+02 -0.95789995113E+01  0.19303116446E+02  0.54867632485E+02  0.12700000000E+01 0. -1.
         -4    1    3    3    0  501  0.14242766628E+03 -0.31021278407E+03  0.49723684611E+02  0.34495169116E+03  0.12700000000E+01 0. -1.
          2    1    1    2  502    0 -0.18747468837E+03  0.78067722156E+02 -0.85013924666E+03  0.87405838863E+03  0.00000000000E+00 0. -1.
          1    1    1    2  503    0 -0.53957837248E+01  0.24172406142E+03  0.58613336984E+03  0.63404413379E+03  0.00000000000E+00 0. -1.
<mgrwt>
<rscale>  0 0.22679482E+03</rscale>
<asrwt>0</asrwt>
<pdfrwt beam="2">  1        2 0.16176161E+00 0.20307961E+03</pdfrwt>
<pdfrwt beam="1">  1        1 0.13176483E+00 0.25327945E+03</pdfrwt>
<totfact> 0.70871310E+01</totfact>
</mgrwt>
</event>
<event>
 7    1  0.1143589E-003  0.1030252E+03  0.7546771E-02  0.1327015E+00
         -2   -1    0    0    0  501 -0.00000000000E+00  0.00000000000E+00  0.19227972371E+03  0.19227972371E+03  0.00000000000E+00 0.  1.
          1   -1    0    0  503    0  0.00000000000E+00 -0.00000000000E+00 -0.17855803838E+03  0.17855803838E+03  0.00000000000E+00 0. -1.
         25    2    1    2    0    0 -0.60121697621E+02  0.14056333768E+03 -0.24501259154E+01  0.19748795723E+03  0.12499127853E+03 0.  0.
          4    1    3    3  502    0 -0.46708520581E+02  0.13945550027E+03  0.40426943779E+02  0.15253023678E+03  0.12700000000E+01 0. -1.
         -4    1    3    3    0  502 -0.13413177040E+02  0.11078374075E+01 -0.42877069694E+02  0.44957720445E+02  0.12700000000E+01 0. -1.
          1    1    1    2  503    0  0.22270122640E+02 -0.59196713865E+02 -0.32662268322E+02  0.71183095373E+02  0.00000000000E+00 0. -1.
         -2    1    1    2    0  501  0.37851574981E+02 -0.81366623812E+02  0.48834079567E+02  0.10216670948E+03  0.00000000000E+00 0.  1.
<mgrwt>
<rscale>  0 0.80722094E+02</rscale>
<asrwt>0</asrwt>
<pdfrwt beam="2">  1        1 0.27470468E-01 0.63247208E+02</pdfrwt>
<pdfrwt beam="1">  1       -2 0.29581496E-01 0.10302520E+03</pdfrwt>
<totfact> 0.14921864E+03</totfact>
</mgrwt>
</event>
<event>
 7    1  0.3113530E-004  0.8530238E+02  0.7546771E-02  0.1327410E+00
          2   -1    0    0  503    0  0.00000000000E+00  0.00000000000E+00  0.18839198174E+04  0.18839198174E+04  0.00000000000E+00 0. -1.
         -2   -1    0    0    0  501 -0.00000000000E+00 -0.00000000000E+00 -0.19832215985E+02  0.19832215985E+02  0.00000000000E+00 0.  1.
         25    2    1    2    0    0  0.64207213765E+02  0.28125650003E+02  0.12511827796E+04  0.12593607381E+04  0.12497000583E+03 0.  0.
          4    1    3    3  502    0  0.10046124476E+03  0.12602650668E+02  0.99772305092E+03  0.10028480382E+04  0.12700000000E+01 0. -1.
         -4    1    3    3    0  502 -0.36254030997E+02  0.15522999335E+02  0.25345972864E+03  0.25651269991E+03  0.12700000000E+01 0. -1.
          2    1    1    2  503    0  0.13668801850E+02 -0.74884197363E+02  0.46221429582E+03  0.46844053456E+03  0.00000000000E+00 0. -1.
         -2    1    1    2    0  501 -0.77876015614E+02  0.46758547360E+02  0.15069052608E+03  0.17595076075E+03  0.00000000000E+00 0.  1.
<mgrwt>
<rscale>  0 0.80581283E+02</rscale>
<asrwt>0</asrwt>
<pdfrwt beam="1">  1        2 0.28983368E+00 0.76121476E+02</pdfrwt>
<pdfrwt beam="2">  1       -2 0.30511117E-02 0.85302381E+02</pdfrwt>
<totfact> 0.35470801E+03</totfact>
</mgrwt>
</event>
<event>
 7    1  0.3113530E-004  0.4962727E+02  0.7546771E-02  0.1491665E+00
         -3   -1    0    0    0  501 -0.00000000000E+00  0.00000000000E+00  0.18827497701E+03  0.18827497701E+03  0.00000000000E+00 0.  1.
          2   -1    0    0  503    0  0.00000000000E+00 -0.00000000000E+00 -0.83671564333E+03  0.83671564333E+03  0.00000000000E+00 0. -1.
         25    2    1    2    0    0 -0.69497924228E+02  0.44793586589E+02 -0.14790290445E+03  0.21054750066E+03  0.12497421341E+03 0.  0.
          4    1    3    3  502    0  0.34321895277E+02  0.27185151975E+02 -0.34234313375E+02  0.55593399748E+02  0.12700000000E+01 0. -1.
         -4    1    3    3    0  502 -0.10381981950E+03  0.17608434614E+02 -0.11366859108E+03  0.15495410091E+03  0.12700000000E+01 0. -1.
          2    1    1    2  503    0  0.23833822003E+02 -0.27144239836E+02 -0.65316163717E+03  0.65415975503E+03  0.00000000000E+00 0. -1.
         -3    1    1    2    0  501  0.45664102225E+02 -0.17649346753E+02  0.15262387530E+03  0.16028336466E+03  0.00000000000E+00 0.  1.
<mgrwt>
<rscale>  0 0.42340038E+02</rscale>
<asrwt>0</asrwt>
<pdfrwt beam="2">  1        2 0.12872548E+00 0.36122857E+02</pdfrwt>
<pdfrwt beam="1">  1       -3 0.28965381E-01 0.49627271E+02</pdfrwt>
<totfact> 0.23093980E+02</totfact>
</mgrwt>
</event>
<event>
 7    1  0.3113530E-004  0.1188937E+03  0.7546771E-02  0.1433361E+00
          2   -1    0    0  503    0  0.00000000000E+00  0.00000000000E+00  0.21453149913E+03  0.21453149913E+03  0.00000000000E+00 0. -1.
          2   -1    0    0  502    0 -0.00000000000E+00 -0.00000000000E+00 -0.13450634695E+04  0.13450634695E+04  0.00000000000E+00 0. -1.
         25    2    1    2    0    0 -0.10017378074E+03 -0.32234773589E+02 -0.47736872066E+03  0.50455848652E+03  0.12499801552E+03 0.  0.
          4    1    3    3  501    0 -0.94697892854E+02  0.17074586430E+02 -0.40843025851E+03  0.41961425307E+03  0.12700000000E+01 0.  1.
         -4    1    3    3    0  501 -0.54758878870E+01 -0.49309360019E+02 -0.68938462150E+02  0.84944233455E+02  0.12700000000E+01 0.  1.
          2    1    1    2  502    0 -0.61571013576E+01 -0.22159052662E+02 -0.83617971419E+03  0.83649593420E+03  0.00000000000E+00 0. -1.
          2    1    1    2  503    0  0.10633088210E+03  0.54393826251E+02  0.18301646446E+03  0.21854054792E+03  0.00000000000E+00 0. -1.
<mgrwt>
<rscale>  0 0.52291325E+02</rscale>
<asrwt>0</asrwt>
<pdfrwt beam="1">  1        2 0.33004846E-01 0.11889368E+03</pdfrwt>
<pdfrwt beam="2">  1        2 0.20693284E+00 0.22998555E+02</pdfrwt>
<totfact> 0.48126076E+02</totfact>
</mgrwt>
</event>
<event>
 7    1  0.3113530E-004  0.6643171E+02  0.7546771E-02  0.1407366E+00
          3   -1    0    0  503    0 -0.00000000000E+00  0.00000000000E+00  0.15452854680E+02  0.15452854680E+02  0.00000000000E+00 0. -1.
          2   -1    0    0  502    0  0.00000000000E+00 -0.00000000000E+00 -0.45815049803E+04  0.45815049803E+04  0.00000000000E+00 0. -1.
         25    2    1    2    0    0  0.18155781075E+02  0.11642764230E+02 -0.12059906920E+04  0.12126433703E+04  0.12500083184E+03 0.  0.
          4    1    3    3  501    0 -0.17336044691E+01 -0.56141258438E+02 -0.52580815943E+03  0.52880117219E+03  0.12700000000E+01 0. -1.
         -4    1    3    3    0  501  0.19889385544E+02  0.67784022668E+02 -0.68018253255E+03  0.68384219807E+03  0.12700000000E+01 0. -1.
          2    1    1    2  502    0 -0.55937349315E+02 -0.44795787535E+02 -0.33179966422E+04  0.33187704602E+04  0.00000000000E+00 0. -1.
          3    1    1    2  503    0  0.37781568240E+02  0.33153023304E+02 -0.42064791436E+02  0.65544004543E+02  0.00000000000E+00 0. -1.
<mgrwt>
<rscale>  0 0.57785722E+02</rscale>
<asrwt>0</asrwt>
<pdfrwt beam="2">  1        2 0.70484672E+00 0.66431709E+02</pdfrwt>
<pdfrwt beam="1">  1        3 0.23773629E-02 0.50264996E+02</pdfrwt>
<totfact> 0.71772698E+01</totfact>
</mgrwt>
</event>
<event>
 7    1  0.3113530E-004  0.5751154E+02  0.7546771E-02  0.1557383E+00
          2   -1    0    0  502    0  0.00000000000E+00  0.00000000000E+00  0.28699126496E+04  0.28699126496E+04  0.00000000000E+00 0. -1.
          3   -1    0    0  503    0 -0.00000000000E+00 -0.00000000000E+00 -0.89365369690E+02  0.89365369690E+02  0.00000000000E+00 0. -1.
         25    2    1    2    0    0  0.30026418510E+02 -0.23923066569E+02  0.39316188108E+03  0.41433725098E+03  0.12500077556E+03 0.  0.
          4    1    3    3  501    0  0.20286979921E+02 -0.25489027650E+01  0.13597501806E-01  0.20485886471E+02  0.12700000000E+01 0. -1.
         -4    1    3    3    0  501  0.97394385890E+01 -0.21374163804E+02  0.39314828358E+03  0.39385136451E+03  0.12700000000E+01 0. -1.
          2    1    1    2  502    0 -0.42275966720E+02  0.39904913169E+02  0.24645279207E+04  0.24652134860E+04  0.00000000000E+00 0. -1.
          3    1    1    2  503    0  0.12249548211E+02 -0.15981846600E+02 -0.77142521929E+02  0.79727282292E+02  0.00000000000E+00 0. -1.
<mgrwt>
<rscale>  0 0.34030428E+02</rscale>
<asrwt>0</asrwt>
<pdfrwt beam="1">  1        2 0.44152495E+00 0.57511541E+02</pdfrwt>
<pdfrwt beam="2">  1        3 0.13748521E-01 0.20136307E+02</pdfrwt>
<totfact> 0.62126188E+01</totfact>
</mgrwt>
</event>
<event>
 7    1  0.3113530E-004  0.9180473E+02  0.7546771E-02  0.1413012E+00
          1   -1    0    0  502    0  0.00000000000E+00  0.00000000000E+00  0.79469521509E+03  0.79469521509E+03  0.00000000000E+00 0. -1.
          3   -1    0    0  503    0 -0.00000000000E+00 -0.00000000000E+00 -0.54654862939E+02  0.54654862939E+02  0.00000000000E+00 0.  1.
         25    2    1    2    0    0  0.54283420771E+02  0.11087548612E+03  0.50494846563E+03  0.53463679408E+03  0.12499394168E+03 0.  0.
          4    1    3    3  501    0  0.58106592851E+02  0.89451554059E+02  0.18203904618E+03  0.21099237875E+03  0.12700000000E+01 0.  1.
         -4    1    3    3    0  501 -0.38231720797E+01  0.21423932058E+02  0.32290941945E+03  0.32364441534E+03  0.12700000000E+01 0.  1.
          1    1    1    2  502    0 -0.13897858678E+02 -0.31910582318E+02  0.22241146428E+03  0.22511840259E+03  0.00000000000E+00 0. -1.
          3    1    1    2  503    0 -0.40385562093E+02 -0.78964903798E+02  0.12680422244E+02  0.89594881359E+02  0.00000000000E+00 0.  1.
<mgrwt>
<rscale>  0 0.56527220E+02</rscale>
<asrwt>0</asrwt>
<pdfrwt beam="1">  1        1 0.12226079E+00 0.34805685E+02</pdfrwt>
<pdfrwt beam="2">  1        3 0.84084410E-02 0.91804731E+02</pdfrwt>
<totfact> 0.12585004E+03</totfact>
</mgrwt>
</event>
<event>
 7    1  0.3113530E-004  0.1007175E+03  0.7546771E-02  0.1288012E+00
          2   -1    0    0  503    0  0.00000000000E+00  0.00000000000E+00  0.15045237164E+04  0.15045237164E+04  0.00000000000E+00 0. -1.
          2   -1    0    0  502    0 -0.00000000000E+00 -0.00000000000E+00 -0.10030949355E+04  0.10030949355E+04  0.00000000000E+00 0. -1.
         25    2    1    2    0    0  0.18099238378E+02  0.42590808867E+01  0.33943304354E+03  0.36219568874E+03  0.12500081478E+03 0.  0.
          4    1    3    3  501    0  0.10716453355E+02 -0.59604938423E+02  0.13695944921E+03  0.14975678510E+03  0.12700000000E+01 0. -1.
         -4    1    3    3    0  501  0.73827850226E+01  0.63864019310E+02  0.20247359433E+03  0.21243890363E+03  0.12700000000E+01 0. -1.
          2    1    1    2  502    0 -0.74365163072E+02  0.68912480809E+02 -0.98726715224E+03  0.99245933790E+03  0.00000000000E+00 0. -1.
          2    1    1    2  503    0  0.56265924694E+02 -0.73171561696E+02  0.11492628896E+04  0.11529636253E+04  0.00000000000E+00 0. -1.
<mgrwt>
<rscale>  0 0.96418744E+02</rscale>
<asrwt>0</asrwt>
<pdfrwt beam="1">  1        2 0.23146519E+00 0.92303476E+02</pdfrwt>
<pdfrwt beam="2">  1        2 0.15432230E+00 0.10071749E+03</pdfrwt>
<totfact> 0.63521334E+01</totfact>
</mgrwt>
</event>
<event>
 7    1  0.3113530E-004  0.6562654E+02  0.7546771E-02  0.1480282E+00
          1   -1    0    0  503    0  0.00000000000E+00  0.00000000000E+00  0.84017723361E+02  0.84017723361E+02  0.00000000000E+00 0. -1.
         -1   -1    0    0    0  501 -0.00000000000E+00 -0.00000000000E+00 -0.26231651967E+03  0.26231651967E+03  0.00000000000E+00 0.  1.
         25    2    1    2    0    0 -0.66472828048E+02  0.33636585685E+02 -0.17058939779E+03  0.22422187568E+03  0.12499860051E+03 0.  0.
          4    1    3    3  502    0 -0.13466707656E+02 -0.67813992977E+01 -0.15502187814E+03  0.15575857984E+03  0.12700000000E+01 0.  1.
         -4    1    3    3    0  502 -0.53006120392E+02  0.40417984982E+02 -0.15567519651E+02  0.68463295839E+02  0.12700000000E+01 0.  1.
          1    1    1    2  503    0  0.65144100060E+02 -0.40826266197E+01  0.31919669605E+02  0.72658701616E+02  0.00000000000E+00 0. -1.
         -1    1    1    2    0  501  0.13287279881E+01 -0.29553959065E+02 -0.39629068118E+02  0.49453665733E+02  0.00000000000E+00 0.  1.
<mgrwt>
<rscale>  0 0.44062265E+02</rscale>
<asrwt>0</asrwt>
<pdfrwt beam="1">  1        1 0.12925804E-01 0.65626537E+02</pdfrwt>
<pdfrwt beam="2">  1       -1 0.40356387E-01 0.29583813E+02</pdfrwt>
<totfact> 0.25361637E+03</totfact>
</mgrwt>
</event>
<event>
 7    1  0.3113530E-004  0.4921678E+02  0.7546771E-02  0.1569309E+00
         -2   -1    0    0    0  501 -0.00000000000E+00  0.00000000000E+00  0.46333515295E+02  0.46333515295E+02  0.00000000000E+00 0.  1.
          2   -1    0    0  503    0  0.00000000000E+00 -0.00000000000E+00 -0.21950935020E+04  0.21950935020E+04  0.00000000000E+00 0. -1.
         25    2    1    2    0    0 -0.55489580666E+02  0.41593063149E+02 -0.46235989230E+03  0.48395347637E+03  0.12500088330E+03 0.  0.
          4    1    3    3  502    0 -0.53159228474E+02  0.64517332749E+02 -0.15832623726E+03  0.17904524597E+03  0.12700000000E+01 0. -1.
         -4    1    3    3    0  502 -0.23303521919E+01 -0.22924269600E+02 -0.30403365503E+03  0.30490823041E+03  0.12700000000E+01 0. -1.
          2    1    1    2  503    0  0.41997073281E+02 -0.24439597264E+02 -0.17182099698E+04  0.17188968987E+04  0.00000000000E+00 0. -1.
         -2    1    1    2    0  501  0.13492507386E+02 -0.17153465886E+02  0.31809875423E+02  0.38576642179E+02  0.00000000000E+00 0.  1.
<mgrwt>
<rscale>  0 0.32773609E+02</rscale>
<asrwt>0</asrwt>
<pdfrwt beam="2">  1        2 0.33770670E+00 0.49216779E+02</pdfrwt>
<pdfrwt beam="1">  1       -2 0.71282329E-02 0.21824050E+02</pdfrwt>
<totfact> 0.64866277E+02</totfact>
</mgrwt>
</event>
<event>
 7    1  0.3113530E-004  0.1034317E+03  0.7546771E-02  0.1409733E+00
         -1   -1    0    0    0  501 -0.00000000000E+00  0.00000000000E+00  0.12607016889E+03  0.12607016889E+03  0.00000000000E+00 0.  1.
          2   -1    0    0  503    0  0.00000000000E+00 -0.00000000000E+00 -0.44743708324E+03  0.44743708324E+03  0.00000000000E+00 0. -1.
         25    2    1    2    0    0 -0.68354727322E+02 -0.10738732317E+03 -0.37365871524E+03  0.41406753238E+03  0.12500671970E+03 0.  0.
          4    1    3    3  502    0 -0.72456725854E+02 -0.13310152760E+03 -0.30379639971E+03  0.33949942437E+03  0.12700000000E+01 0. -1.
         -4    1    3    3    0  502  0.41019985316E+01  0.25714204424E+02 -0.69862315529E+02  0.74568108010E+02  0.12700000000E+01 0. -1.
          2    1    1    2  503    0  0.28662003325E+02  0.13523120589E+02 -0.17230299090E+02  0.36073098450E+02  0.00000000000E+00 0. -1.
         -1    1    1    2    0  501  0.39692723997E+02  0.93864202586E+02  0.69522099985E+02  0.12336662130E+03  0.00000000000E+00 0.  1.
<mgrwt>
<rscale>  0 0.57253485E+02</rscale>
<asrwt>0</asrwt>
<pdfrwt beam="2">  1        2 0.68836475E-01 0.31692037E+02</pdfrwt>
<pdfrwt beam="1">  1       -1 0.19395411E-01 0.10343171E+03</pdfrwt>
<totfact> 0.16821859E+03</totfact>
</mgrwt>
</event>
<event>
 7    1  0.3113530E-004  0.1015881E+03  0.7546771E-02  0.1306369E+00
          2   -1    0    0  503    0  0.00000000000E+00  0.00000000000E+00  0.13584593383E+04  0.13584593383E+04  0.00000000000E+00 0. -1.
          2   -1    0    0  502    0 -0.00000000000E+00 -0.00000000000E+00 -0.86265688504E+03  0.86265688504E+03  0.00000000000E+00 0. -1.
         25    2    1    2    0    0  0.80432431606E+02 -0.43039269371E+02  0.87975557848E+02  0.17800714990E+03  0.12500036750E+03 0.  0.
          4    1    3    3  501    0  0.97716525622E+02  0.99148448838E+00  0.86741864281E+02  0.13067236257E+03  0.12700000000E+01 0.  1.
         -4    1    3    3    0  501 -0.17284094016E+02 -0.44030753859E+02  0.12336935665E+01  0.47334787326E+02  0.12700000000E+01 0.  1.
          2    1    1    2  502    0 -0.97291880532E+02 -0.32305316485E+02 -0.81320370057E+03  0.81963992223E+03  0.00000000000E+00 0. -1.
          2    1    1    2  503    0  0.16859448926E+02  0.75344585856E+02  0.12210305960E+04  0.12234691512E+04  0.00000000000E+00 0. -1.
<mgrwt>
<rscale>  0 0.88562965E+02</rscale>
<asrwt>0</asrwt>
<pdfrwt beam="1">  1        2 0.20899375E+00 0.77207821E+02</pdfrwt>
<pdfrwt beam="2">  1        2 0.13271644E+00 0.10158814E+03</pdfrwt>
<totfact> 0.93271266E+01</totfact>
</mgrwt>
</event>
<event>
 7    1  0.3113530E-004  0.1057906E+03  0.7546771E-02  0.1390904E+00
         -1   -1    0    0    0  501 -0.00000000000E+00  0.00000000000E+00  0.27467769406E+02  0.27467769406E+02  0.00000000000E+00 0.  1.
          2   -1    0    0  503    0  0.00000000000E+00 -0.00000000000E+00 -0.92843045541E+03  0.92843045541E+03  0.00000000000E+00 0. -1.
         25    2    1    2    0    0  0.54735494494E+02  0.10621038733E+03 -0.53542697471E+03  0.56266136702E+03  0.12501659070E+03 0.  0.
          4    1    3    3  502    0  0.22384624016E+02  0.54456712453E+02 -0.46805718229E+03  0.47174754236E+03  0.12700000000E+01 0. -1.
         -4    1    3    3    0  502  0.32350870478E+02  0.51753674876E+02 -0.67369792421E+02  0.90913824662E+02  0.12700000000E+01 0. -1.
          2    1    1    2  503    0 -0.68083567817E+02 -0.72814503211E+02 -0.32025611883E+03  0.33541214309E+03  0.00000000000E+00 0. -1.
         -1    1    1    2    0  501  0.13348073324E+02 -0.33395884118E+02 -0.45279592459E+02  0.57824714705E+02  0.00000000000E+00 0.  1.
<mgrwt>
<rscale>  0 0.61682441E+02</rscale>
<asrwt>0</asrwt>
<pdfrwt beam="2">  1        2 0.14283544E+00 0.10579064E+03</pdfrwt>
<pdfrwt beam="1">  1       -1 0.42258112E-02 0.35964651E+02</pdfrwt>
<totfact> 0.63458955E+03</totfact>
</mgrwt>
</event>
<event>
 7    1  0.3113530E-004  0.1174906E+03  0.7546771E-02  0.1291982E+00
          2   -1    0    0  503    0  0.00000000000E+00  0.00000000000E+00  0.53878867786E+03  0.53878867786E+03  0.00000000000E+00 0. -1.
         -2   -1    0    0    0  501 -0.00000000000E+00 -0.00000000000E+00 -0.67119335682E+03  0.67119335682E+03  0.00000000000E+00 0. -1.
         25    2    1    2    0    0 -0.99076833064E+02 -0.60682899486E+02 -0.13708602458E+03  0.21890049510E+03  0.12500486182E+03 0.  0.
          4    1    3    3  502    0 -0.12572623218E+03 -0.43418374234E+02 -0.84909688746E+02  0.15780845612E+03  0.12700000000E+01 0. -1.
         -4    1    3    3    0  502  0.26649399119E+02 -0.17264525252E+02 -0.52176335833E+02  0.61092038979E+02  0.12700000000E+01 0. -1.
          2    1    1    2  503    0  0.55173576604E+02 -0.52614134033E+02  0.48738921004E+03  0.49331593601E+03  0.00000000000E+00 0. -1.
         -2    1    1    2    0  501  0.43903256460E+02  0.11329703352E+03 -0.48270786442E+03  0.49776560357E+03  0.00000000000E+00 0. -1.
<mgrwt>
<rscale>  0 0.94643292E+02</rscale>
<asrwt>0</asrwt>
<pdfrwt beam="1">  1        2 0.82890566E-01 0.76238905E+02</pdfrwt>
<pdfrwt beam="2">  1       -2 0.10326052E+00 0.11749057E+03</pdfrwt>
<totfact> 0.48343019E+01</totfact>
</mgrwt>
</event>
<event>
 7    1  0.3113530E-004  0.6872361E+02  0.7546771E-02  0.1473852E+00
         -3   -1    0    0    0  501 -0.00000000000E+00  0.00000000000E+00  0.11531761454E+02  0.11531761454E+02  0.00000000000E+00 0.  1.
          3   -1    0    0  503    0  0.00000000000E+00 -0.00000000000E+00 -0.16155933375E+04  0.16155933375E+04  0.00000000000E+00 0. -1.
         25    2    1    2    0    0 -0.13956013832E+02  0.46347509402E+02 -0.12853218213E+04  0.12922925372E+04  0.12499982202E+03 0.  0.
          4    1    3    3  502    0  0.51262661145E+02 -0.29757972470E+01 -0.42501941346E+03  0.42811193690E+03  0.12700000000E+01 0. -1.
         -4    1    3    3    0  502 -0.65218674977E+02  0.49323306649E+02 -0.86030240782E+03  0.86418060031E+03  0.12700000000E+01 0. -1.
          3    1    1    2  503    0 -0.26006894051E+02  0.14069829768E+02 -0.10882949197E+03  0.11277489512E+03  0.00000000000E+00 0. -1.
         -3    1    1    2    0  501  0.39962907883E+02 -0.60417339170E+02 -0.20991026276E+03  0.22205766659E+03  0.00000000000E+00 0.  1.
<mgrwt>
<rscale>  0 0.45078599E+02</rscale>
<asrwt>0</asrwt>
<pdfrwt beam="2">  1        3 0.24855272E+00 0.29568880E+02</pdfrwt>
<pdfrwt beam="1">  1       -3 0.17741179E-02 0.68723607E+02</pdfrwt>
<totfact> 0.21942940E+02</totfact>
</mgrwt>
</event>
<event>
 7    1  0.3113530E-004  0.1174770E+03  0.7546771E-02  0.1296018E+00
          2   -1    0    0  503    0  0.00000000000E+00  0.00000000000E+00  0.57025506180E+03  0.57025506180E+03  0.00000000000E+00 0. -1.
         -1   -1    0    0    0  501 -0.00000000000E+00 -0.00000000000E+00 -0.66686992350E+03  0.66686992350E+03  0.00000000000E+00 0.  1.
         25    2    1    2    0    0 -0.48355399534E+02  0.13132429806E+03  0.60885013902E+02  0.19727221926E+03  0.12500011060E+03 0.  0.
          4    1    3    3  502    0 -0.15406997830E+02  0.12830260336E+03  0.86415651493E+02  0.15546128565E+03  0.12700000000E+01 0. -1.
         -4    1    3    3    0  502 -0.32948401704E+02  0.30216946949E+01 -0.25530637591E+02  0.41810933612E+02  0.12700000000E+01 0. -1.
          2    1    1    2  503    0  0.71606626006E+02 -0.16292170008E+02  0.43229851891E+03  0.43849167968E+03  0.00000000000E+00 0. -1.
         -1    1    1    2    0  501 -0.23251226472E+02 -0.11503212805E+03 -0.58979839452E+03  0.60136108636E+03  0.00000000000E+00 0.  1.
<mgrwt>
<rscale>  0 0.92882303E+02</rscale>
<asrwt>0</asrwt>
<pdfrwt beam="1">  1        2 0.87731548E-01 0.73436664E+02</pdfrwt>
<pdfrwt beam="2">  1       -1 0.10259537E+00 0.11747704E+03</pdfrwt>
<totfact> 0.62575129E+01</totfact>
</mgrwt>
</event>
<event>
 7    1  0.3113530E-004  0.3596603E+02  0.7546771E-02  0.1540839E+00
         -1   -1    0    0    0  501 -0.00000000000E+00  0.00000000000E+00  0.16586632138E+03  0.16586632138E+03  0.00000000000E+00 0.  1.
          1   -1    0    0  503    0  0.00000000000E+00 -0.00000000000E+00 -0.77971762179E+02  0.77971762179E+02  0.00000000000E+00 0. -1.
         25    2    1    2    0    0 -0.22443303285E+01  0.18642507807E+01  0.14403916250E+02  0.12585973041E+03  0.12499874594E+03 0.  0.
          4    1    3    3  502    0 -0.39261513358E+02 -0.88030560297E+01 -0.41590028644E+02  0.57881807239E+02  0.12700000000E+01 0.  1.
         -4    1    3    3    0  502  0.37017183029E+02  0.10667306810E+02  0.55993944894E+02  0.67977923172E+02  0.12700000000E+01 0.  1.
          1    1    1    2  503    0 -0.34193037844E+02  0.11153083332E+02  0.12023758847E+01  0.35986119721E+02  0.00000000000E+00 0. -1.
         -1    1    1    2    0  501  0.36437368173E+02 -0.13017334112E+02  0.72288267062E+02  0.81992233423E+02  0.00000000000E+00 0.  1.
<mgrwt>
<rscale>  0 0.35889634E+02</rscale>
<asrwt>0</asrwt>
<pdfrwt beam="2">  1        1 0.11995656E-01 0.35966027E+02</pdfrwt>
<pdfrwt beam="1">  1       -1 0.25517896E-01 0.35813403E+02</pdfrwt>
<totfact> 0.56770150E+03</totfact>
</mgrwt>
</event>
<event>
 7    1  0.3113530E-004  0.4258615E+02  0.7546771E-02  0.1582878E+00
          3   -1    0    0  503    0 -0.00000000000E+00  0.00000000000E+00  0.23310223699E+02  0.23310223699E+02  0.00000000000E+00 0. -1.
          1   -1    0    0  502    0  0.00000000000E+00 -0.00000000000E+00 -0.13309810804E+04  0.13309810804E+04  0.00000000000E+00 0. -1.
         25    2    1    2    0    0  0.41502923573E+02  0.12509786820E+02 -0.35410548515E+03  0.37801400392E+03  0.12499962046E+03 0.  0.
          4    1    3    3  501    0  0.28008433232E+02  0.43069386721E+02 -0.48753901763E+02  0.70837844700E+02  0.12700000000E+01 0.  1.
         -4    1    3    3    0  501  0.13494490341E+02 -0.30559599901E+02 -0.30535158338E+03  0.30717615922E+03  0.12700000000E+01 0.  1.
          1    1    1    2  502    0 -0.41445980497E+02  0.10675297504E+02 -0.95208335421E+03  0.95304482824E+03  0.00000000000E+00 0. -1.
          3    1    1    2  503    0 -0.56943075843E-01 -0.23185084324E+02 -0.14820173570E+01  0.23232471954E+02  0.00000000000E+00 0. -1.
<mgrwt>
<rscale>  0 0.31422387E+02</rscale>
<asrwt>0</asrwt>
<pdfrwt beam="2">  1        1 0.20476637E+00 0.42586147E+02</pdfrwt>
<pdfrwt beam="1">  1        3 0.35861873E-02 0.23185154E+02</pdfrwt>
<totfact> 0.15409793E+03</totfact>
</mgrwt>
</event>
<event>
 7    1  0.3113530E-004  0.1529268E+03  0.7546771E-02  0.1240662E+00
         -1   -1    0    0    0  501 -0.00000000000E+00  0.00000000000E+00  0.65357660399E+03  0.65357660399E+03  0.00000000000E+00 0.  1.
          2   -1    0    0  503    0  0.00000000000E+00 -0.00000000000E+00 -0.28399780453E+04  0.28399780453E+04  0.00000000000E+00 0. -1.
         25    2    1    2    0    0 -0.96929021803E+02 -0.13408098025E+03  0.42822273021E+03  0.47578520155E+03  0.12499562718E+03 0.  0.
          4    1    3    3  502    0 -0.10334258566E+03 -0.10992119444E+03  0.42445660478E+03  0.45047461775E+03  0.12700000000E+01 0. -1.
         -4    1    3    3    0  502  0.64135638544E+01 -0.24159785803E+02  0.37661254278E+01  0.25310583797E+02  0.12700000000E+01 0. -1.
          2    1    1    2  503    0  0.94512581402E+02 -0.19548071844E+02 -0.27859598856E+04  0.27876311160E+04  0.00000000000E+00 0. -1.
         -1    1    1    2    0  501  0.24164404009E+01  0.15362905209E+03  0.17133571402E+03  0.23013833173E+03  0.00000000000E+00 0.  1.
<mgrwt>
<rscale>  0 0.12148834E+03</rscale>
<asrwt>0</asrwt>
<pdfrwt beam="2">  1        2 0.43691970E+00 0.96512979E+02</pdfrwt>
<pdfrwt beam="1">  1       -1 0.10055025E+00 0.15292677E+03</pdfrwt>
<totfact> 0.35501012E+00</totfact>
</mgrwt>
</event>
<event>
 7    1  0.3113530E-004  0.9360263E+02  0.7546771E-02  0.1328703E+00
          1   -1    0    0  503    0 -0.00000000000E+00  0.00000000000E+00  0.49024069689E+03  0.49024069689E+03  0.00000000000E+00 0. -1.
          2   -1    0    0  502    0  0.00000000000E+00 -0.00000000000E+00 -0.11866036204E+04  0.11866036204E+04  0.00000000000E+00 0. -1.
         25    2    1    2    0    0 -0.57070760610E+02 -0.10452019451E+03  0.46142116506E+02  0.17870769882E+03  0.12500321565E+03 0.  0.
          4    1    3    3  501    0  0.12388157052E+02  0.15089757688E+02 -0.17682711959E+02  0.26371545735E+02  0.12700000000E+01 0.  1.
         -4    1    3    3    0  501 -0.69458917662E+02 -0.11960995220E+03  0.63824828465E+02  0.15233615308E+03  0.12700000000E+01 0.  1.
          2    1    1    2  502    0  0.83872040197E+02  0.41389138883E+02 -0.11152346054E+04  0.11191495901E+04  0.00000000000E+00 0. -1.
          1    1    1    2  503    0 -0.26801279588E+02  0.63131055626E+02  0.37272956538E+03  0.37898702838E+03  0.00000000000E+00 0. -1.
<mgrwt>
<rscale>  0 0.80122988E+02</rscale>
<asrwt>0</asrwt>
<pdfrwt beam="2">  1        2 0.18255440E+00 0.93602631E+02</pdfrwt>
<pdfrwt beam="1">  1        1 0.75421646E-01 0.68584537E+02</pdfrwt>
<totfact> 0.14234577E+02</totfact>
</mgrwt>
</event>
<event>
 7    1  0.3113530E-004  0.4029554E+02  0.7546771E-02  0.1510810E+00
          2   -1    0    0  503    0  0.00000000000E+00  0.00000000000E+00  0.64819117796E+03  0.64819117796E+03  0.00000000000E+00 0. -1.
         -1   -1    0    0    0  501 -0.00000000000E+00 -0.00000000000E+00 -0.20344725840E+02  0.20344725840E+02  0.00000000000E+00 0.  1.
         25    2    1    2    0    0 -0.99020250108E+01  0.38980419867E+01  0.23095460867E+03  0.26282613019E+03  0.12499719443E+03 0.  0.
          4    1    3    3  502    0  0.32421632334E+02 -0.33204670971E+02  0.18323401440E+03  0.18902388566E+03  0.12700000000E+01 0.  1.
         -4    1    3    3    0  502 -0.42323657344E+02  0.37102712958E+02  0.47720594266E+02  0.73802244525E+02  0.12700000000E+01 0.  1.
          2    1    1    2  503    0  0.26559632942E+01 -0.43536724938E+02  0.22069083085E+03  0.22495987060E+03  0.00000000000E+00 0. -1.
         -1    1    1    2    0  501  0.72460617166E+01  0.39638682951E+02  0.17620101261E+03  0.18074990302E+03  0.00000000000E+00 0.  1.
<mgrwt>
<rscale>  0 0.39649016E+02</rscale>
<asrwt>0</asrwt>
<pdfrwt beam="1">  1        2 0.99721704E-01 0.39012865E+02</pdfrwt>
<pdfrwt beam="2">  1       -1 0.31299583E-02 0.40295541E+02</pdfrwt>
<totfact> 0.15652435E+04</totfact>
</mgrwt>
</event>
<event>
 7    1  0.3113530E-004  0.6297748E+02  0.7546771E-02  0.1453611E+00
          2   -1    0    0  503    0  0.00000000000E+00  0.00000000000E+00  0.47876343494E+03  0.47876343494E+03  0.00000000000E+00 0. -1.
         -1   -1    0    0    0  501 -0.00000000000E+00 -0.00000000000E+00 -0.43634067028E+02  0.43634067028E+02  0.00000000000E+00 0.  1.
         25    2    1    2    0    0  0.21848739279E+01  0.67729280664E+02  0.13793440354E+03  0.19809808203E+03  0.12499968516E+03 0.  0.
          4    1    3    3  502    0  0.47058981116E+01  0.98930334492E+02  0.64339098031E+02  0.11811218817E+03  0.12700000000E+01 0. -1.
         -4    1    3    3    0  502 -0.25210241837E+01 -0.31201053828E+02  0.73595305513E+02  0.79985893859E+02  0.12700000000E+01 0. -1.
          2    1    1    2  503    0  0.34247482070E+02 -0.14901381664E+02  0.22341804135E+03  0.22651834894E+03  0.00000000000E+00 0. -1.
         -1    1    1    2    0  501 -0.36432355998E+02 -0.52827899000E+02  0.73776923020E+02  0.97781071004E+02  0.00000000000E+00 0.  1.
<mgrwt>
<rscale>  0 0.48498871E+02</rscale>
<asrwt>0</asrwt>
<pdfrwt beam="1">  1        2 0.73655909E-01 0.37348912E+02</pdfrwt>
<pdfrwt beam="2">  1       -1 0.67129337E-02 0.62977485E+02</pdfrwt>
<totfact> 0.76203545E+03</totfact>
</mgrwt>
</event>
<event>
 7    1  0.3113530E-004  0.9537921E+02  0.7546771E-02  0.1449221E+00
         -2   -1    0    0    0  501 -0.00000000000E+00  0.00000000000E+00  0.33190300044E+03  0.33190300044E+03  0.00000000000E+00 0.  1.
          2   -1    0    0  503    0  0.00000000000E+00 -0.00000000000E+00 -0.64035773870E+02  0.64035773870E+02  0.00000000000E+00 0. -1.
         25    2    1    2    0    0  0.68293534338E+02  0.68823602399E+02  0.16365464795E+03  0.22761512630E+03  0.12500042739E+03 0.  0.
          4    1    3    3  502    0  0.31822073274E+02 -0.14973105907E+02 -0.52363689870E+01  0.35579076831E+02  0.12700000000E+01 0.  1.
         -4    1    3    3    0  502  0.36471461064E+02  0.83796708306E+02  0.16889101693E+03  0.19203604947E+03  0.12700000000E+01 0.  1.
          2    1    1    2  503    0  0.14550923703E+02 -0.20904100842E+02 -0.17608709826E+01  0.25530598881E+02  0.00000000000E+00 0. -1.
         -2    1    1    2    0  501 -0.82844458041E+02 -0.47919501557E+02  0.10597344960E+03  0.14279304912E+03  0.00000000000E+00 0.  1.
<mgrwt>
<rscale>  0 0.49287823E+02</rscale>
<asrwt>0</asrwt>
<pdfrwt beam="2">  1        2 0.98516577E-02 0.25469802E+02</pdfrwt>
<pdfrwt beam="1">  1       -2 0.51061999E-01 0.95379208E+02</pdfrwt>
<totfact> 0.20500008E+03</totfact>
</mgrwt>
</event>
<event>
 7    1  0.3113530E-004  0.6393082E+02  0.7546771E-02  0.1474877E+00
         -2   -1    0    0    0  501 -0.00000000000E+00  0.00000000000E+00  0.55167182366E+02  0.55167182366E+02  0.00000000000E+00 0.  1.
          1   -1    0    0  503    0  0.00000000000E+00 -0.00000000000E+00 -0.31886446370E+03  0.31886446370E+03  0.00000000000E+00 0. -1.
         25    2    1    2    0    0  0.43166083158E+02  0.66304823088E+02 -0.22264299023E+03  0.26731027701E+03  0.12500097119E+03 0.  0.
          4    1    3    3  502    0 -0.35069672068E+02  0.56823461375E+02 -0.78856474214E+02  0.10333800892E+03  0.12700000000E+01 0. -1.
         -4    1    3    3    0  502  0.78235755226E+02  0.94813617128E+01 -0.14378651602E+03  0.16397226809E+03  0.12700000000E+01 0. -1.
          1    1    1    2  503    0 -0.44492276195E+02 -0.34778218386E+02 -0.48340779484E+02  0.74336519129E+02  0.00000000000E+00 0. -1.
         -2    1    1    2    0  501  0.13261930373E+01 -0.31526604702E+02  0.72864883771E+01  0.32384849928E+02  0.00000000000E+00 0.  1.
<mgrwt>
<rscale>  0 0.44914411E+02</rscale>
<asrwt>0</asrwt>
<pdfrwt beam="2">  1        1 0.49056072E-01 0.63930823E+02</pdfrwt>
<pdfrwt beam="1">  1       -2 0.84872587E-02 0.31554486E+02</pdfrwt>
<totfact> 0.51971237E+03</totfact>
</mgrwt>
</event>
<event>
 7    1  0.3113530E-004  0.2751075E+03  0.7546771E-02  0.1269076E+00
          1   -1    0    0  503    0 -0.00000000000E+00  0.00000000000E+00  0.44014285080E+03  0.44014285080E+03  0.00000000000E+00 0. -1.
          2   -1    0    0  502    0  0.00000000000E+00 -0.00000000000E+00 -0.51055257143E+03  0.51055257143E+03  0.00000000000E+00 0.  1.
         25    2    1    2    0    0  0.25211768116E+03 -0.17619832467E+03 -0.16160404524E+03  0.36925667050E+03  0.12500178597E+03 0.  0.
          4    1    3    3  501    0  0.69820168236E+02 -0.10804602374E+03 -0.23917064505E+02  0.13085273406E+03  0.12700000000E+01 0.  1.
         -4    1    3    3    0  501  0.18229751293E+03 -0.68152300932E+02 -0.13768698074E+03  0.23840393643E+03  0.12700000000E+01 0.  1.
          2    1    1    2  502    0 -0.37877041726E+02  0.14286955819E+02 -0.18902935586E+03  0.19331550578E+03  0.00000000000E+00 0.  1.
          1    1    1    2  503    0 -0.21424063944E+03  0.16191136885E+03  0.28022368048E+03  0.38812324595E+03  0.00000000000E+00 0. -1.
<mgrwt>
<rscale>  0 0.10553143E+03</rscale>
<asrwt>0</asrwt>
<pdfrwt beam="2">  1        2 0.78546549E-01 0.40481939E+02</pdfrwt>
<pdfrwt beam="1">  1        1 0.67714285E-01 0.27510746E+03</pdfrwt>
<totfact> 0.45608129E+02</totfact>
</mgrwt>
</event>
<event>
 7    1  0.3113530E-004  0.5807015E+02  0.7546771E-02  0.1494059E+00
          3   -1    0    0  503    0 -0.00000000000E+00  0.00000000000E+00  0.46387011566E+03  0.46387011566E+03  0.00000000000E+00 0. -1.
          2   -1    0    0  502    0  0.00000000000E+00 -0.00000000000E+00 -0.71060768199E+03  0.71060768199E+03  0.00000000000E+00 0.  1.
         25    2    1    2    0    0  0.20571899332E+02  0.31353742522E+02 -0.44343396475E+03  0.46223678722E+03  0.12499162433E+03 0.  0.
          4    1    3    3  501    0  0.53576259619E+02  0.14838788611E+02 -0.40550666645E+03  0.40930169152E+03  0.12700000000E+01 0. -1.
         -4    1    3    3    0  501 -0.33004360288E+02  0.16514953910E+02 -0.37927298296E+02  0.52935095699E+02  0.12700000000E+01 0. -1.
          2    1    1    2  502    0 -0.37041200927E+02 -0.56861266150E+02 -0.25278485848E+03  0.26173543671E+03  0.00000000000E+00 0.  1.
          3    1    1    2  503    0  0.16469301595E+02  0.25507523629E+02  0.44948125690E+03  0.45050557373E+03  0.00000000000E+00 0. -1.
<mgrwt>
<rscale>  0 0.41989826E+02</rscale>
<asrwt>0</asrwt>
<pdfrwt beam="2">  1        2 0.10932426E+00 0.58070146E+02</pdfrwt>
<pdfrwt beam="1">  1        3 0.71364633E-01 0.30362339E+02</pdfrwt>
<totfact> 0.47044215E+01</totfact>
</mgrwt>
</event>
<event>
 7    1  0.3113530E-004  0.8500801E+02  0.7546771E-02  0.1322401E+00
          3   -1    0    0  503    0  0.00000000000E+00  0.00000000000E+00  0.43444551510E+03  0.43444551510E+03  0.00000000000E+00 0. -1.
         -1   -1    0    0    0  501 -0.00000000000E+00 -0.00000000000E+00 -0.27208945409E+03  0.27208945409E+03  0.00000000000E+00 0. -1.
         25    2    1    2    0    0 -0.60618557877E+01  0.23249407798E+02 -0.76393225180E+02  0.14845332791E+03  0.12500073861E+03 0.  0.
          4    1    3    3  502    0  0.83651934919E+01  0.24131727383E+02  0.30942205779E+02  0.40141620883E+02  0.12700000000E+01 0. -1.
         -4    1    3    3    0  502 -0.14427049280E+02 -0.88231958488E+00 -0.10733543096E+03  0.10831170702E+03  0.12700000000E+01 0. -1.
          3    1    1    2  503    0 -0.64903043353E+02 -0.59863349007E+02  0.38308514810E+03  0.39312880368E+03  0.00000000000E+00 0. -1.
         -1    1    1    2    0  501  0.70964899141E+02  0.36613941208E+02 -0.14433586191E+03  0.16495283760E+03  0.00000000000E+00 0. -1.
<mgrwt>
<rscale>  0 0.82390507E+02</rscale>
<asrwt>0</asrwt>
<pdfrwt beam="1">  1        3 0.66837771E-01 0.85008010E+02</pdfrwt>
<pdfrwt beam="2">  1       -1 0.41859916E-01 0.79853601E+02</pdfrwt>
<totfact> 0.55376873E+01</totfact>
</mgrwt>
</event>
<event>
 7    1  0.3113530E-004  0.6618988E+02  0.7546771E-02  0.1459603E+00
         -1   -1    0    0    0  501 -0.00000000000E+00  0.00000000000E+00  0.23315202386E+02  0.23315202386E+02  0.00000000000E+00 0.  1.
          2   -1    0    0  503    0  0.00000000000E+00 -0.00000000000E+00 -0.64625045552E+03  0.64625045552E+03  0.00000000000E+00 0. -1.
         25    2    1    2    0    0  0.30603341971E+02  0.58032531095E+02 -0.37707181248E+03  0.40263382969E+03  0.12500603923E+03 0.  0.
          4    1    3    3  502    0 -0.11051184511E+02 -0.65421789849E+01 -0.27276977369E+03  0.27307488190E+03  0.12700000000E+01 0. -1.
         -4    1    3    3    0  502  0.41654526483E+02  0.64574710080E+02 -0.10430203878E+03  0.12955894779E+03  0.12700000000E+01 0. -1.
          2    1    1    2  503    0  0.13720532776E+01 -0.69635761527E+02 -0.15582793960E+03  0.17068499809E+03  0.00000000000E+00 0. -1.
         -1    1    1    2    0  501 -0.31975395249E+02  0.11603230432E+02 -0.90035501055E+02  0.96246830119E+02  0.00000000000E+00 0.  1.
<mgrwt>
<rscale>  0 0.47449850E+02</rscale>
<asrwt>0</asrwt>
<pdfrwt beam="2">  1        2 0.99423157E-01 0.66189879E+02</pdfrwt>
<pdfrwt beam="1">  1       -1 0.35869538E-02 0.34015597E+02</pdfrwt>
<totfact> 0.12489933E+04</totfact>
</mgrwt>
</event>
<event>
 7    1  0.3113530E-004  0.1256797E+03  0.7546771E-02  0.1281393E+00
          1   -1    0    0  502    0  0.00000000000E+00  0.00000000000E+00  0.75385548761E+03  0.75385548761E+03  0.00000000000E+00 0. -1.
          1   -1    0    0  503    0 -0.00000000000E+00 -0.00000000000E+00 -0.93596113637E+03  0.93596113637E+03  0.00000000000E+00 0. -1.
         25    2    1    2    0    0  0.45674020567E+02 -0.82160786630E+02  0.46248255182E+02  0.16308673132E+03  0.12498747861E+03 0.  0.
          4    1    3    3  501    0 -0.36117809261E+02 -0.26987931332E+02 -0.14304497080E+02  0.47318876995E+02  0.12700000000E+01 0.  1.
         -4    1    3    3    0  501  0.81791829828E+02 -0.55172855299E+02  0.60552752261E+02  0.11576785432E+03  0.12700000000E+01 0.  1.
          1    1    1    2  502    0 -0.65092915045E+02 -0.44308322798E+02  0.64210610038E+03  0.64691619179E+03  0.00000000000E+00 0. -1.
          1    1    1    2  503    0  0.19418894477E+02  0.12646910943E+03 -0.87046000432E+03  0.87981370086E+03  0.00000000000E+00 0. -1.
<mgrwt>
<rscale>  0 0.99480054E+02</rscale>
<asrwt>0</asrwt>
<pdfrwt beam="1">  1        1 0.11597777E+00 0.78742079E+02</pdfrwt>
<pdfrwt beam="2">  1        1 0.14399402E+00 0.12567970E+03</pdfrwt>
<totfact> 0.60353017E+01</totfact>
</mgrwt>
</event>
<event>
 7    1  0.3113530E-004  0.1310462E+03  0.7546771E-02  0.1342500E+00
          2   -1    0    0  503    0  0.00000000000E+00  0.00000000000E+00  0.85804957337E+03  0.85804957337E+03  0.00000000000E+00 0. -1.
          2   -1    0    0  502    0 -0.00000000000E+00 -0.00000000000E+00 -0.25726757762E+04  0.25726757762E+04  0.00000000000E+00 0. -1.
         25    2    1    2    0    0  0.89753074927E+02 -0.20899842157E+02 -0.14782316505E+04  0.14863666927E+04  0.12499886020E+03 0.  0.
          4    1    3    3  501    0 -0.21120800709E+02  0.27162241010E+02 -0.33687111117E+03  0.33862609764E+03  0.12700000000E+01 0. -1.
         -4    1    3    3    0  501  0.11087387564E+03 -0.48062083168E+02 -0.11413605393E+04  0.11477405951E+04  0.12700000000E+01 0. -1.
          2    1    1    2  502    0  0.30954139945E+02 -0.30469154384E+02 -0.10849016196E+04  0.10857707181E+04  0.00000000000E+00 0. -1.
          2    1    1    2  503    0 -0.12070721487E+03  0.51368996541E+02  0.84850706716E+03  0.85858793874E+03  0.00000000000E+00 0. -1.
<mgrwt>
<rscale>  0 0.75444565E+02</rscale>
<asrwt>0</asrwt>
<pdfrwt beam="1">  1        2 0.13200763E+00 0.13104615E+03</pdfrwt>
<pdfrwt beam="2">  1        2 0.39579627E+00 0.43434182E+02</pdfrwt>
<totfact> 0.24612944E+01</totfact>
</mgrwt>
</event>
<event>
 7    1  0.3113530E-004  0.5267328E+02  0.7546771E-02  0.1536834E+00
          1   -1    0    0  503    0 -0.00000000000E+00  0.00000000000E+00  0.44006827620E+03  0.44006827620E+03  0.00000000000E+00 0. -1.
          2   -1    0    0  502    0  0.00000000000E+00 -0.00000000000E+00 -0.42911383041E+02  0.42911383041E+02  0.00000000000E+00 0. -1.
         25    2    1    2    0    0 -0.27745040056E+02  0.23969771327E+02  0.23278683995E+03  0.26675563100E+03  0.12499806650E+03 0.  0.
          4    1    3    3  501    0  0.25615359632E+02  0.58135957530E+02  0.14658754265E+03  0.15976688257E+03  0.12700000000E+01 0. -1.
         -4    1    3    3    0  501 -0.53360399688E+02 -0.34166186203E+02  0.86199297304E+02  0.10698874843E+03  0.12700000000E+01 0. -1.
          2    1    1    2  502    0  0.24956864832E+02 -0.48915220621E+02  0.52813897642E+01  0.55167354373E+02  0.00000000000E+00 0. -1.
          1    1    1    2  503    0  0.27881752238E+01  0.24945449293E+02  0.15908866344E+03  0.16105667387E+03  0.00000000000E+00 0. -1.
<mgrwt>
<rscale>  0 0.36361251E+02</rscale>
<asrwt>0</asrwt>
<pdfrwt beam="2">  1        2 0.66017515E-02 0.52673279E+02</pdfrwt>
<pdfrwt beam="1">  1        1 0.67702809E-01 0.25100784E+02</pdfrwt>
<totfact> 0.72125793E+03</totfact>
</mgrwt>
</event>
<event>
 7    1  0.3113530E-004  0.5837957E+02  0.7546771E-02  0.1475146E+00
          2   -1    0    0  503    0  0.00000000000E+00  0.00000000000E+00  0.94456257985E+03  0.94456257985E+03  0.00000000000E+00 0. -1.
         -1   -1    0    0    0  501 -0.00000000000E+00 -0.00000000000E+00 -0.15648272042E+02  0.15648272042E+02  0.00000000000E+00 0.  1.
         25    2    1    2    0    0  0.29344405934E+02  0.60409153163E+02  0.49499513601E+03  0.51493378982E+03  0.12500505301E+03 0.  0.
          4    1    3    3  502    0  0.42640505130E+02  0.23104708144E+02  0.45851518250E+03  0.46107464222E+03  0.12700000000E+01 0.  1.
         -4    1    3    3    0  502 -0.13296099196E+02  0.37304445019E+02  0.36479953511E+02  0.53859147600E+02  0.12700000000E+01 0.  1.
          2    1    1    2  503    0  0.50499479191E+01 -0.57857039409E+02  0.34590698742E+03  0.35074860361E+03  0.00000000000E+00 0. -1.
         -1    1    1    2    0  501 -0.34394353853E+02 -0.25521137533E+01  0.88012184376E+02  0.94528458467E+02  0.00000000000E+00 0.  1.
<mgrwt>
<rscale>  0 0.44871457E+02</rscale>
<asrwt>0</asrwt>
<pdfrwt beam="1">  1        2 0.14531728E+00 0.58379570E+02</pdfrwt>
<pdfrwt beam="2">  1       -1 0.24074272E-02 0.34488909E+02</pdfrwt>
<totfact> 0.13943812E+04</totfact>
</mgrwt>
</event>
<event>
 7    1  0.3113530E-004  0.3449343E+02  0.7546771E-02  0.1617325E+00
         -3   -1    0    0    0  501 -0.00000000000E+00  0.00000000000E+00  0.26734415667E+03  0.26734415667E+03  0.00000000000E+00 0.  1.
          1   -1    0    0  503    0  0.00000000000E+00 -0.00000000000E+00 -0.90957444333E+03  0.90957444333E+03  0.00000000000E+00 0. -1.
         25    2    1    2    0    0 -0.78305846367E+01  0.14012912468E+02  0.96721566898E+02  0.15886309955E+03  0.12499897249E+03 0.  0.
          4    1    3    3  502    0 -0.60644464372E+02  0.28737750801E+02  0.72828726733E+02  0.99041636283E+02  0.12700000000E+01 0.  1.
         -4    1    3    3    0  502  0.52813879735E+02 -0.14724838333E+02  0.23892840166E+02  0.59821463270E+02  0.12700000000E+01 0.  1.
          1    1    1    2  503    0  0.31071586662E+02 -0.15108631167E+02 -0.87719143896E+03  0.87787159358E+03  0.00000000000E+00 0. -1.
         -3    1    1    2    0  501 -0.23241002025E+02  0.10957186988E+01  0.13823958539E+03  0.14018390687E+03  0.00000000000E+00 0.  1.
<mgrwt>
<rscale>  0 0.28329356E+02</rscale>
<asrwt>0</asrwt>
<pdfrwt beam="2">  1        1 0.13993453E+00 0.34493433E+02</pdfrwt>
<pdfrwt beam="1">  1       -3 0.41129870E-01 0.23266817E+02</pdfrwt>
<totfact> 0.57597900E+01</totfact>
</mgrwt>
</event>
<event>
 7    1  0.3113530E-004  0.5770757E+02  0.7546771E-02  0.1553516E+00
          1   -1    0    0  503    0  0.00000000000E+00  0.00000000000E+00  0.56874361684E+03  0.56874361684E+03  0.00000000000E+00 0. -1.
         -2   -1    0    0    0  501 -0.00000000000E+00 -0.00000000000E+00 -0.25121750628E+02  0.25121750628E+02  0.00000000000E+00 0.  1.
         25    2    1    2    0    0  0.54240286449E+01  0.43502084563E+02  0.40708195858E+03  0.42809180598E+03  0.12500008758E+03 0.  0.
          4    1    3    3  502    0 -0.25796440312E+02 -0.37340091669E+02  0.15595126201E+03  0.16242582245E+03  0.12700000000E+01 0. -1.
         -4    1    3    3    0  502  0.31220468957E+02  0.80842176232E+02  0.25113069658E+03  0.26566598353E+03  0.12700000000E+01 0. -1.
          1    1    1    2  503    0 -0.12663828813E+02  0.16208168627E+02  0.82133920437E+02  0.84670290993E+02  0.00000000000E+00 0. -1.
         -2    1    1    2    0  501  0.72398001680E+01 -0.59710253190E+02  0.54405987190E+02  0.81103270492E+02  0.00000000000E+00 0.  1.
<mgrwt>
<rscale>  0 0.34452547E+02</rscale>
<asrwt>0</asrwt>
<pdfrwt beam="1">  1        1 0.87499009E-01 0.20568843E+02</pdfrwt>
<pdfrwt beam="2">  1       -2 0.38648851E-02 0.57707573E+02</pdfrwt>
<totfact> 0.88673270E+03</totfact>
</mgrwt>
</event>
<event>
 7    1  0.3113530E-004  0.1338153E+03  0.7546771E-02  0.1384198E+00
         -3   -1    0    0    0  501 -0.00000000000E+00  0.00000000000E+00  0.68582439406E+02  0.68582439406E+02  0.00000000000E+00 0.  1.
          2   -1    0    0  503    0  0.00000000000E+00 -0.00000000000E+00 -0.72702366816E+03  0.72702366816E+03  0.00000000000E+00 0. -1.
         25    2    1    2    0    0 -0.84182988246E+02 -0.12888102604E+03 -0.21027169437E+03  0.28902637754E+03  0.12499986832E+03 0.  0.
          4    1    3    3  502    0 -0.61317466450E+02 -0.15304512737E+03 -0.17876265405E+03  0.24318787405E+03  0.12700000000E+01 0.  1.
         -4    1    3    3    0  502 -0.22865521796E+02  0.24164101333E+02 -0.31509040317E+02  0.45838503487E+02  0.12700000000E+01 0.  1.
          2    1    1    2  503    0  0.83525265878E+02  0.98875625722E+02 -0.45725586488E+03  0.47522182754E+03  0.00000000000E+00 0. -1.
         -3    1    1    2    0  501  0.65772236795E+00  0.30005400313E+02  0.90863304934E+01  0.31357902488E+02  0.00000000000E+00 0.  1.
<mgrwt>
<rscale>  0 0.63373059E+02</rscale>
<asrwt>0</asrwt>
<pdfrwt beam="2">  1        2 0.11184979E+00 0.13381525E+03</pdfrwt>
<pdfrwt beam="1">  1       -3 0.10551145E-01 0.30012608E+02</pdfrwt>
<totfact> 0.13304417E+03</totfact>
</mgrwt>
</event>
<event>
 7    1  0.3113530E-004  0.8206116E+02  0.7546771E-02  0.1436994E+00
          3   -1    0    0  503    0 -0.00000000000E+00  0.00000000000E+00  0.10443613653E+04  0.10443613653E+04  0.00000000000E+00 0. -1.
          1   -1    0    0  502    0  0.00000000000E+00 -0.00000000000E+00 -0.62137161627E+03  0.62137161627E+03  0.00000000000E+00 0. -1.
         25    2    1    2    0    0  0.21329421850E+02 -0.86266532720E+02 -0.69319256258E+02  0.16830194251E+03  0.12499410250E+03 0.  0.
          4    1    3    3  501    0  0.67555258688E+02 -0.82521495578E+02 -0.53204671779E+02  0.11918833923E+03  0.12700000000E+01 0.  1.
         -4    1    3    3    0  501 -0.46225836838E+02 -0.37450371427E+01 -0.16114584480E+02  0.49113603284E+02  0.12700000000E+01 0.  1.
          1    1    1    2  502    0  0.10708252515E+02  0.81285446851E+02 -0.49895033209E+03  0.50564159682E+03  0.00000000000E+00 0. -1.
          3    1    1    2  503    0 -0.32037674364E+02  0.49810858692E+01  0.99125933742E+03  0.99178944228E+03  0.00000000000E+00 0. -1.
<mgrwt>
<rscale>  0 0.51581341E+02</rscale>
<asrwt>0</asrwt>
<pdfrwt beam="2">  1        1 0.95595633E-01 0.82061163E+02</pdfrwt>
<pdfrwt beam="1">  1        3 0.16067098E+00 0.32422582E+02</pdfrwt>
<totfact> 0.55612586E+00</totfact>
</mgrwt>
</event>
<event>
 7    1  0.3113530E-004  0.6524553E+02  0.7546771E-02  0.1449656E+00
          1   -1    0    0  503    0 -0.00000000000E+00  0.00000000000E+00  0.12889035528E+03  0.12889035528E+03  0.00000000000E+00 0. -1.
          2   -1    0    0  502    0  0.00000000000E+00 -0.00000000000E+00 -0.33215640463E+04  0.33215640463E+04  0.00000000000E+00 0.  1.
         25    2    1    2    0    0  0.30239334976E+02  0.87675950430E+02 -0.24531560002E+03  0.29052773908E+03  0.12500053560E+03 0.  0.
          4    1    3    3  501    0 -0.18421320321E+02  0.13149839601E+02 -0.17667031734E+03  0.17811871674E+03  0.12700000000E+01 0.  1.
         -4    1    3    3    0  501  0.48660655297E+02  0.74526110829E+02 -0.68645282671E+02  0.11240902233E+03  0.12700000000E+01 0.  1.
          2    1    1    2  502    0 -0.39257246986E+02 -0.51674273761E+02 -0.30500466737E+04  0.30507369722E+04  0.00000000000E+00 0.  1.
          1    1    1    2  503    0  0.90179120093E+01 -0.36001676669E+02  0.10268858265E+03  0.10918969030E+03  0.00000000000E+00 0. -1.
<mgrwt>
<rscale>  0 0.49208920E+02</rscale>
<asrwt>0</asrwt>
<pdfrwt beam="2">  1        2 0.51100984E+00 0.65245532E+02</pdfrwt>
<pdfrwt beam="1">  1        1 0.19829286E-01 0.37113925E+02</pdfrwt>
<totfact> 0.55499596E+01</totfact>
</mgrwt>
</event>
<event>
 7    1  0.3113530E-004  0.6431134E+02  0.7546771E-02  0.1397148E+00
          1   -1    0    0  502    0  0.00000000000E+00  0.00000000000E+00  0.20535887294E+04  0.20535887294E+04  0.00000000000E+00 0. -1.
          1   -1    0    0  503    0 -0.00000000000E+00 -0.00000000000E+00 -0.17952592969E+02  0.17952592969E+02  0.00000000000E+00 0. -1.
         25    2    1    2    0    0  0.10468057301E+02 -0.27630019866E+02  0.66383520627E+03  0.67614714864E+03  0.12499914922E+03 0.  0.
          4    1    3    3  501    0  0.65677705774E+02 -0.31917244557E+02  0.38338826944E+03  0.39028252534E+03  0.12700000000E+01 0.  1.
         -4    1    3    3    0  501 -0.55209648473E+02  0.42872246911E+01  0.28044693683E+03  0.28586462330E+03  0.12700000000E+01 0.  1.
          1    1    1    2  502    0 -0.66695909122E+02  0.25144735501E+02  0.13094862261E+04  0.13114247132E+04  0.00000000000E+00 0. -1.
          1    1    1    2  503    0  0.56227851821E+02  0.24852843647E+01  0.62314703999E+02  0.83969460480E+02  0.00000000000E+00 0. -1.
<mgrwt>
<rscale>  0 0.60163272E+02</rscale>
<asrwt>0</asrwt>
<pdfrwt beam="1">  1        1 0.31593654E+00 0.64311343E+02</pdfrwt>
<pdfrwt beam="2">  1        1 0.27619390E-02 0.56282750E+02</pdfrwt>
<totfact> 0.14212645E+03</totfact>
</mgrwt>
</event>
<event>
 7    1  0.3113530E-004  0.1150581E+03  0.7546771E-02  0.1420866E+00
          2   -1    0    0  502    0  0.00000000000E+00  0.00000000000E+00  0.27592601320E+04  0.27592601320E+04  0.00000000000E+00 0. -1.
          3   -1    0    0  503    0 -0.00000000000E+00 -0.00000000000E+00 -0.19080019203E+03  0.19080019203E+03  0.00000000000E+00 0. -1.
         25    2    1    2    0    0  0.63529047957E+02 -0.63054460987E+02  0.62225939227E+01  0.15387525545E+03  0.12500827405E+03 0.  0.
          4    1    3    3  501    0 -0.31457726625E+02 -0.47948369342E+02  0.61211092986E+01  0.57686355111E+02  0.12700000000E+01 0.  1.
         -4    1    3    3    0  501  0.94986774582E+02 -0.15106091646E+02  0.10148462410E+00  0.96188900344E+02  0.12700000000E+01 0.  1.
          2    1    1    2  502    0 -0.84216254754E+02  0.79028284344E+02  0.26764902514E+04  0.26789807601E+04  0.00000000000E+00 0. -1.
          3    1    1    2  503    0  0.20687206798E+02 -0.15973823357E+02 -0.11425290531E+03  0.11720430850E+03  0.00000000000E+00 0. -1.
<mgrwt>
<rscale>  0 0.54838219E+02</rscale>
<asrwt>0</asrwt>
<pdfrwt beam="1">  1        2 0.42450153E+00 0.11505806E+03</pdfrwt>
<pdfrwt beam="2">  1        3 0.29353878E-01 0.26136632E+02</pdfrwt>
<totfact> 0.18740048E+01</totfact>
</mgrwt>
</event>
<event>
 7    1  0.3113530E-004  0.1645842E+03  0.7546771E-02  0.1255031E+00
          1   -1    0    0  503    0  0.00000000000E+00  0.00000000000E+00  0.29215133987E+04  0.29215133987E+04  0.00000000000E+00 0. -1.
         -2   -1    0    0    0  501 -0.00000000000E+00 -0.00000000000E+00 -0.49942142199E+02  0.49942142199E+02  0.00000000000E+00 0.  1.
         25    2    1    2    0    0  0.13018007928E+03  0.12510372380E+03  0.54164121570E+03  0.58446390408E+03  0.12500021550E+03 0.  0.
          4    1    3    3  502    0  0.13319240562E+03  0.52702094835E+02  0.30481237073E+03  0.33679358955E+03  0.12700000000E+01 0.  1.
         -4    1    3    3    0  502 -0.30123263363E+01  0.72401628961E+02  0.23682884497E+03  0.24767031453E+03  0.12700000000E+01 0.  1.
          1    1    1    2  503    0 -0.72672309141E+02  0.27344764231E+02  0.21191815320E+04  0.21206035382E+04  0.00000000000E+00 0. -1.
         -2    1    1    2    0  501 -0.57507770142E+02 -0.15244848803E+03  0.21074850882E+03  0.26638809864E+03  0.00000000000E+00 0.  1.
<mgrwt>
<rscale>  0 0.11304605E+03</rscale>
<asrwt>0</asrwt>
<pdfrwt beam="1">  1        1 0.44946347E+00 0.77646640E+02</pdfrwt>
<pdfrwt beam="2">  1       -2 0.76834088E-02 0.16458419E+03</pdfrwt>
<totfact> 0.86163209E+01</totfact>
</mgrwt>
</event>
<event>
 7    1  0.3113530E-004  0.3437700E+03  0.7546771E-02  0.1132335E+00
          1   -1    0    0  503    0 -0.00000000000E+00  0.00000000000E+00  0.25831920909E+04  0.25831920909E+04  0.00000000000E+00 0. -1.
          2   -1    0    0  502    0  0.00000000000E+00 -0.00000000000E+00 -0.69368842774E+03  0.69368842774E+03  0.00000000000E+00 0.  1.
         25    2    1    2    0    0  0.18027325230E+03 -0.19081579934E+03  0.68317651854E+03  0.74247186645E+03  0.12500080884E+03 0.  0.
          4    1    3    3  501    0  0.85766659612E+02 -0.17503533167E+03  0.45685409099E+03  0.49669966840E+03  0.12700000000E+01 0. -1.
         -4    1    3    3    0  501  0.94506592687E+02 -0.15780467667E+02  0.22632242755E+03  0.24577219805E+03  0.12700000000E+01 0. -1.
          2    1    1    2  502    0  0.76306021665E+02 -0.12150465477E+03 -0.63409423679E+03  0.65012421213E+03  0.00000000000E+00 0.  1.
          1    1    1    2  503    0 -0.25657927396E+03  0.31232045411E+03  0.18404213814E+04  0.18842844401E+04  0.00000000000E+00 0. -1.
<mgrwt>
<rscale>  0 0.22208895E+03</rscale>
<asrwt>0</asrwt>
<pdfrwt beam="2">  1        2 0.10672130E+00 0.14347819E+03</pdfrwt>
<pdfrwt beam="1">  1        1 0.39741416E+00 0.34377003E+03</pdfrwt>
<totfact> 0.80362723E+00</totfact>
</mgrwt>
</event>
<event>
 7    1  0.3113530E-004  0.8505943E+02  0.7546771E-02  0.1423018E+00
          2   -1    0    0  502    0  0.00000000000E+00  0.00000000000E+00  0.10862827167E+04  0.10862827167E+04  0.00000000000E+00 0. -1.
          2   -1    0    0  503    0 -0.00000000000E+00 -0.00000000000E+00 -0.25221783910E+04  0.25221783910E+04  0.00000000000E+00 0. -1.
         25    2    1    2    0    0  0.43539212230E+02  0.55731900520E+02  0.70548611694E+02  0.16001620156E+03  0.12500548153E+03 0.  0.
          4    1    3    3  501    0  0.73681143281E+02  0.40098843887E+02  0.24730223173E+01  0.83931858645E+02  0.12700000000E+01 0.  1.
         -4    1    3    3    0  501 -0.30141931051E+02  0.15633056633E+02  0.68075589377E+02  0.76084342911E+02  0.12700000000E+01 0.  1.
          2    1    1    2  502    0 -0.75244033711E+02 -0.41443760719E+02  0.96897803244E+03  0.97277832895E+03  0.00000000000E+00 0. -1.
          2    1    1    2  503    0  0.31704821481E+02 -0.14288139801E+02 -0.24754223185E+04  0.24756665772E+04  0.00000000000E+00 0. -1.
<mgrwt>
<rscale>  0 0.54387479E+02</rscale>
<asrwt>0</asrwt>
<pdfrwt beam="1">  1        2 0.16712042E+00 0.85059428E+02</pdfrwt>
<pdfrwt beam="2">  1        2 0.38802744E+00 0.34775662E+02</pdfrwt>
<totfact> 0.20135499E+01</totfact>
</mgrwt>
</event>
<event>
 7    1  0.3113530E-004  0.8660330E+02  0.7546771E-02  0.1350295E+00
          2   -1    0    0  502    0  0.00000000000E+00  0.00000000000E+00  0.14259562923E+04  0.14259562923E+04  0.00000000000E+00 0. -1.
          1   -1    0    0  503    0 -0.00000000000E+00 -0.00000000000E+00 -0.12647206986E+04  0.12647206986E+04  0.00000000000E+00 0. -1.
         25    2    1    2    0    0 -0.85334410323E+01  0.65122668490E+02 -0.25028927353E+02  0.14340523975E+03  0.12499933607E+03 0.  0.
          4    1    3    3  501    0 -0.54822407837E+02 -0.22611677059E+01  0.75339539844E+01  0.55398399283E+02  0.12700000000E+01 0.  1.
         -4    1    3    3    0  501  0.46288966805E+02  0.67383836196E+02 -0.32562881337E+02  0.88006840469E+02  0.12700000000E+01 0.  1.
          2    1    1    2  502    0  0.61274130465E+02  0.49308702152E+01  0.13644468104E+04  0.13658308573E+04  0.00000000000E+00 0. -1.
          1    1    1    2  503    0 -0.52740689432E+02 -0.70053538705E+02 -0.11781822893E+04  0.11814408938E+04  0.00000000000E+00 0. -1.
<mgrwt>
<rscale>  0 0.72963663E+02</rscale>
<asrwt>0</asrwt>
<pdfrwt beam="1">  1        2 0.21937789E+00 0.61472210E+02</pdfrwt>
<pdfrwt beam="2">  1        1 0.19457241E+00 0.86603298E+02</pdfrwt>
<totfact> 0.26065517E+01</totfact>
</mgrwt>
</event>
<event>
 7    1  0.3113530E-004  0.4905356E+02  0.7546771E-02  0.1456349E+00
         -1   -1    0    0    0  501 -0.00000000000E+00  0.00000000000E+00  0.51048101913E+02  0.51048101913E+02  0.00000000000E+00 0.  1.
          1   -1    0    0  503    0  0.00000000000E+00 -0.00000000000E+00 -0.32846560029E+03  0.32846560029E+03  0.00000000000E+00 0. -1.
         25    2    1    2    0    0  0.97341013180E+01  0.71361647765E+01 -0.12997847157E+03  0.18073739199E+03  0.12500369681E+03 0.  0.
          4    1    3    3  502    0 -0.51913850031E+02 -0.20981801047E+01 -0.97380502667E+02  0.11038127280E+03  0.12700000000E+01 0. -1.
         -4    1    3    3    0  502  0.61647951349E+02  0.92343448812E+01 -0.32597968899E+02  0.70356119188E+02  0.12700000000E+01 0. -1.
          1    1    1    2  503    0 -0.27395244083E+02 -0.50691124838E+02 -0.13973606236E+03  0.15114978220E+03  0.00000000000E+00 0. -1.
         -1    1    1    2    0  501  0.17661142765E+02  0.43554960062E+02 -0.77029644540E+01  0.47626528019E+02  0.00000000000E+00 0.  1.
<mgrwt>
<rscale>  0 0.48015536E+02</rscale>
<asrwt>0</asrwt>
<pdfrwt beam="2">  1        1 0.50533167E-01 0.49053564E+02</pdfrwt>
<pdfrwt beam="1">  1       -1 0.78535545E-02 0.46999474E+02</pdfrwt>
<totfact> 0.60757782E+03</totfact>
</mgrwt>
</event>
<event>
 7    1  0.3113530E-004  0.1091967E+03  0.7546771E-02  0.1292706E+00
         -3   -1    0    0    0  501 -0.00000000000E+00  0.00000000000E+00  0.25368312789E+03  0.25368312789E+03  0.00000000000E+00 0.  1.
          1   -1    0    0  503    0  0.00000000000E+00 -0.00000000000E+00 -0.36023855513E+04  0.36023855513E+04  0.00000000000E+00 0. -1.
         25    2    1    2    0    0 -0.24177912165E+02 -0.53279843591E+02  0.72356752720E+02  0.15583377391E+03  0.12500140902E+03 0.  0.
          4    1    3    3  502    0  0.37249389371E+02 -0.23922125669E+01 -0.12481092697E+02  0.39378042922E+02  0.12700000000E+01 0. -1.
         -4    1    3    3    0  502 -0.61427301535E+02 -0.50887631024E+02  0.84837845418E+02  0.11645573099E+03  0.12700000000E+01 0. -1.
          1    1    1    2  503    0  0.10373653863E+03  0.35704216176E+02 -0.35478370283E+04  0.35495328763E+04  0.00000000000E+00 0. -1.
         -3    1    1    2    0  501 -0.79558626466E+02  0.17575627415E+02  0.12677785220E+03  0.15070202896E+03  0.00000000000E+00 0.  1.
<mgrwt>
<rscale>  0 0.94323921E+02</rscale>
<asrwt>0</asrwt>
<pdfrwt beam="2">  1        1 0.55421313E+00 0.10919668E+03</pdfrwt>
<pdfrwt beam="1">  1       -3 0.39028176E-01 0.81476854E+02</pdfrwt>
<totfact> 0.10483433E+00</totfact>
</mgrwt>
</event>
<event>
 7    1  0.3113530E-004  0.6433823E+02  0.7546771E-02  0.1466961E+00
          2   -1    0    0  503    0  0.00000000000E+00  0.00000000000E+00  0.19103330993E+04  0.19103330993E+04  0.00000000000E+00 0. -1.
         -1   -1    0    0    0  501 -0.00000000000E+00 -0.00000000000E+00 -0.94113830657E+01  0.94113830657E+01  0.00000000000E+00 0.  1.
         25    2    1    2    0    0  0.64349051382E+02 -0.42929081383E+02  0.12798468176E+04  0.12882616203E+04  0.12500567769E+03 0.  0.
          4    1    3    3  502    0  0.51947938346E+02 -0.75873474135E+02  0.55564194079E+03  0.56320063178E+03  0.12700000000E+01 0. -1.
         -4    1    3    3    0  502  0.12401113037E+02  0.32944392753E+02  0.72420487683E+03  0.72506098857E+03  0.12700000000E+01 0. -1.
          2    1    1    2  503    0 -0.32333221563E+02  0.51646672055E+02  0.54615898301E+03  0.54954749629E+03  0.00000000000E+00 0. -1.
         -1    1    1    2    0  501 -0.32015829819E+02 -0.87175906717E+01  0.74915915580E+02  0.81935365706E+02  0.00000000000E+00 0.  1.
<mgrwt>
<rscale>  0 0.46204294E+02</rscale>
<asrwt>0</asrwt>
<pdfrwt beam="1">  1        2 0.29389709E+00 0.64338228E+02</pdfrwt>
<pdfrwt beam="2">  1       -1 0.14479066E-02 0.33181467E+02</pdfrwt>
<totfact> 0.87797705E+03</totfact>
</mgrwt>
</event>
<event>
 7    1  0.3113530E-004  0.7207823E+02  0.7546771E-02  0.1420833E+00
          1   -1    0    0  503    0 -0.00000000000E+00  0.00000000000E+00  0.33158298143E+04  0.33158298143E+04  0.00000000000E+00 0. -1.
          2   -1    0    0  502    0  0.00000000000E+00 -0.00000000000E+00 -0.47454391421E+03  0.47454391421E+03  0.00000000000E+00 0. -1.
         25    2    1    2    0    0 -0.28504884711E+02  0.12020077844E+02 -0.38293776313E+01  0.12883086391E+03  0.12500286653E+03 0.  0.
          4    1    3    3  501    0  0.39467858016E+02  0.38706387667E+02  0.36447068911E+01  0.55414736767E+02  0.12700000000E+01 0.  1.
         -4    1    3    3    0  501 -0.67972742727E+02 -0.26686309824E+02 -0.74740845224E+01  0.73416127148E+02  0.12700000000E+01 0.  1.
          2    1    1    2  502    0 -0.40869859894E+02  0.84397930995E+01 -0.40674401840E+03  0.40887928788E+03  0.00000000000E+00 0. -1.
          1    1    1    2  503    0  0.69374744605E+02 -0.20459870943E+02  0.32518592961E+04  0.32526635767E+04  0.00000000000E+00 0. -1.
<mgrwt>
<rscale>  0 0.54845075E+02</rscale>
<asrwt>0</asrwt>
<pdfrwt beam="2">  1        2 0.73006758E-01 0.41732188E+02</pdfrwt>
<pdfrwt beam="1">  1        1 0.51012765E+00 0.72078229E+02</pdfrwt>
<totfact> 0.50498817E+00</totfact>
</mgrwt>
</event>
<event>
 7    1  0.3113530E-004  0.7684192E+02  0.7546771E-02  0.1349663E+00
          1   -1    0    0  502    0  0.00000000000E+00  0.00000000000E+00  0.23294216212E+04  0.23294216212E+04  0.00000000000E+00 0. -1.
          1   -1    0    0  503    0 -0.00000000000E+00 -0.00000000000E+00 -0.94799772710E+02  0.94799772710E+02  0.00000000000E+00 0. -1.
         25    2    1    2    0    0  0.36692154434E+01  0.56761138617E+02  0.17176279300E+03  0.21991609572E+03  0.12500136839E+03 0.  0.
          4    1    3    3  501    0  0.17084810501E+01 -0.23499368476E+02 -0.64403699848E+01  0.24458750823E+02  0.12700000000E+01 0.  1.
         -4    1    3    3    0  501  0.19607343933E+01  0.80260507092E+02  0.17820316298E+03  0.19545734490E+03  0.12700000000E+01 0.  1.
          1    1    1    2  502    0  0.67787086726E+02 -0.16028154253E+02  0.21088968079E+04  0.21100468567E+04  0.00000000000E+00 0. -1.
          1    1    1    2  503    0 -0.71456302169E+02 -0.40732984364E+02 -0.46037752483E+02  0.94258441471E+02  0.00000000000E+00 0. -1.
<mgrwt>
<rscale>  0 0.73160908E+02</rscale>
<asrwt>0</asrwt>
<pdfrwt beam="1">  1        1 0.35837251E+00 0.69656233E+02</pdfrwt>
<pdfrwt beam="2">  1        1 0.14584582E-01 0.76841915E+02</pdfrwt>
<totfact> 0.10812155E+02</totfact>
</mgrwt>
</event>
<event>
 7    1  0.3113530E-004  0.6277846E+02  0.7546771E-02  0.1437720E+00
          2   -1    0    0  502    0  0.00000000000E+00  0.00000000000E+00  0.13104183142E+04  0.13104183142E+04  0.00000000000E+00 0. -1.
          1   -1    0    0  503    0 -0.00000000000E+00 -0.00000000000E+00 -0.57291234822E+02  0.57291234822E+02  0.00000000000E+00 0. -1.
         25    2    1    2    0    0  0.42609916656E+02 -0.21823221322E+02  0.47910631025E+02  0.14217063168E+03  0.12500080784E+03 0.  0.
          4    1    3    3  501    0 -0.13742861311E+02  0.29613953488E+02 -0.21421810203E+02  0.39068648948E+02  0.12700000000E+01 0.  1.
         -4    1    3    3    0  501  0.56352777967E+02 -0.51437174810E+02  0.69332441228E+02  0.10310198273E+03  0.12700000000E+01 0.  1.
          2    1    1    2  502    0 -0.22786797553E+02  0.59022200521E+02  0.11667808699E+04  0.11684949537E+04  0.00000000000E+00 0. -1.
          1    1    1    2  503    0 -0.19823119103E+02 -0.37198979199E+02  0.38435578450E+02  0.57043963705E+02  0.00000000000E+00 0. -1.
<mgrwt>
<rscale>  0 0.51441080E+02</rscale>
<asrwt>0</asrwt>
<pdfrwt beam="1">  1        2 0.20160280E+00 0.62778458E+02</pdfrwt>
<pdfrwt beam="2">  1        1 0.88140371E-02 0.42151158E+02</pdfrwt>
<totfact> 0.17435229E+03</totfact>
</mgrwt>
</event>
<event>
 7    1  0.3113530E-004  0.1748395E+03  0.7546771E-02  0.1176262E+00
          1   -1    0    0  502    0  0.00000000000E+00  0.00000000000E+00  0.74880268644E+03  0.74880268644E+03  0.00000000000E+00 0. -1.
          1   -1    0    0  503    0 -0.00000000000E+00 -0.00000000000E+00 -0.96549228801E+03  0.96549228801E+03  0.00000000000E+00 0. -1.
         25    2    1    2    0    0 -0.11739588902E+03  0.50218986335E+02  0.43831908198E+02  0.18397837159E+03  0.12499225452E+03 0.  0.
          4    1    3    3  501    0  0.19540882460E+02  0.34747586935E+00  0.32310107433E+02  0.37782572294E+02  0.12700000000E+01 0.  1.
         -4    1    3    3    0  501 -0.13693677148E+03  0.49871510465E+02  0.11521800765E+02  0.14619579930E+03  0.12700000000E+01 0.  1.
          1    1    1    2  502    0  0.31029669575E+02 -0.19464933996E+03  0.61135703590E+03  0.64234619270E+03  0.00000000000E+00 0. -1.
          1    1    1    2  503    0  0.86366219445E+02  0.14443035363E+03 -0.87187854566E+03  0.88797041015E+03  0.00000000000E+00 0. -1.
<mgrwt>
<rscale>  0 0.17153008E+03</rscale>
<asrwt>0</asrwt>
<pdfrwt beam="1">  1        1 0.11520041E+00 0.17483955E+03</pdfrwt>
<pdfrwt beam="2">  1        1 0.14853727E+00 0.16828325E+03</pdfrwt>
<totfact> 0.54924544E+01</totfact>
</mgrwt>
</event>
<event>
 7    1  0.3113530E-004  0.5986281E+03  0.7546771E-02  0.1093333E+00
         -1   -1    0    0    0  501 -0.00000000000E+00  0.00000000000E+00  0.14078416435E+04  0.14078416435E+04  0.00000000000E+00 0.  1.
          2   -1    0    0  503    0  0.00000000000E+00 -0.00000000000E+00 -0.97349047844E+03  0.97349047844E+03  0.00000000000E+00 0. -1.
         25    2    1    2    0    0  0.55599501291E+03 -0.22219993584E+03  0.48782426111E+03  0.78237068554E+03  0.12501245536E+03 0.  0.
          4    1    3    3  502    0  0.53233242316E+03 -0.22917427074E+03  0.48801734462E+03  0.75766826294E+03  0.12700000000E+01 0. -1.
         -4    1    3    3    0  502  0.23662589759E+02  0.69743349025E+01 -0.19308350519E+00  0.24702422607E+02  0.12700000000E+01 0. -1.
          2    1    1    2  503    0  0.42007662169E+02  0.12837589499E+03 -0.70022240134E+03  0.71313142227E+03  0.00000000000E+00 0. -1.
         -1    1    1    2    0  501 -0.59800267508E+03  0.93824040845E+02  0.64674930528E+03  0.88583001413E+03  0.00000000000E+00 0.  1.
<mgrwt>
<rscale>  0 0.28435745E+03</rscale>
<asrwt>0</asrwt>
<pdfrwt beam="2">  1        2 0.14976777E+00 0.13507411E+03</pdfrwt>
<pdfrwt beam="1">  1       -1 0.21659102E+00 0.59862815E+03</pdfrwt>
<totfact> 0.39639099E+00</totfact>
</mgrwt>
</event>
<event>
 7    1  0.3113530E-004  0.5943520E+02  0.7546771E-02  0.1405160E+00
         -3   -1    0    0    0  501 -0.00000000000E+00  0.00000000000E+00  0.24967968914E+02  0.24967968914E+02  0.00000000000E+00 0.  1.
          2   -1    0    0  503    0  0.00000000000E+00 -0.00000000000E+00 -0.15587843830E+04  0.15587843830E+04  0.00000000000E+00 0. -1.
         25    2    1    2    0    0 -0.32136432038E+02  0.20114403035E+02 -0.32449810534E+03  0.34980085128E+03  0.12499710281E+03 0.  0.
          4    1    3    3  502    0 -0.72321881640E+02 -0.64161787121E+01 -0.25572858355E+03  0.26583894232E+03  0.12700000000E+01 0. -1.
         -4    1    3    3    0  502  0.40185449602E+02  0.26530581747E+02 -0.68769521797E+02  0.83961908957E+02  0.12700000000E+01 0. -1.
          2    1    1    2  503    0 -0.33491104213E+02 -0.46324128264E+02 -0.11131177451E+04  0.11145845385E+04  0.00000000000E+00 0. -1.
         -3    1    1    2    0  501  0.65627536251E+02  0.26209725229E+02 -0.96200563600E+02  0.11936696213E+03  0.00000000000E+00 0.  1.
<mgrwt>
<rscale>  0 0.58287898E+02</rscale>
<asrwt>0</asrwt>
<pdfrwt beam="2">  1        2 0.23981306E+00 0.57162741E+02</pdfrwt>
<pdfrwt beam="1">  1       -3 0.38412248E-02 0.59435203E+02</pdfrwt>
<totfact> 0.25757516E+03</totfact>
</mgrwt>
</event>
<event>
 7    1  0.3113530E-004  0.6969095E+02  0.7546771E-02  0.1426116E+00
         -2   -1    0    0    0  501 -0.00000000000E+00  0.00000000000E+00  0.16932692907E+03  0.16932692907E+03  0.00000000000E+00 0.  1.
          1   -1    0    0  503    0  0.00000000000E+00 -0.00000000000E+00 -0.10219174493E+03  0.10219174493E+03  0.00000000000E+00 0. -1.
         25    2    1    2    0    0  0.47242822060E+02  0.61076678222E+02  0.62660476430E+02  0.15972449065E+03  0.12499333081E+03 0.  0.
          4    1    3    3  502    0  0.30506376481E+02  0.56458926260E+02 -0.26087669620E+02  0.69285126590E+02  0.12700000000E+01 0.  1.
         -4    1    3    3    0  502  0.16736445580E+02  0.46177519625E+01  0.88748146050E+02  0.90439364058E+02  0.12700000000E+01 0.  1.
          1    1    1    2  503    0 -0.67236320920E+01 -0.69819427507E+02  0.40909152462E+00  0.70143617256E+02  0.00000000000E+00 0. -1.
         -2    1    1    2    0  501 -0.40519189968E+02  0.87427492851E+01  0.40656161830E+01  0.41650566091E+02  0.00000000000E+00 0.  1.
<mgrwt>
<rscale>  0 0.53747611E+02</rscale>
<asrwt>0</asrwt>
<pdfrwt beam="2">  1        1 0.15721807E-01 0.69690947E+02</pdfrwt>
<pdfrwt beam="1">  1       -2 0.26050297E-01 0.41451664E+02</pdfrwt>
<totfact> 0.36320822E+03</totfact>
</mgrwt>
</event>
<event>
 7    1  0.3113530E-004  0.7418815E+02  0.7546771E-02  0.1372784E+00
         -3   -1    0    0    0  501 -0.00000000000E+00  0.00000000000E+00  0.61609820335E+02  0.61609820335E+02  0.00000000000E+00 0.  1.
          2   -1    0    0  503    0  0.00000000000E+00 -0.00000000000E+00 -0.77306472273E+03  0.77306472273E+03  0.00000000000E+00 0.  1.
         25    2    1    2    0    0  0.11337533967E+03 -0.24940613535E+02 -0.12202364614E+03  0.20973529132E+03  0.12499248122E+03 0.  0.
          4    1    3    3  502    0  0.25504228960E+02  0.49149856987E+02 -0.34401452658E+02  0.65201587263E+02  0.12700000000E+01 0.  1.
         -4    1    3    3    0  502  0.87871110712E+02 -0.74090470521E+02 -0.87622193479E+02  0.14453370406E+03  0.12700000000E+01 0.  1.
          2    1    1    2  503    0 -0.59372536760E+02 -0.25651880533E+01 -0.54872406099E+03  0.55193276169E+03  0.00000000000E+00 0.  1.
         -3    1    1    2    0  501 -0.54002802911E+02  0.27505801588E+02 -0.40707195261E+02  0.73006490049E+02  0.00000000000E+00 0.  1.
<mgrwt>
<rscale>  0 0.66399154E+02</rscale>
<asrwt>0</asrwt>
<pdfrwt beam="2">  1        2 0.11893303E+00 0.59427925E+02</pdfrwt>
<pdfrwt beam="1">  1       -3 0.94784338E-02 0.74188146E+02</pdfrwt>
<totfact> 0.17388172E+03</totfact>
</mgrwt>
</event>
<event>
 7    1  0.3113530E-004  0.5836412E+02  0.7546771E-02  0.1458827E+00
          2   -1    0    0  503    0  0.00000000000E+00  0.00000000000E+00  0.76751172863E+03  0.76751172863E+03  0.00000000000E+00 0. -1.
          2   -1    0    0  502    0 -0.00000000000E+00 -0.00000000000E+00 -0.60056926167E+03  0.60056926167E+03  0.00000000000E+00 0. -1.
         25    2    1    2    0    0 -0.37819663536E+02 -0.21743016594E+02  0.36079831470E+03  0.38432023920E+03  0.12499414645E+03 0.  0.
          4    1    3    3  501    0 -0.52513100678E+02 -0.20245107599E+02  0.36467750052E+03  0.36899699512E+03  0.12700000000E+01 0. -1.
         -4    1    3    3    0  501  0.14693437142E+02 -0.14979089948E+01 -0.38791858180E+01  0.15323244076E+02  0.12700000000E+01 0. -1.
          2    1    1    2  502    0 -0.24893290125E+02  0.29755158580E+02 -0.58563227696E+03  0.58691584505E+03  0.00000000000E+00 0. -1.
          2    1    1    2  503    0  0.62712953661E+02 -0.80121419868E+01  0.39177642921E+03  0.39684490605E+03  0.00000000000E+00 0. -1.
<mgrwt>
<rscale>  0 0.47583935E+02</rscale>
<asrwt>0</asrwt>
<pdfrwt beam="1">  1        2 0.11807873E+00 0.58364117E+02</pdfrwt>
<pdfrwt beam="2">  1        2 0.92395271E-01 0.38794914E+02</pdfrwt>
<totfact> 0.32348178E+02</totfact>
</mgrwt>
</event>
<event>
 7    1  0.3113530E-004  0.9743681E+02  0.7546771E-02  0.1415479E+00
          2   -1    0    0  503    0  0.00000000000E+00  0.00000000000E+00  0.22117457599E+03  0.22117457599E+03  0.00000000000E+00 0. -1.
         -1   -1    0    0    0  501 -0.00000000000E+00 -0.00000000000E+00 -0.15302307751E+03  0.15302307751E+03  0.00000000000E+00 0.  1.
         25    2    1    2    0    0 -0.70234643204E+02  0.73253955282E+02  0.14916577163E+03  0.21948564779E+03  0.12499790035E+03 0.  0.
          4    1    3    3  502    0 -0.99757241996E+02  0.67405515548E+02  0.14593153851E+03  0.18918942277E+03  0.12700000000E+01 0. -1.
         -4    1    3    3    0  502  0.29522598792E+02  0.58484397339E+01  0.32342331206E+01  0.30296225023E+02  0.12700000000E+01 0. -1.
          2    1    1    2  503    0  0.82090992663E+02 -0.43346119193E+02 -0.36413182394E+02  0.99718288080E+02  0.00000000000E+00 0. -1.
         -1    1    1    2    0  501 -0.11856349459E+02 -0.29907836089E+02 -0.44601090757E+02  0.54993717630E+02  0.00000000000E+00 0.  1.
<mgrwt>
<rscale>  0 0.55988912E+02</rscale>
<asrwt>0</asrwt>
<pdfrwt beam="1">  1        2 0.34026858E-01 0.97436807E+02</pdfrwt>
<pdfrwt beam="2">  1       -1 0.23542012E-01 0.32172219E+02</pdfrwt>
<totfact> 0.24613371E+03</totfact>
</mgrwt>
</event>
<event>
 7    1  0.3113530E-004  0.7236762E+02  0.7546771E-02  0.1489109E+00
          3   -1    0    0  503    0  0.00000000000E+00  0.00000000000E+00  0.21507876789E+04  0.21507876789E+04  0.00000000000E+00 0. -1.
         -1   -1    0    0    0  501 -0.00000000000E+00 -0.00000000000E+00 -0.41993781011E+02  0.41993781011E+02  0.00000000000E+00 0.  1.
         25    2    1    2    0    0  0.36376314608E+02 -0.39651996670E+02  0.10612181742E+04  0.10699089681E+04  0.12500267883E+03 0.  0.
          4    1    3    3  502    0  0.35213918733E+02  0.27527672051E+02  0.15831812127E+03  0.16451149876E+03  0.12700000000E+01 0. -1.
         -4    1    3    3    0  502  0.11623958746E+01 -0.67179668721E+02  0.90290005294E+03  0.90539746937E+03  0.12700000000E+01 0. -1.
          3    1    1    2  503    0 -0.48340392796E+02  0.61849710246E+02  0.10794101546E+04  0.10822608106E+04  0.00000000000E+00 0. -1.
         -1    1    1    2    0  501  0.11964078189E+02 -0.22197713576E+02 -0.31834430947E+02  0.40611681184E+02  0.00000000000E+00 0.  1.
<mgrwt>
<rscale>  0 0.42718455E+02</rscale>
<asrwt>0</asrwt>
<pdfrwt beam="1">  1        3 0.33089033E+00 0.72367620E+02</pdfrwt>
<pdfrwt beam="2">  1       -1 0.64605834E-02 0.25216615E+02</pdfrwt>
<totfact> 0.14926345E+01</totfact>
</mgrwt>
</event>
<event>
 7    1  0.3113530E-004  0.5585422E+02  0.7546771E-02  0.1434647E+00
         -1   -1    0    0    0  501 -0.00000000000E+00  0.00000000000E+00  0.14092771453E+04  0.14092771453E+04  0.00000000000E+00 0.  1.
          1   -1    0    0  503    0  0.00000000000E+00 -0.00000000000E+00 -0.36403384389E+03  0.36403384389E+03  0.00000000000E+00 0. -1.
         25    2    1    2    0    0  0.31888645379E+02  0.93889071362E+02  0.46543007197E+03  0.49201985558E+03  0.12500537172E+03 0.  0.
          4    1    3    3  502    0 -0.20503260465E+02  0.86151154997E+02  0.16806958437E+03  0.18997737573E+03  0.12700000000E+01 0. -1.
         -4    1    3    3    0  502  0.52391905844E+02  0.77379163648E+01  0.29736048760E+03  0.30204247985E+03  0.12700000000E+01 0. -1.
          1    1    1    2  503    0 -0.38915042307E+01 -0.48327068693E+02 -0.34829009045E+03  0.35164845582E+03  0.00000000000E+00 0. -1.
         -1    1    1    2    0  501 -0.27997141148E+02 -0.45562002669E+02  0.92810331984E+03  0.92964267775E+03  0.00000000000E+00 0.  1.
<mgrwt>
<rscale>  0 0.52038525E+02</rscale>
<asrwt>0</asrwt>
<pdfrwt beam="2">  1        1 0.56005207E-01 0.48483496E+02</pdfrwt>
<pdfrwt beam="1">  1       -1 0.21681187E+00 0.55854225E+02</pdfrwt>
<totfact> 0.10526799E+01</totfact>
</mgrwt>
</event>
<event>
 7    1  0.3113530E-004  0.4300946E+02  0.7546771E-02  0.1511557E+00
         -1   -1    0    0    0  501 -0.00000000000E+00  0.00000000000E+00  0.36946994453E+02  0.36946994453E+02  0.00000000000E+00 0.  1.
          2   -1    0    0  503    0  0.00000000000E+00 -0.00000000000E+00 -0.41667249020E+03  0.41667249020E+03  0.00000000000E+00 0. -1.
         25    2    1    2    0    0 -0.47234784814E+02 -0.46558987668E+02 -0.21280871742E+03  0.25556136612E+03  0.12500078965E+03 0.  0.
          4    1    3    3  502    0 -0.67024104096E+02  0.21144870943E+02 -0.11859864459E+03  0.13786438081E+03  0.12700000000E+01 0. -1.
         -4    1    3    3    0  502  0.19789319281E+02 -0.67703858611E+02 -0.94210072831E+02  0.11769698531E+03  0.12700000000E+01 0. -1.
          2    1    1    2  503    0  0.35599197412E+02  0.74330359095E+01 -0.14918512927E+03  0.15355375500E+03  0.00000000000E+00 0. -1.
         -1    1    1    2    0  501  0.11635587402E+02  0.39125951758E+02 -0.17731649051E+02  0.44504363530E+02  0.00000000000E+00 0.  1.
<mgrwt>
<rscale>  0 0.39548979E+02</rscale>
<asrwt>0</asrwt>
<pdfrwt beam="2">  1        2 0.64103453E-01 0.36366920E+02</pdfrwt>
<pdfrwt beam="1">  1       -1 0.56841536E-02 0.43009465E+02</pdfrwt>
<totfact> 0.10754987E+04</totfact>
</mgrwt>
</event>
<event>
 7    1  0.3113530E-004  0.7653675E+02  0.7546771E-02  0.1345676E+00
          1   -1    0    0  503    0  0.00000000000E+00  0.00000000000E+00  0.11858897693E+04  0.11858897693E+04  0.00000000000E+00 0. -1.
         -3   -1    0    0    0  501 -0.00000000000E+00 -0.00000000000E+00 -0.28003873235E+03  0.28003873235E+03  0.00000000000E+00 0.  1.
         25    2    1    2    0    0  0.16653245076E+02  0.54297199891E+02  0.58834603518E+02  0.14936819993E+03  0.12499532828E+03 0.  0.
          4    1    3    3  502    0  0.31959928784E+02  0.73827003567E+02  0.82370155451E+02  0.11514477371E+03  0.12700000000E+01 0.  1.
         -4    1    3    3    0  502 -0.15306683707E+02 -0.19529803676E+02 -0.23535551933E+02  0.34223426224E+02  0.12700000000E+01 0.  1.
          1    1    1    2  503    0  0.61410942138E+02 -0.38274546849E+02  0.10737726927E+04  0.10762081770E+04  0.00000000000E+00 0. -1.
         -3    1    1    2    0  501 -0.78064187214E+02 -0.16022653041E+02 -0.22675625925E+03  0.24035212469E+03  0.00000000000E+00 0.  1.
<mgrwt>
<rscale>  0 0.74420057E+02</rscale>
<asrwt>0</asrwt>
<pdfrwt beam="1">  1        1 0.18244458E+00 0.72361901E+02</pdfrwt>
<pdfrwt beam="2">  1       -3 0.43082882E-01 0.76536752E+02</pdfrwt>
<totfact> 0.35958710E+01</totfact>
</mgrwt>
</event>
<event>
 7    1  0.3113530E-004  0.1327690E+03  0.7546771E-02  0.1225184E+00
         -1   -1    0    0    0  501 -0.00000000000E+00  0.00000000000E+00  0.29666944252E+03  0.29666944252E+03  0.00000000000E+00 0.  1.
          2   -1    0    0  503    0  0.00000000000E+00 -0.00000000000E+00 -0.18787833997E+04  0.18787833997E+04  0.00000000000E+00 0. -1.
         25    2    1    2    0    0 -0.36888349505E+02 -0.11217531093E+02 -0.23303480725E+03  0.26724207319E+03  0.12500608370E+03 0.  0.
          4    1    3    3  502    0  0.64473712494E+01  0.26754463977E+02 -0.19776378739E+03  0.19967347957E+03  0.12700000000E+01 0. -1.
         -4    1    3    3    0  502 -0.43335720754E+02 -0.37971995070E+02 -0.35271019863E+02  0.67568593630E+02  0.12700000000E+01 0. -1.
          2    1    1    2  503    0 -0.55584792430E+02  0.11787990397E+03 -0.16080182820E+04  0.16132910885E+04  0.00000000000E+00 0. -1.
         -1    1    1    2    0  501  0.92473141935E+02 -0.10666237288E+03  0.25893913215E+03  0.29491968047E+03  0.00000000000E+00 0.  1.
<mgrwt>
<rscale>  0 0.13154277E+03</rscale>
<asrwt>0</asrwt>
<pdfrwt beam="2">  1        2 0.28904360E+00 0.13032782E+03</pdfrwt>
<pdfrwt beam="1">  1       -1 0.45641453E-01 0.13276904E+03</pdfrwt>
<totfact> 0.51993737E+01</totfact>
</mgrwt>
</event>
<event>
 7    1  0.3113530E-004  0.7119843E+02  0.7546771E-02  0.1521263E+00
         -1   -1    0    0    0  501 -0.00000000000E+00  0.00000000000E+00  0.10721213774E+02  0.10721213774E+02  0.00000000000E+00 0.  1.
          2   -1    0    0  503    0  0.00000000000E+00 -0.00000000000E+00 -0.16848806285E+04  0.16848806285E+04  0.00000000000E+00 0. -1.
         25    2    1    2    0    0 -0.60814840306E+02  0.10547160163E+02 -0.57063079907E+03  0.58741200784E+03  0.12499468277E+03 0.  0.
          4    1    3    3  502    0 -0.76568612768E+02 -0.23659846353E+02 -0.20930421519E+03  0.22412587576E+03  0.12700000000E+01 0.  1.
         -4    1    3    3    0  502  0.15753772462E+02  0.34207006516E+02 -0.36132658388E+03  0.36328613208E+03  0.12700000000E+01 0.  1.
          2    1    1    2  503    0  0.72720393182E+02  0.62414234579E+01 -0.99847344572E+03  0.10011375693E+04  0.00000000000E+00 0. -1.
         -1    1    1    2    0  501 -0.11905552876E+02 -0.16788583621E+02 -0.10505516993E+03  0.10705226508E+03  0.00000000000E+00 0.  1.
<mgrwt>
<rscale>  0 0.38280172E+02</rscale>
<asrwt>0</asrwt>
<pdfrwt beam="2">  1        2 0.25921249E+00 0.71198435E+02</pdfrwt>
<pdfrwt beam="1">  1       -1 0.16494170E-02 0.20581514E+02</pdfrwt>
<totfact> 0.85494483E+03</totfact>
</mgrwt>
</event>
<event>
 7    1  0.3113530E-004  0.3433534E+02  0.7546771E-02  0.1614063E+00
         -2   -1    0    0    0  501 -0.00000000000E+00  0.00000000000E+00  0.35992746882E+03  0.35992746882E+03  0.00000000000E+00 0. -1.
          2   -1    0    0  503    0  0.00000000000E+00 -0.00000000000E+00 -0.10925428257E+04  0.10925428257E+04  0.00000000000E+00 0. -1.
         25    2    1    2    0    0  0.20897895708E+02 -0.18989170437E+02 -0.34015384650E+03  0.36349539768E+03  0.12500781659E+03 0.  0.
          4    1    3    3  502    0  0.62873600502E+02  0.18234788573E+02 -0.12460013134E+03  0.14075653727E+03  0.12700000000E+01 0.  1.
         -4    1    3    3    0  502 -0.41975704795E+02 -0.37223959011E+02 -0.21555371517E+03  0.22273886042E+03  0.12700000000E+01 0.  1.
          2    1    1    2  503    0 -0.18283777077E+02 -0.15279885545E+02 -0.73967794876E+03  0.74006164560E+03  0.00000000000E+00 0. -1.
         -2    1    1    2    0  501 -0.26141186309E+01  0.34269055983E+02  0.34721643838E+03  0.34891325125E+03  0.00000000000E+00 0. -1.
<mgrwt>
<rscale>  0 0.28603164E+02</rscale>
<asrwt>0</asrwt>
<pdfrwt beam="2">  1        2 0.16808351E+00 0.23827954E+02</pdfrwt>
<pdfrwt beam="1">  1       -2 0.55373457E-01 0.34335342E+02</pdfrwt>
<totfact> 0.84443515E+01</totfact>
</mgrwt>
</event>
<event>
 7    1  0.3113530E-004  0.1094933E+03  0.7546771E-02  0.1395014E+00
         -1   -1    0    0    0  501 -0.00000000000E+00  0.00000000000E+00  0.68150358010E+03  0.68150358010E+03  0.00000000000E+00 0.  1.
          1   -1    0    0  503    0  0.00000000000E+00 -0.00000000000E+00 -0.52120550520E+03  0.52120550520E+03  0.00000000000E+00 0. -1.
         25    2    1    2    0    0  0.22342244686E+02  0.12257709811E+03 -0.99292316498E+02  0.20250493298E+03  0.12499985154E+03 0.  0.
          4    1    3    3  502    0  0.44834195592E+02  0.75967820515E+02 -0.11811210891E+03  0.14742217614E+03  0.12700000000E+01 0. -1.
         -4    1    3    3    0  502 -0.22491950906E+02  0.46609277598E+02  0.18819792410E+02  0.55082756832E+02  0.12700000000E+01 0. -1.
          1    1    1    2  503    0  0.23857725032E+02 -0.23694239383E+02 -0.36480003822E+03  0.36634638788E+03  0.00000000000E+00 0. -1.
         -1    1    1    2    0  501 -0.46199969718E+02 -0.98882858730E+02  0.62439042962E+03  0.63385776445E+03  0.00000000000E+00 0.  1.
<mgrwt>
<rscale>  0 0.60676671E+02</rscale>
<asrwt>0</asrwt>
<pdfrwt beam="2">  1        1 0.80185462E-01 0.33624515E+02</pdfrwt>
<pdfrwt beam="1">  1       -1 0.10484670E+00 0.10949328E+03</pdfrwt>
<totfact> 0.43042826E+01</totfact>
</mgrwt>
</event>
<event>
 7    1  0.3113530E-004  0.4041184E+02  0.7546771E-02  0.1530350E+00
          2   -1    0    0  502    0  0.00000000000E+00  0.00000000000E+00  0.23166388942E+03  0.23166388942E+03  0.00000000000E+00 0. -1.
          2   -1    0    0  503    0 -0.00000000000E+00 -0.00000000000E+00 -0.24728432039E+04  0.24728432039E+04  0.00000000000E+00 0. -1.
         25    2    1    2    0    0  0.38393260304E+02 -0.32412034123E+02 -0.32793557026E+03  0.35455212834E+03  0.12506354816E+03 0.  0.
          4    1    3    3  501    0  0.70226639956E+02  0.16383420639E+02 -0.13567484920E+03  0.15365375048E+03  0.12700000000E+01 0. -1.
         -4    1    3    3    0  501 -0.31833379653E+02 -0.48795454762E+02 -0.19226072106E+03  0.20089837786E+03  0.12700000000E+01 0. -1.
          2    1    1    2  502    0 -0.51314909686E+01  0.40103032754E+02  0.21634615234E+03  0.22009144252E+03  0.00000000000E+00 0. -1.
          2    1    1    2  503    0 -0.33261769335E+02 -0.76909986311E+01 -0.21295898965E+04  0.21298635224E+04  0.00000000000E+00 0. -1.
<mgrwt>
<rscale>  0 0.37143435E+02</rscale>
<asrwt>0</asrwt>
<pdfrwt beam="1">  1        2 0.35640598E-01 0.40411837E+02</pdfrwt>
<pdfrwt beam="2">  1        2 0.38043742E+00 0.34139373E+02</pdfrwt>
<totfact> 0.12001789E+02</totfact>
</mgrwt>
</event>
<event>
 7    1  0.3113530E-004  0.5698313E+02  0.7546771E-02  0.1454833E+00
         -2   -1    0    0    0  501 -0.00000000000E+00  0.00000000000E+00  0.12660493742E+03  0.12660493742E+03  0.00000000000E+00 0.  1.
          2   -1    0    0  503    0  0.00000000000E+00 -0.00000000000E+00 -0.22786098836E+04  0.22786098836E+04  0.00000000000E+00 0. -1.
         25    2    1    2    0    0  0.34011868128E+02 -0.70548701688E+02 -0.13253023123E+04  0.13334854684E+04  0.12499339614E+03 0.  0.
          4    1    3    3  502    0  0.46976909185E+02 -0.88938572197E+02 -0.12668785126E+04  0.12708657199E+04  0.12700000000E+01 0. -1.
         -4    1    3    3    0  502 -0.12965041056E+02  0.18389870508E+02 -0.58423799703E+02  0.62619748471E+02  0.12700000000E+01 0. -1.
          2    1    1    2  503    0  0.13191939088E+02  0.38724512460E+02 -0.94213453060E+03  0.94302231621E+03  0.00000000000E+00 0. -1.
         -2    1    1    2    0  501 -0.47203807216E+02  0.31824189228E+02  0.11543189670E+03  0.12870703637E+03  0.00000000000E+00 0.  1.
<mgrwt>
<rscale>  0 0.48282201E+02</rscale>
<asrwt>0</asrwt>
<pdfrwt beam="2">  1        2 0.35055536E+00 0.40909841E+02</pdfrwt>
<pdfrwt beam="1">  1       -2 0.19477683E-01 0.56983134E+02</pdfrwt>
<totfact> 0.13962166E+02</totfact>
</mgrwt>
</event>
<event>
 7    1  0.3113530E-004  0.9074456E+02  0.7546771E-02  0.1301421E+00
         -3   -1    0    0    0  501 -0.00000000000E+00  0.00000000000E+00  0.21177472841E+03  0.21177472841E+03  0.00000000000E+00 0.  1.
          3   -1    0    0  503    0  0.00000000000E+00 -0.00000000000E+00 -0.54471869919E+03  0.54471869919E+03  0.00000000000E+00 0. -1.
         25    2    1    2    0    0 -0.75092293678E+02  0.42572354877E+02 -0.27229631926E+03  0.31180179032E+03  0.12499525190E+03 0.  0.
          4    1    3    3  502    0  0.23921462943E+02  0.26024245398E+02 -0.20861914451E+02  0.41064949926E+02  0.12700000000E+01 0.  1.
         -4    1    3    3    0  502 -0.99013756621E+02  0.16548109479E+02 -0.25143440481E+03  0.27073684040E+03  0.12700000000E+01 0.  1.
          3    1    1    2  503    0  0.75892755630E+02  0.49748011267E+02 -0.23251572850E+03  0.24959595145E+03  0.00000000000E+00 0. -1.
         -3    1    1    2    0  501 -0.80046195255E+00 -0.92320366144E+02  0.17186807698E+03  0.19509568583E+03  0.00000000000E+00 0.  1.
<mgrwt>
<rscale>  0 0.90593228E+02</rscale>
<asrwt>0</asrwt>
<pdfrwt beam="2">  1        3 0.83802875E-01 0.90744559E+02</pdfrwt>
<pdfrwt beam="1">  1       -3 0.32580728E-01 0.90442150E+02</pdfrwt>
<totfact> 0.28402716E+01</totfact>
</mgrwt>
</event>
<event>
 7    1  0.3113530E-004  0.8806092E+02  0.7546771E-02  0.1313363E+00
          1   -1    0    0  502    0  0.00000000000E+00  0.00000000000E+00  0.23797886834E+04  0.23797886834E+04  0.00000000000E+00 0. -1.
          3   -1    0    0  503    0 -0.00000000000E+00 -0.00000000000E+00 -0.35544113497E+02  0.35544113497E+02  0.00000000000E+00 0. -1.
         25    2    1    2    0    0  0.40798197793E+02  0.10163324286E+03  0.29764068300E+03  0.34089603083E+03  0.12500527455E+03 0.  0.
          4    1    3    3  501    0  0.62735008879E+02  0.11677203223E+02  0.18126851224E+03  0.19217680620E+03  0.12700000000E+01 0. -1.
         -4    1    3    3    0  501 -0.21936811086E+02  0.89956039632E+02  0.11637217076E+03  0.14871922463E+03  0.12700000000E+01 0. -1.
          1    1    1    2  502    0  0.39754331161E+02 -0.79305008417E+02  0.19240277873E+04  0.19260718101E+04  0.00000000000E+00 0. -1.
          3    1    1    2  503    0 -0.80552528953E+02 -0.22328234439E+02  0.12257609958E+03  0.14836495598E+03  0.00000000000E+00 0. -1.
<mgrwt>
<rscale>  0 0.85796255E+02</rscale>
<asrwt>0</asrwt>
<pdfrwt beam="1">  1        1 0.36612121E+00 0.88060918E+02</pdfrwt>
<pdfrwt beam="2">  1        3 0.54683270E-02 0.83589832E+02</pdfrwt>
<totfact> 0.21270058E+02</totfact>
</mgrwt>
</event>
<event>
 7    1  0.3113530E-004  0.6212291E+02  0.7546771E-02  0.1467583E+00
         -2   -1    0    0    0  501 -0.00000000000E+00  0.00000000000E+00  0.11417554870E+03  0.11417554870E+03  0.00000000000E+00 0.  1.
          2   -1    0    0  503    0  0.00000000000E+00 -0.00000000000E+00 -0.13741783484E+03  0.13741783484E+03  0.00000000000E+00 0. -1.
         25    2    1    2    0    0  0.36957408800E+02  0.51352090395E+02 -0.12936435293E+02  0.14070866370E+03  0.12501475684E+03 0.  0.
          4    1    3    3  502    0  0.21933445141E+02 -0.20839879024E+02 -0.49780813234E+02  0.58267648311E+02  0.12700000000E+01 0. -1.
         -4    1    3    3    0  502  0.15023963659E+02  0.72191969418E+02  0.36844377940E+02  0.82441015389E+02  0.12700000000E+01 0. -1.
          2    1    1    2  503    0 -0.50847988533E+01 -0.63784003751E+02 -0.30790751089E+02  0.71009328024E+02  0.00000000000E+00 0. -1.
         -2    1    1    2    0  501 -0.31872609947E+02  0.12431913356E+02  0.20484900242E+02  0.39875391815E+02  0.00000000000E+00 0.  1.
<mgrwt>
<rscale>  0 0.46101063E+02</rscale>
<asrwt>0</asrwt>
<pdfrwt beam="2">  1        2 0.21141205E-01 0.62122912E+02</pdfrwt>
<pdfrwt beam="1">  1       -2 0.17565469E-01 0.34211339E+02</pdfrwt>
<totfact> 0.58887692E+03</totfact>
</mgrwt>
</event>
<event>
 7    1  0.3113530E-004  0.1424894E+03  0.7546771E-02  0.1284855E+00
          1   -1    0    0  503    0 -0.00000000000E+00  0.00000000000E+00  0.16670693317E+03  0.16670693317E+03  0.00000000000E+00 0. -1.
          2   -1    0    0  502    0  0.00000000000E+00 -0.00000000000E+00 -0.29956197176E+04  0.29956197176E+04  0.00000000000E+00 0. -1.
         25    2    1    2    0    0  0.18172863299E+03  0.24868609686E+02 -0.56874729202E+03  0.61052882935E+03  0.12501290131E+03 0.  0.
          4    1    3    3  501    0  0.43771460523E+02  0.64817835358E+02 -0.21017166416E+03  0.22425662499E+03  0.12700000000E+01 0. -1.
         -4    1    3    3    0  501  0.13795717246E+03 -0.39949225672E+02 -0.35857562787E+03  0.38627220437E+03  0.12700000000E+01 0. -1.
          2    1    1    2  502    0 -0.13700273961E+03  0.25303554508E+02 -0.23961037490E+04  0.24001506612E+04  0.00000000000E+00 0. -1.
          1    1    1    2  503    0 -0.44725893378E+02 -0.50172164194E+02  0.13593825658E+03  0.15164716021E+03  0.00000000000E+00 0. -1.
<mgrwt>
<rscale>  0 0.97863216E+02</rscale>
<asrwt>0</asrwt>
<pdfrwt beam="2">  1        2 0.46086458E+00 0.14248941E+03</pdfrwt>
<pdfrwt beam="1">  1        1 0.25647220E-01 0.67213478E+02</pdfrwt>
<totfact> 0.56502582E+01</totfact>
</mgrwt>
</event>
<event>
 7    1  0.3113530E-004  0.7342321E+02  0.7546771E-02  0.1463885E+00
          2   -1    0    0  502    0  0.00000000000E+00  0.00000000000E+00  0.10727768975E+04  0.10727768975E+04  0.00000000000E+00 0.  1.
          1   -1    0    0  503    0 -0.00000000000E+00 -0.00000000000E+00 -0.79499831697E+03  0.79499831697E+03  0.00000000000E+00 0. -1.
         25    2    1    2    0    0 -0.45940646338E+02 -0.36909165673E+02  0.95849137800E+03  0.96840177391E+03  0.12499377792E+03 0.  0.
          4    1    3    3  501    0  0.41131042246E+02 -0.29600750336E+02  0.37080379613E+03  0.37425263550E+03  0.12700000000E+01 0.  1.
         -4    1    3    3    0  501 -0.87071688584E+02 -0.73084153364E+01  0.58768758187E+03  0.59414913841E+03  0.12700000000E+01 0.  1.
          2    1    1    2  502    0  0.10906019303E+02 -0.27654898288E+02  0.10556545319E+03  0.10967132517E+03  0.00000000000E+00 0.  1.
          1    1    1    2  503    0  0.35034627035E+02  0.64564063961E+02 -0.78627825071E+03  0.78970211535E+03  0.00000000000E+00 0. -1.
<mgrwt>
<rscale>  0 0.46719389E+02</rscale>
<asrwt>0</asrwt>
<pdfrwt beam="1">  1        2 0.16504260E+00 0.29727675E+02</pdfrwt>
<pdfrwt beam="2">  1        1 0.12230743E+00 0.73423209E+02</pdfrwt>
<totfact> 0.91484786E+01</totfact>
</mgrwt>
</event>
<event>
 7    1  0.3113530E-004  0.3909873E+02  0.7546771E-02  0.1591435E+00
         -1   -1    0    0    0  501 -0.00000000000E+00  0.00000000000E+00  0.39531341091E+02  0.39531341091E+02  0.00000000000E+00 0.  1.
          2   -1    0    0  503    0  0.00000000000E+00 -0.00000000000E+00 -0.66820860559E+03  0.66820860559E+03  0.00000000000E+00 0. -1.
         25    2    1    2    0    0  0.38448774387E+01 -0.35756687335E+02 -0.48509977717E+03  0.50223522623E+03  0.12500041956E+03 0.  0.
          4    1    3    3  502    0 -0.11447276809E+02 -0.25564006955E+02 -0.48286526174E+03  0.48367864589E+03  0.12700000000E+01 0.  1.
         -4    1    3    3    0  502  0.15292154248E+02 -0.10192680381E+02 -0.22345154313E+01  0.18556580345E+02  0.12700000000E+01 0.  1.
          2    1    1    2  503    0 -0.27393872918E+02  0.31309200600E+02 -0.16693442166E+03  0.17204008676E+03  0.00000000000E+00 0. -1.
         -1    1    1    2    0  501  0.23548995480E+02  0.44474867355E+01  0.23356934334E+02  0.33464633687E+02  0.00000000000E+00 0.  1.
<mgrwt>
<rscale>  0 0.30610660E+02</rscale>
<asrwt>0</asrwt>
<pdfrwt beam="2">  1        2 0.10280132E+00 0.39098726E+02</pdfrwt>
<pdfrwt beam="1">  1       -1 0.60817451E-02 0.23965294E+02</pdfrwt>
<totfact> 0.55364193E+03</totfact>
</mgrwt>
</event>
<event>
 7    1  0.3113530E-004  0.8334428E+02  0.7546771E-02  0.1490142E+00
         -1   -1    0    0    0  501  0.00000000000E+00  0.00000000000E+00  0.74721056966E+02  0.74721056966E+02  0.00000000000E+00 0.  1.
         -1   -1    0    0    0  502 -0.00000000000E+00 -0.00000000000E+00 -0.45772741846E+03  0.45772741846E+03  0.00000000000E+00 0.  1.
         25    2    1    2    0    0  0.38946980917E+02 -0.58481119340E+02 -0.12108454558E+03  0.18768198158E+03  0.12500460148E+03 0.  0.
          4    1    3    3  503    0 -0.11127106831E+02 -0.12288784127E+02  0.22952258645E+02  0.28341591323E+02  0.12700000000E+01 0.  1.
         -4    1    3    3    0  503  0.50074087748E+02 -0.46192335213E+02 -0.14403680423E+03  0.15934039026E+03  0.12700000000E+01 0.  1.
         -1    1    1    2    0  501 -0.35641983807E+02  0.79966841294E+02 -0.58197326224E+01  0.87743467017E+02  0.00000000000E+00 0.  1.
         -1    1    1    2    0  502 -0.33049971096E+01 -0.21485721954E+02 -0.25610208329E+03  0.25702302683E+03  0.00000000000E+00 0.  1.
<mgrwt>
<rscale>  0 0.42564936E+02</rscale>
<asrwt>0</asrwt>
<pdfrwt beam="1">  1       -1 0.11495547E-01 0.83344285E+02</pdfrwt>
<pdfrwt beam="2">  1       -1 0.70419605E-01 0.21738428E+02</pdfrwt>
<totfact> 0.86577826E+02</totfact>
</mgrwt>
</event>
<event>
 7    1  0.3113530E-004  0.6309333E+02  0.7546771E-02  0.1445808E+00
          1   -1    0    0  503    0  0.00000000000E+00  0.00000000000E+00  0.17996291945E+03  0.17996291945E+03  0.00000000000E+00 0. -1.
         -1   -1    0    0    0  501 -0.00000000000E+00 -0.00000000000E+00 -0.19814987311E+03  0.19814987311E+03  0.00000000000E+00 0.  1.
         25    2    1    2    0    0  0.22595676208E+02 -0.96131049569E+02  0.86976240595E+00  0.15930205624E+03  0.12499858144E+03 0.  0.
          4    1    3    3  502    0  0.52371313659E+02 -0.83808811327E+02 -0.40531340871E+02  0.10682262796E+03  0.12700000000E+01 0. -1.
         -4    1    3    3    0  502 -0.29775637450E+02 -0.12322238242E+02  0.41401103277E+02  0.52479428288E+02  0.12700000000E+01 0. -1.
          1    1    1    2  503    0 -0.13203655538E+02  0.37213965200E+02  0.87887498011E+02  0.96350547648E+02  0.00000000000E+00 0. -1.
         -1    1    1    2    0  501 -0.93920206702E+01  0.58917084369E+02 -0.10694421408E+03  0.12246018866E+03  0.00000000000E+00 0.  1.
<mgrwt>
<rscale>  0 0.49913531E+02</rscale>
<asrwt>0</asrwt>
<pdfrwt beam="1">  1        1 0.27686603E-01 0.39486906E+02</pdfrwt>
<pdfrwt beam="2">  1       -1 0.30484596E-01 0.63093334E+02</pdfrwt>
<totfact> 0.15646725E+03</totfact>
</mgrwt>
</event>
<event>
 7    1  0.3113530E-004  0.6552631E+02  0.7546771E-02  0.1409505E+00
          1   -1    0    0  503    0 -0.00000000000E+00  0.00000000000E+00  0.51656804803E+02  0.51656804803E+02  0.00000000000E+00 0. -1.
          2   -1    0    0  502    0  0.00000000000E+00 -0.00000000000E+00 -0.93728384291E+03  0.93728384291E+03  0.00000000000E+00 0. -1.
         25    2    1    2    0    0 -0.92144583020E+01  0.35035965698E+02 -0.42204156489E+03  0.44165224987E+03  0.12500080874E+03 0.  0.
          4    1    3    3  501    0  0.24152709593E+02  0.74455345689E+02 -0.26605498523E+03  0.27733340936E+03  0.12700000000E+01 0.  1.
         -4    1    3    3    0  501 -0.33367167895E+02 -0.39419379990E+02 -0.15598657967E+03  0.16431884052E+03  0.12700000000E+01 0.  1.
          2    1    1    2  502    0  0.56958768554E+02 -0.50264070092E+02 -0.48634947124E+03  0.49224646899E+03  0.00000000000E+00 0. -1.
          1    1    1    2  503    0 -0.47744310252E+02  0.15228104394E+02  0.22763998030E+02  0.55041928847E+02  0.00000000000E+00 0. -1.
<mgrwt>
<rscale>  0 0.57304333E+02</rscale>
<asrwt>0</asrwt>
<pdfrwt beam="2">  1        2 0.14419750E+00 0.65526314E+02</pdfrwt>
<pdfrwt beam="1">  1        1 0.79472014E-02 0.50114013E+02</pdfrwt>
<totfact> 0.32367850E+03</totfact>
</mgrwt>
</event>
<event>
 7    1  0.3113530E-004  0.8406249E+02  0.7546771E-02  0.1383851E+00
          2   -1    0    0  502    0  0.00000000000E+00  0.00000000000E+00  0.28130622481E+04  0.28130622481E+04  0.00000000000E+00 0. -1.
          1   -1    0    0  503    0 -0.00000000000E+00 -0.00000000000E+00 -0.87953331118E+03  0.87953331118E+03  0.00000000000E+00 0. -1.
         25    2    1    2    0    0 -0.38894250131E+02 -0.12456191170E+02 -0.25793692979E+02  0.13400514593E+03  0.12499658054E+03 0.  0.
          4    1    3    3  501    0 -0.45091324450E+02  0.50639473966E+02 -0.17616531576E+02  0.70068102222E+02  0.12700000000E+01 0.  1.
         -4    1    3    3    0  501  0.61970743188E+01 -0.63095665136E+02 -0.81771614036E+01  0.63937043704E+02  0.12700000000E+01 0.  1.
          2    1    1    2  502    0 -0.32918039894E+02 -0.34810786947E+02  0.27564369524E+04  0.27568532897E+04  0.00000000000E+00 0. -1.
          1    1    1    2  503    0  0.71812290026E+02  0.47266978117E+02 -0.79711432254E+03  0.80173712364E+03  0.00000000000E+00 0. -1.
<mgrwt>
<rscale>  0 0.63462207E+02</rscale>
<asrwt>0</asrwt>
<pdfrwt beam="1">  1        2 0.43277880E+00 0.47910210E+02</pdfrwt>
<pdfrwt beam="2">  1        1 0.13531282E+00 0.84062493E+02</pdfrwt>
<totfact> 0.10115362E+01</totfact>
</mgrwt>
</event>
<event>
 7    1  0.3113530E-004  0.7950492E+02  0.7546771E-02  0.1383108E+00
          2   -1    0    0  502    0  0.00000000000E+00  0.00000000000E+00  0.54295804515E+03  0.54295804515E+03  0.00000000000E+00 0. -1.
          2   -1    0    0  503    0 -0.00000000000E+00 -0.00000000000E+00 -0.30052929762E+03  0.30052929762E+03  0.00000000000E+00 0. -1.
         25    2    1    2    0    0 -0.95958446547E+00 -0.88495488972E+02  0.43904059307E+03  0.46498959535E+03  0.12500523609E+03 0.  0.
          4    1    3    3  501    0  0.58716453493E+02 -0.64197575083E+02  0.21725498895E+03  0.23403054006E+03  0.12700000000E+01 0.  1.
         -4    1    3    3    0  501 -0.59676037959E+02 -0.24297913889E+02  0.22178560412E+03  0.23095905529E+03  0.12700000000E+01 0.  1.
          2    1    1    2  502    0  0.44588070563E+02  0.62155349742E+02  0.72026760858E+02  0.10506777726E+03  0.00000000000E+00 0. -1.
          2    1    1    2  503    0 -0.43628486097E+02  0.26340139229E+02 -0.26863860640E+03  0.27342997016E+03  0.00000000000E+00 0. -1.
<mgrwt>
<rscale>  0 0.63653948E+02</rscale>
<asrwt>0</asrwt>
<pdfrwt beam="1">  1        2 0.83532007E-01 0.79504919E+02</pdfrwt>
<pdfrwt beam="2">  1        2 0.46235277E-01 0.50963200E+02</pdfrwt>
<totfact> 0.96899907E+02</totfact>
</mgrwt>
</event>
<event>
 7    1  0.3113530E-004  0.9178332E+02  0.7546771E-02  0.1323564E+00
          1   -1    0    0  503    0  0.00000000000E+00  0.00000000000E+00  0.51631320265E+03  0.51631320265E+03  0.00000000000E+00 0. -1.
         -2   -1    0    0    0  501 -0.00000000000E+00 -0.00000000000E+00 -0.22701827538E+04  0.22701827538E+04  0.00000000000E+00 0.  1.
         25    2    1    2    0    0 -0.14101758128E+02 -0.18158752484E+02  0.21866353461E+03  0.25290822079E+03  0.12498090615E+03 0.  0.
          4    1    3    3  502    0  0.52908290565E+02  0.10740856562E+02  0.88350109700E+02  0.10354712934E+03  0.12700000000E+01 0.  1.
         -4    1    3    3    0  502 -0.67010048693E+02 -0.28899609046E+02  0.13031342491E+03  0.14936109145E+03  0.12700000000E+01 0.  1.
          1    1    1    2  503    0 -0.13344752002E+02  0.10574224083E+03  0.26943099585E+03  0.28974569095E+03  0.00000000000E+00 0. -1.
         -2    1    1    2    0  501  0.27446510130E+02 -0.87583488343E+02 -0.22419640816E+04  0.22438420447E+04  0.00000000000E+00 0.  1.
<mgrwt>
<rscale>  0 0.81965613E+02</rscale>
<asrwt>0</asrwt>
<pdfrwt beam="1">  1        1 0.79432802E-01 0.73198066E+02</pdfrwt>
<pdfrwt beam="2">  1       -2 0.34925888E+00 0.91783323E+02</pdfrwt>
<totfact> 0.85529229E-01</totfact>
</mgrwt>
</event>
<event>
 7    1  0.3113530E-004  0.4586597E+02  0.7546771E-02  0.1471499E+00
          2   -1    0    0  503    0  0.00000000000E+00  0.00000000000E+00  0.21988104623E+04  0.21988104623E+04  0.00000000000E+00 0. -1.
         -1   -1    0    0    0  501 -0.00000000000E+00 -0.00000000000E+00 -0.62115896746E+01  0.62115896746E+01  0.00000000000E+00 0.  1.
         25    2    1    2    0    0  0.54100372396E+02 -0.19095228597E+02  0.11549810756E+04  0.11631407588E+04  0.12499464711E+03 0.  0.
          4    1    3    3  502    0  0.28137276361E+02 -0.59430174530E+02  0.31510774362E+03  0.32189773991E+03  0.12700000000E+01 0.  1.
         -4    1    3    3    0  502  0.25963096035E+02  0.40334945933E+02  0.83987333195E+03  0.84124301890E+03  0.12700000000E+01 0.  1.
          2    1    1    2  503    0 -0.15291080592E+02  0.43539567610E+02  0.63091803744E+03  0.63260341531E+03  0.00000000000E+00 0. -1.
         -1    1    1    2    0  501 -0.38809291804E+02 -0.24444339013E+02  0.40669975962E+03  0.40927787787E+03  0.00000000000E+00 0.  1.
<mgrwt>
<rscale>  0 0.45458650E+02</rscale>
<asrwt>0</asrwt>
<pdfrwt beam="1">  1        2 0.33827791E+00 0.45054952E+02</pdfrwt>
<pdfrwt beam="2">  1       -1 0.95563094E-03 0.45865966E+02</pdfrwt>
<totfact> 0.12469486E+04</totfact>
</mgrwt>
</event>
<event>
 7    1  0.3113530E-004  0.4409538E+02  0.7546771E-02  0.1525681E+00
          2   -1    0    0  502    0  0.00000000000E+00  0.00000000000E+00  0.65657071242E+03  0.65657071242E+03  0.00000000000E+00 0. -1.
          1   -1    0    0  503    0 -0.00000000000E+00 -0.00000000000E+00 -0.87939186272E+02  0.87939186272E+02  0.00000000000E+00 0. -1.
         25    2    1    2    0    0  0.21257536433E+02  0.18037053613E+02  0.10973208126E+02  0.12854530077E+03  0.12500505947E+03 0.  0.
          4    1    3    3  501    0 -0.31609020740E+02  0.48711402632E+02  0.28847538288E+02  0.64851555909E+02  0.12700000000E+01 0. -1.
         -4    1    3    3    0  501  0.52866557173E+02 -0.30674349020E+02 -0.17874330163E+02  0.63693744857E+02  0.12700000000E+01 0. -1.
          2    1    1    2  502    0 -0.26187650344E+01 -0.44378622547E+02  0.57675674015E+03  0.57846750762E+03  0.00000000000E+00 0. -1.
          1    1    1    2  503    0 -0.18638771399E+02  0.26341568935E+02 -0.19098422129E+02  0.37497090301E+02  0.00000000000E+00 0. -1.
<mgrwt>
<rscale>  0 0.37721472E+02</rscale>
<asrwt>0</asrwt>
<pdfrwt beam="1">  1        2 0.10101088E+00 0.44095379E+02</pdfrwt>
<pdfrwt beam="2">  1        1 0.13529106E-01 0.32268902E+02</pdfrwt>
<totfact> 0.24621296E+03</totfact>
</mgrwt>
</event>
<event>
 7    1  0.3113530E-004  0.8179213E+02  0.7546771E-02  0.1365313E+00
         -1   -1    0    0    0  501 -0.00000000000E+00  0.00000000000E+00  0.11262992455E+03  0.11262992455E+03  0.00000000000E+00 0.  1.
          1   -1    0    0  503    0  0.00000000000E+00 -0.00000000000E+00 -0.23057032602E+04  0.23057032602E+04  0.00000000000E+00 0. -1.
         25    2    1    2    0    0 -0.10499524926E+03 -0.29545446085E+02 -0.36420626828E+03  0.40020996098E+03  0.12499948506E+03 0.  0.
          4    1    3    3  502    0  0.23910394311E+02  0.81780654846E+01 -0.10806284346E+03  0.11098548891E+03  0.12700000000E+01 0.  1.
         -4    1    3    3    0  502 -0.12890564357E+03 -0.37723511569E+02 -0.25614342482E+03  0.28922447207E+03  0.12700000000E+01 0.  1.
          1    1    1    2  503    0  0.26612768206E+02  0.50798415399E+02 -0.19055591822E+04  0.19064219143E+04  0.00000000000E+00 0. -1.
         -1    1    1    2    0  501  0.78382481053E+02 -0.21252969314E+02  0.76692114878E+02  0.11170130942E+03  0.00000000000E+00 0.  1.
<mgrwt>
<rscale>  0 0.68487675E+02</rscale>
<asrwt>0</asrwt>
<pdfrwt beam="2">  1        1 0.35472354E+00 0.57347349E+02</pdfrwt>
<pdfrwt beam="1">  1       -1 0.17327683E-01 0.81792126E+02</pdfrwt>
<totfact> 0.64503321E+01</totfact>
</mgrwt>
</event>
<event>
 7    1  0.3113530E-004  0.2415967E+03  0.7546771E-02  0.1279594E+00
          2   -1    0    0  502    0  0.00000000000E+00  0.00000000000E+00  0.32896040305E+03  0.32896040305E+03  0.00000000000E+00 0. -1.
          1   -1    0    0  503    0 -0.00000000000E+00 -0.00000000000E+00 -0.99364189873E+03  0.99364189873E+03  0.00000000000E+00 0. -1.
         25    2    1    2    0    0 -0.13834108117E+03 -0.22663892756E+03  0.14551707972E+03  0.32757374358E+03  0.12500351503E+03 0.  0.
          4    1    3    3  501    0 -0.47600386391E+01 -0.64658497072E+02  0.89040318645E+02  0.11015067161E+03  0.12700000000E+01 0. -1.
         -4    1    3    3    0  501 -0.13358104253E+03 -0.16198043049E+03  0.56476761071E+02  0.21742307197E+03  0.12700000000E+01 0. -1.
          2    1    1    2  502    0 -0.12438917094E+02  0.39768854405E+02  0.70659173620E+02  0.82030526366E+02  0.00000000000E+00 0. -1.
          1    1    1    2  503    0  0.15077999827E+03  0.18687007315E+03 -0.88085774901E+03  0.91299803183E+03  0.00000000000E+00 0. -1.
<mgrwt>
<rscale>  0 0.10033465E+03</rscale>
<asrwt>0</asrwt>
<pdfrwt beam="1">  1        2 0.50609294E-01 0.41668795E+02</pdfrwt>
<pdfrwt beam="2">  1        1 0.15286798E+00 0.24159668E+03</pdfrwt>
<totfact> 0.21893725E+02</totfact>
</mgrwt>
</event>
<event>
 7    1  0.3113530E-004  0.4136214E+02  0.7546771E-02  0.1561378E+00
          2   -1    0    0  503    0  0.00000000000E+00  0.00000000000E+00  0.83358460395E+02  0.83358460395E+02  0.00000000000E+00 0. -1.
         -1   -1    0    0    0  501 -0.00000000000E+00 -0.00000000000E+00 -0.17842377685E+03  0.17842377685E+03  0.00000000000E+00 0.  1.
         25    2    1    2    0    0  0.12611285796E+02  0.25494541490E+02 -0.11730053564E+03  0.17376739647E+03  0.12500670478E+03 0.  0.
          4    1    3    3  502    0  0.45447985875E+02  0.60360974057E+02 -0.48024367913E+02  0.89537251592E+02  0.12700000000E+01 0.  1.
         -4    1    3    3    0  502 -0.32836700079E+02 -0.34866432567E+02 -0.69276167727E+02  0.84230144882E+02  0.12700000000E+01 0.  1.
          2    1    1    2  503    0  0.49297853712E+01  0.26848887399E+02  0.17894346971E+02  0.32640055023E+02  0.00000000000E+00 0. -1.
         -1    1    1    2    0  501 -0.17541071167E+02 -0.52343428889E+02  0.43408722092E+01  0.55374785752E+02  0.00000000000E+00 0.  1.
<mgrwt>
<rscale>  0 0.33601966E+02</rscale>
<asrwt>0</asrwt>
<pdfrwt beam="1">  1        2 0.12824379E-01 0.27297720E+02</pdfrwt>
<pdfrwt beam="2">  1       -1 0.27449811E-01 0.41362141E+02</pdfrwt>
<totfact> 0.53377266E+03</totfact>
</mgrwt>
</event>
<event>
 7    1  0.3113530E-004  0.7989261E+02  0.7546771E-02  0.1366547E+00
          1   -1    0    0  503    0  0.00000000000E+00  0.00000000000E+00  0.33850753056E+03  0.33850753056E+03  0.00000000000E+00 0. -1.
          1   -1    0    0  502    0 -0.00000000000E+00 -0.00000000000E+00 -0.27470657419E+04  0.27470657419E+04  0.00000000000E+00 0. -1.
         25    2    1    2    0    0  0.10765969864E+03 -0.99652180194E+01 -0.25759826035E+03  0.30606112561E+03  0.12500653020E+03 0.  0.
          4    1    3    3  501    0  0.12968516840E+02 -0.25839799941E+02  0.22622311365E+01  0.29027715717E+02  0.12700000000E+01 0. -1.
         -4    1    3    3    0  501  0.94691181799E+02  0.15874581922E+02 -0.25986049149E+03  0.27703340989E+03  0.12700000000E+01 0. -1.
          1    1    1    2  502    0 -0.36295472685E+02  0.45381172321E+02 -0.24598383655E+04  0.24605246588E+04  0.00000000000E+00 0. -1.
          1    1    1    2  503    0 -0.71364225954E+02 -0.35415954301E+02  0.30887841453E+03  0.31898748804E+03  0.00000000000E+00 0. -1.
<mgrwt>
<rscale>  0 0.68136531E+02</rscale>
<asrwt>0</asrwt>
<pdfrwt beam="1">  1        1 0.52078081E-01 0.79892606E+02</pdfrwt>
<pdfrwt beam="2">  1        1 0.42262550E+00 0.58110345E+02</pdfrwt>
<totfact> 0.12541343E+01</totfact>
</mgrwt>
</event>
<event>
 7    1  0.3113530E-004  0.7016626E+02  0.7546771E-02  0.1399210E+00
          1   -1    0    0  502    0  0.00000000000E+00  0.00000000000E+00  0.14763251867E+02  0.14763251867E+02  0.00000000000E+00 0. -1.
          1   -1    0    0  503    0 -0.00000000000E+00 -0.00000000000E+00 -0.25632386165E+04  0.25632386165E+04  0.00000000000E+00 0. -1.
         25    2    1    2    0    0 -0.97943814660E+02 -0.45416745993E+02 -0.94823360642E+03  0.96251048739E+03  0.12499517731E+03 0.  0.
          4    1    3    3  501    0 -0.86149827711E+02 -0.25581163380E+02 -0.92629201431E+03  0.93064208878E+03  0.12700000000E+01 0.  1.
         -4    1    3    3    0  501 -0.11793986949E+02 -0.19835582613E+02 -0.21941592107E+02  0.31868398609E+02  0.12700000000E+01 0.  1.
          1    1    1    2  502    0  0.31320390969E+02  0.39930861360E+02 -0.86600934626E+02  0.10037510875E+03  0.00000000000E+00 0. -1.
          1    1    1    2  503    0  0.66623423691E+02  0.54858846323E+01 -0.15136408236E+04  0.15151162723E+04  0.00000000000E+00 0. -1.
<mgrwt>
<rscale>  0 0.59672888E+02</rscale>
<asrwt>0</asrwt>
<pdfrwt beam="1">  1        1 0.22712702E-02 0.50748799E+02</pdfrwt>
<pdfrwt beam="2">  1        1 0.39434428E+00 0.70166262E+02</pdfrwt>
<totfact> 0.86116829E+02</totfact>
</mgrwt>
</event>
<event>
 7    1  0.3113530E-004  0.1843486E+03  0.7546771E-02  0.1265696E+00
         -2   -1    0    0    0  501 -0.00000000000E+00  0.00000000000E+00  0.13111587194E+03  0.13111587194E+03  0.00000000000E+00 0.  1.
          2   -1    0    0  503    0  0.00000000000E+00 -0.00000000000E+00 -0.99032119045E+03  0.99032119045E+03  0.00000000000E+00 0. -1.
         25    2    1    2    0    0 -0.91842280766E+02 -0.13811178773E+03 -0.13812164124E+03  0.24942280257E+03  0.12499710484E+03 0.  0.
          4    1    3    3  502    0 -0.97083454011E+02 -0.14880933440E+03 -0.15001516723E+03  0.23254156262E+03  0.12700000000E+01 0. -1.
         -4    1    3    3    0  502  0.52411732449E+01  0.10697546674E+02  0.11893525988E+02  0.16881239950E+02  0.12700000000E+01 0. -1.
          2    1    1    2  503    0 -0.61701620066E+02  0.94964009537E+01 -0.65952641054E+03  0.66247442045E+03  0.00000000000E+00 0. -1.
         -2    1    1    2    0  501  0.15354390083E+03  0.12861538677E+03 -0.61557266720E+02  0.20953983937E+03  0.00000000000E+00 0.  1.
<mgrwt>
<rscale>  0 0.10727787E+03</rscale>
<asrwt>0</asrwt>
<pdfrwt beam="2">  1        2 0.15235711E+00 0.62428131E+02</pdfrwt>
<pdfrwt beam="1">  1       -2 0.20171671E-01 0.18434863E+03</pdfrwt>
<totfact> 0.58920741E+02</totfact>
</mgrwt>
</event>
<event>
 7    1  0.3113530E-004  0.1401578E+03  0.7546771E-02  0.1245579E+00
          2   -1    0    0  503    0  0.00000000000E+00  0.00000000000E+00  0.11528624882E+03  0.11528624882E+03  0.00000000000E+00 0. -1.
          2   -1    0    0  502    0 -0.00000000000E+00 -0.00000000000E+00 -0.29217113797E+04  0.29217113797E+04  0.00000000000E+00 0. -1.
         25    2    1    2    0    0  0.11776355464E+02  0.55141979371E+02  0.19782948494E+02  0.13852865341E+03  0.12497800738E+03 0.  0.
          4    1    3    3  501    0  0.49009934763E+02  0.56638500797E+02 -0.26172160145E+02  0.79350414899E+02  0.12700000000E+01 0.  1.
         -4    1    3    3    0  501 -0.37233579298E+02 -0.14965214258E+01  0.45955108639E+02  0.59178238515E+02  0.12700000000E+01 0.  1.
          2    1    1    2  502    0  0.51951480459E+02 -0.13246793435E+03 -0.27873754794E+04  0.27910049755E+04  0.00000000000E+00 0. -1.
          2    1    1    2  503    0 -0.63727835923E+02  0.77325954979E+02 -0.38832599901E+02  0.10746399955E+03  0.00000000000E+00 0. -1.
<mgrwt>
<rscale>  0 0.11850805E+03</rscale>
<asrwt>0</asrwt>
<pdfrwt beam="1">  1        2 0.17736347E-01 0.10020250E+03</pdfrwt>
<pdfrwt beam="2">  1        2 0.44949404E+00 0.14015776E+03</pdfrwt>
<totfact> 0.12174192E+02</totfact>
</mgrwt>
</event>
<event>
 7    1  0.3113530E-004  0.5360118E+02  0.7546771E-02  0.1428564E+00
          2   -1    0    0  502    0  0.00000000000E+00  0.00000000000E+00  0.84853194321E+03  0.84853194321E+03  0.00000000000E+00 0. -1.
          2   -1    0    0  503    0 -0.00000000000E+00 -0.00000000000E+00 -0.14106086602E+04  0.14106086602E+04  0.00000000000E+00 0. -1.
         25    2    1    2    0    0 -0.64524916035E+02 -0.84105251747E+02  0.14836823154E+03  0.22107673915E+03  0.12499853720E+03 0.  0.
          4    1    3    3  501    0 -0.75079207299E+02 -0.63655841035E+02  0.16535950149E+03  0.19244305937E+03  0.12700000000E+01 0.  1.
         -4    1    3    3    0  501  0.10554291264E+02 -0.20449410712E+02 -0.16991269957E+02  0.28633679772E+02  0.12700000000E+01 0.  1.
          2    1    1    2  502    0  0.28678551617E+02  0.44451384132E+02  0.66223451334E+03  0.66434398886E+03  0.00000000000E+00 0. -1.
          2    1    1    2  503    0  0.35846364418E+02  0.39653867615E+02 -0.13726794619E+04  0.13737198755E+04  0.00000000000E+00 0. -1.
<mgrwt>
<rscale>  0 0.53249319E+02</rscale>
<asrwt>0</asrwt>
<pdfrwt beam="1">  1        2 0.13054338E+00 0.52899763E+02</pdfrwt>
<pdfrwt beam="2">  1        2 0.21701671E+00 0.53601185E+02</pdfrwt>
<totfact> 0.94651326E+01</totfact>
</mgrwt>
</event>
<event>
 7    1  0.3113530E-004  0.6169690E+02  0.7546771E-02  0.1506920E+00
          2   -1    0    0  502    0  0.00000000000E+00  0.00000000000E+00  0.12185443731E+04  0.12185443731E+04  0.00000000000E+00 0. -1.
          2   -1    0    0  503    0 -0.00000000000E+00 -0.00000000000E+00 -0.15900795388E+03  0.15900795388E+03  0.00000000000E+00 0. -1.
         25    2    1    2    0    0 -0.48337136430E+02 -0.52368603890E+02  0.62457946380E+03  0.64093902428E+03  0.12499750726E+03 0.  0.
          4    1    3    3  501    0  0.11877888028E+02  0.14580612231E+02  0.13317547584E+02  0.23079177860E+02  0.12700000000E+01 0. -1.
         -4    1    3    3    0  501 -0.60215024458E+02 -0.66949216121E+02  0.61126191621E+03  0.61785984642E+03  0.12700000000E+01 0. -1.
          2    1    1    2  502    0  0.54305108451E+02  0.26896344382E+02  0.58306830540E+03  0.58620909828E+03  0.00000000000E+00 0. -1.
          2    1    1    2  503    0 -0.59679720212E+01  0.25472259508E+02 -0.14811135001E+03  0.15040420438E+03  0.00000000000E+00 0. -1.
<mgrwt>
<rscale>  0 0.40176078E+02</rscale>
<asrwt>0</asrwt>
<pdfrwt beam="1">  1        2 0.18746836E+00 0.61696903E+02</pdfrwt>
<pdfrwt beam="2">  1        2 0.24462763E-01 0.26162047E+02</pdfrwt>
<totfact> 0.67801137E+02</totfact>
</mgrwt>
</event>
<event>
 7    1  0.3113530E-004  0.6948862E+02  0.7546771E-02  0.1441005E+00
         -1   -1    0    0    0  501 -0.00000000000E+00  0.00000000000E+00  0.20024377319E+03  0.20024377319E+03  0.00000000000E+00 0.  1.
          2   -1    0    0  503    0  0.00000000000E+00 -0.00000000000E+00 -0.82356601692E+02  0.82356601692E+02  0.00000000000E+00 0. -1.
         25    2    1    2    0    0  0.59658388887E+02  0.40244635344E+02  0.53879319198E+02  0.15396630341E+03  0.12499554996E+03 0.  0.
          4    1    3    3  502    0  0.52724904713E+01  0.63224037408E+02 -0.12969936529E+02  0.64768126540E+02  0.12700000000E+01 0. -1.
         -4    1    3    3    0  502  0.54385898415E+02 -0.22979402064E+02  0.66849255726E+02  0.89198176869E+02  0.12700000000E+01 0. -1.
          2    1    1    2  503    0 -0.71342400014E+02 -0.49729482554E+01  0.27727213547E+02  0.76702455145E+02  0.00000000000E+00 0. -1.
         -1    1    1    2    0  501  0.11684011128E+02 -0.35271687089E+02  0.36280638753E+02  0.51931616328E+02  0.00000000000E+00 0.  1.
<mgrwt>
<rscale>  0 0.50812954E+02</rscale>
<asrwt>0</asrwt>
<pdfrwt beam="2">  1        2 0.12670246E-01 0.69488620E+02</pdfrwt>
<pdfrwt beam="1">  1       -1 0.30806734E-01 0.37156534E+02</pdfrwt>
<totfact> 0.47711540E+03</totfact>
</mgrwt>
</event>
<event>
 7    1  0.3113530E-004  0.1232320E+03  0.7546771E-02  0.1386973E+00
         -2   -1    0    0    0  501 -0.00000000000E+00  0.00000000000E+00  0.49564223900E+02  0.49564223900E+02  0.00000000000E+00 0.  1.
          1   -1    0    0  503    0  0.00000000000E+00 -0.00000000000E+00 -0.62270364984E+03  0.62270364984E+03  0.00000000000E+00 0. -1.
         25    2    1    2    0    0 -0.13508738295E+03  0.25352744302E+02 -0.25273955596E+03  0.31367793575E+03  0.12500080620E+03 0.  0.
          4    1    3    3  502    0 -0.11099464887E+03  0.72624848391E+02 -0.18420862027E+03  0.22699913957E+03  0.12700000000E+01 0.  1.
         -4    1    3    3    0  502 -0.24092734071E+02 -0.47272104090E+02 -0.68530935696E+02  0.86678796181E+02  0.12700000000E+01 0.  1.
          1    1    1    2  503    0  0.11858960557E+03  0.19112136820E+01 -0.29463178079E+03  0.31760830206E+03  0.00000000000E+00 0. -1.
         -2    1    1    2    0  501  0.16497777376E+02 -0.27263957984E+02 -0.25768089185E+02  0.40981635930E+02  0.00000000000E+00 0.  1.
<mgrwt>
<rscale>  0 0.62665975E+02</rscale>
<asrwt>0</asrwt>
<pdfrwt beam="2">  1        1 0.95800560E-01 0.12323203E+03</pdfrwt>
<pdfrwt beam="1">  1       -2 0.76252653E-02 0.31866912E+02</pdfrwt>
<totfact> 0.25778969E+03</totfact>
</mgrwt>
</event>
<event>
 7    1  0.3113530E-004  0.4086573E+02  0.7546771E-02  0.1506428E+00
         -2   -1    0    0    0  501 -0.00000000000E+00  0.00000000000E+00  0.54911201926E+01  0.54911201926E+01  0.00000000000E+00 0.  1.
          2   -1    0    0  503    0  0.00000000000E+00 -0.00000000000E+00 -0.21824951874E+04  0.21824951874E+04  0.00000000000E+00 0. -1.
         25    2    1    2    0    0 -0.70663766278E+01  0.80612541571E+01 -0.14420300494E+04  0.14474772141E+04  0.12499881877E+03 0.  0.
          4    1    3    3  502    0 -0.40326693768E+02 -0.82789085999E+01 -0.13010757588E+04  0.13017275159E+04  0.12700000000E+01 0. -1.
         -4    1    3    3    0  502  0.33260317140E+02  0.16340162757E+02 -0.14095429054E+03  0.14574969824E+03  0.12700000000E+01 0. -1.
          2    1    1    2  503    0 -0.21644589154E+02  0.33197748451E+02 -0.28682357113E+03  0.28954851010E+03  0.00000000000E+00 0. -1.
         -2    1    1    2    0  501  0.28710965782E+02 -0.41259002608E+02 -0.44815044669E+03  0.45096058333E+03  0.00000000000E+00 0.  1.
<mgrwt>
<rscale>  0 0.40243392E+02</rscale>
<asrwt>0</asrwt>
<pdfrwt beam="2">  1        2 0.33576842E+00 0.39630528E+02</pdfrwt>
<pdfrwt beam="1">  1       -2 0.84478789E-03 0.40865734E+02</pdfrwt>
<totfact> 0.14900936E+04</totfact>
</mgrwt>
</event>
<event>
 7    1  0.3113530E-004  0.6386416E+02  0.7546771E-02  0.1444689E+00
          2   -1    0    0  503    0  0.00000000000E+00  0.00000000000E+00  0.88280205237E+03  0.88280205237E+03  0.00000000000E+00 0. -1.
         -1   -1    0    0    0  501 -0.00000000000E+00 -0.00000000000E+00 -0.12876144721E+03  0.12876144721E+03  0.00000000000E+00 0.  1.
         25    2    1    2    0    0 -0.27564070261E+02  0.94415670057E+01  0.34386253466E+03  0.36703575282E+03  0.12499951978E+03 0.  0.
          4    1    3    3  502    0 -0.19032659685E+02  0.55652185878E+02  0.81614982638E+02  0.10060828106E+03  0.12700000000E+01 0. -1.
         -4    1    3    3    0  502 -0.85314105760E+01 -0.46210618872E+02  0.26224755203E+03  0.26642747176E+03  0.12700000000E+01 0. -1.
          2    1    1    2  503    0 -0.37138577103E+02 -0.12962216188E+02  0.51759074295E+03  0.51908329789E+03  0.00000000000E+00 0. -1.
         -1    1    1    2    0  501  0.64702647364E+02  0.35206491827E+01 -0.10741267246E+03  0.12544444887E+03  0.00000000000E+00 0.  1.
<mgrwt>
<rscale>  0 0.50121232E+02</rscale>
<asrwt>0</asrwt>
<pdfrwt beam="1">  1        2 0.13581570E+00 0.39335645E+02</pdfrwt>
<pdfrwt beam="2">  1       -1 0.19809454E-01 0.63864159E+02</pdfrwt>
<totfact> 0.75602639E+02</totfact>
</mgrwt>
</event>
<event>
 7    1  0.3113530E-004  0.4634440E+02  0.7546771E-02  0.1477738E+00
          2   -1    0    0  503    0  0.00000000000E+00  0.00000000000E+00  0.35883393764E+03  0.35883393764E+03  0.00000000000E+00 0. -1.
         -1   -1    0    0    0  501 -0.00000000000E+00 -0.00000000000E+00 -0.74548489541E+02  0.74548489541E+02  0.00000000000E+00 0.  1.
         25    2    1    2    0    0  0.26622691765E+02  0.40732311362E+02  0.30786512377E+03  0.33581469706E+03  0.12499074935E+03 0.  0.
          4    1    3    3  502    0  0.75736802171E+02  0.10883041830E+02  0.16883949801E+03  0.18537230859E+03  0.12700000000E+01 0. -1.
         -4    1    3    3    0  502 -0.49114110406E+02  0.29849269531E+02  0.13902562576E+03  0.15044238847E+03  0.12700000000E+01 0. -1.
          2    1    1    2  503    0  0.19681388289E+02 -0.42664998390E+02 -0.36736663765E+01  0.47129130665E+02  0.00000000000E+00 0. -1.
         -1    1    1    2    0  501 -0.46304080054E+02  0.19326870279E+01 -0.19906009294E+02  0.50438599454E+02  0.00000000000E+00 0.  1.
<mgrwt>
<rscale>  0 0.44460468E+02</rscale>
<asrwt>0</asrwt>
<pdfrwt beam="1">  1        2 0.55205220E-01 0.42653123E+02</pdfrwt>
<pdfrwt beam="2">  1       -1 0.11468999E-01 0.46344397E+02</pdfrwt>
<totfact> 0.45176179E+03</totfact>
</mgrwt>
</event>
<event>
 7    1  0.3113530E-004  0.4971454E+02  0.7546771E-02  0.1497065E+00
          1   -1    0    0  503    0 -0.00000000000E+00  0.00000000000E+00  0.33135459016E+03  0.33135459016E+03  0.00000000000E+00 0. -1.
          2   -1    0    0  502    0  0.00000000000E+00 -0.00000000000E+00 -0.14544119594E+04  0.14544119594E+04  0.00000000000E+00 0.  1.
         25    2    1    2    0    0 -0.31925908064E+01 -0.21479967381E+02 -0.18673593976E+01  0.12689537915E+03  0.12500947397E+03 0.  0.
          4    1    3    3  501    0 -0.42246329043E+02  0.20476645490E+02  0.35139742689E+02  0.58655432352E+02  0.12700000000E+01 0. -1.
         -4    1    3    3    0  501  0.39053738237E+02 -0.41956612871E+02 -0.37007102087E+02  0.68239946796E+02  0.12700000000E+01 0. -1.
          2    1    1    2  502    0  0.24286801279E+02 -0.24834070829E+02 -0.13874028087E+04  0.13878375745E+04  0.00000000000E+00 0.  1.
          1    1    1    2  503    0 -0.21094210473E+02  0.46314038209E+02  0.26621279881E+03  0.27103359589E+03  0.00000000000E+00 0. -1.
<mgrwt>
<rscale>  0 0.41555712E+02</rscale>
<asrwt>0</asrwt>
<pdfrwt beam="2">  1        2 0.22375569E+00 0.34735857E+02</pdfrwt>
<pdfrwt beam="1">  1        1 0.50977629E-01 0.49714540E+02</pdfrwt>
<totfact> 0.18097296E+02</totfact>
</mgrwt>
</event>
<event>
 7    1  0.3113530E-004  0.7636529E+02  0.7546771E-02  0.1356227E+00
          1   -1    0    0  503    0 -0.00000000000E+00  0.00000000000E+00  0.22838827454E+03  0.22838827454E+03  0.00000000000E+00 0. -1.
          2   -1    0    0  502    0  0.00000000000E+00 -0.00000000000E+00 -0.48211937519E+03  0.48211937519E+03  0.00000000000E+00 0. -1.
         25    2    1    2    0    0  0.79824879412E+01 -0.57345067548E+02  0.31376871340E+02  0.14128736862E+03  0.12500174235E+03 0.  0.
          4    1    3    3  501    0  0.21302857300E+02  0.21974272606E+02  0.50076667706E+02  0.58702350330E+02  0.12700000000E+01 0. -1.
         -4    1    3    3    0  501 -0.13320369359E+02 -0.79319340155E+02 -0.18699796365E+02  0.82585018294E+02  0.12700000000E+01 0. -1.
          2    1    1    2  502    0 -0.70195159582E+02  0.34454268705E+02 -0.41558055260E+03  0.42287309298E+03  0.00000000000E+00 0. -1.
          1    1    1    2  503    0  0.62212671641E+02  0.22890798843E+02  0.13047258061E+03  0.14634718814E+03  0.00000000000E+00 0. -1.
<mgrwt>
<rscale>  0 0.71149691E+02</rscale>
<asrwt>0</asrwt>
<pdfrwt beam="2">  1        2 0.74172212E-01 0.76365287E+02</pdfrwt>
<pdfrwt beam="1">  1        1 0.35136658E-01 0.66290310E+02</pdfrwt>
<totfact> 0.10940996E+03</totfact>
</mgrwt>
</event>
<event>
 7    1  0.3113530E-004  0.1219979E+03  0.7546771E-02  0.1383606E+00
         -1   -1    0    0    0  501 -0.00000000000E+00  0.00000000000E+00  0.44896301463E+02  0.44896301463E+02  0.00000000000E+00 0.  1.
          1   -1    0    0  503    0  0.00000000000E+00 -0.00000000000E+00 -0.11965680612E+04  0.11965680612E+04  0.00000000000E+00 0. -1.
         25    2    1    2    0    0 -0.21605967831E+02 -0.10096095010E+03 -0.37680245913E+03  0.41020177175E+03  0.12500187620E+03 0.  0.
          4    1    3    3  502    0 -0.65920752296E+02 -0.37813427665E+02 -0.11988303688E+03  0.14194701943E+03  0.12700000000E+01 0. -1.
         -4    1    3    3    0  502  0.44314784465E+02 -0.63147522430E+02 -0.25691942226E+03  0.26825475232E+03  0.12700000000E+01 0. -1.
          1    1    1    2  503    0  0.16616571746E+02 -0.28601779371E+02 -0.65133915723E+03  0.65217855682E+03  0.00000000000E+00 0. -1.
         -1    1    1    2    0  501  0.49893960849E+01  0.12956272947E+03 -0.12353014336E+03  0.17908403407E+03  0.00000000000E+00 0.  1.
<mgrwt>
<rscale>  0 0.63525437E+02</rscale>
<asrwt>0</asrwt>
<pdfrwt beam="2">  1        1 0.18408739E+00 0.33078274E+02</pdfrwt>
<pdfrwt beam="1">  1       -1 0.69071234E-02 0.12199793E+03</pdfrwt>
<totfact> 0.13848906E+03</totfact>
</mgrwt>
</event>
<event>
 7    1  0.3113530E-004  0.3812615E+02  0.7546771E-02  0.1549878E+00
          1   -1    0    0  502    0  0.00000000000E+00  0.00000000000E+00  0.34470337625E+03  0.34470337625E+03  0.00000000000E+00 0. -1.
          1   -1    0    0  503    0 -0.00000000000E+00 -0.00000000000E+00 -0.41019535157E+03  0.41019535157E+03  0.00000000000E+00 0. -1.
         25    2    1    2    0    0  0.38792968060E+01  0.17139468248E+02  0.23391341664E+03  0.26579893760E+03  0.12499911372E+03 0.  0.
          4    1    3    3  501    0  0.50517431140E+02  0.40865123177E+02  0.79083344142E+02  0.10236091716E+03  0.12700000000E+01 0.  1.
         -4    1    3    3    0  501 -0.46638134334E+02 -0.23725654929E+02  0.15483007250E+03  0.16343802044E+03  0.12700000000E+01 0.  1.
          1    1    1    2  502    0 -0.30673677290E+02 -0.34390130363E+02  0.88557776691E+02  0.99830032341E+02  0.00000000000E+00 0. -1.
          1    1    1    2  503    0  0.26794380484E+02  0.17250662116E+02 -0.38796316865E+03  0.38926975788E+03  0.00000000000E+00 0. -1.
<mgrwt>
<rscale>  0 0.34856522E+02</rscale>
<asrwt>0</asrwt>
<pdfrwt beam="1">  1        1 0.53031288E-01 0.38126151E+02</pdfrwt>
<pdfrwt beam="2">  1        1 0.63106978E-01 0.31867290E+02</pdfrwt>
<totfact> 0.53554729E+02</totfact>
</mgrwt>
</event>
<event>
 7    1  0.3113530E-004  0.5232659E+02  0.7546771E-02  0.1549111E+00
         -1   -1    0    0    0  501 -0.00000000000E+00  0.00000000000E+00  0.85732372693E+03  0.85732372693E+03  0.00000000000E+00 0.  1.
          2   -1    0    0  503    0  0.00000000000E+00 -0.00000000000E+00 -0.60358474839E+03  0.60358474839E+03  0.00000000000E+00 0. -1.
         25    2    1    2    0    0  0.52516122956E+02  0.36806547495E+02 -0.16499899893E+03  0.21670945289E+03  0.12500260882E+03 0.  0.
          4    1    3    3  502    0 -0.32435059079E+02 -0.19121511247E+02 -0.33125359229E+02  0.50165402159E+02  0.12700000000E+01 0. -1.
         -4    1    3    3    0  502  0.84951182034E+02  0.55928058742E+02 -0.13187363971E+03  0.16654405073E+03  0.12700000000E+01 0. -1.
          2    1    1    2  503    0 -0.22538625989E+02  0.60400877737E+01 -0.41157755288E+03  0.41223846783E+03  0.00000000000E+00 0. -1.
         -1    1    1    2    0  501 -0.29977496967E+02 -0.42846635269E+02  0.83031553035E+03  0.83196055460E+03  0.00000000000E+00 0.  1.
<mgrwt>
<rscale>  0 0.34942596E+02</rscale>
<asrwt>0</asrwt>
<pdfrwt beam="2">  1        2 0.92859192E-01 0.23333931E+02</pdfrwt>
<pdfrwt beam="1">  1       -1 0.13189596E+00 0.52326590E+02</pdfrwt>
<totfact> 0.35258084E+01</totfact>
</mgrwt>
</event>
<event>
 7    1  0.3336032E-004  0.5923475E+02  0.7546771E-02  0.1444983E+00
          2   -1    0    0  503    0  0.00000000000E+00  0.00000000000E+00  0.10933832441E+04  0.10933832441E+04  0.00000000000E+00 0. -1.
         -1   -1    0    0    0  501 -0.00000000000E+00 -0.00000000000E+00 -0.13697722806E+02  0.13697722806E+02  0.00000000000E+00 0.  1.
         25    2    1    2    0    0  0.44167362922E+01 -0.64663037378E+02  0.65595904772E+03  0.67090288202E+03  0.12501035498E+03 0.  0.
          4    1    3    3  502    0 -0.37010509997E+02  0.11001312111E+02  0.37530760413E+03  0.37729062715E+03  0.12700000000E+01 0.  1.
         -4    1    3    3    0  502  0.41427246289E+02 -0.75664349488E+02  0.28065144359E+03  0.29361225487E+03  0.12700000000E+01 0.  1.
          2    1    1    2  503    0  0.37315375554E+02  0.19958212359E+02  0.17201051572E+03  0.17713945075E+03  0.00000000000E+00 0. -1.
         -1    1    1    2    0  501 -0.41732111846E+02  0.44704825019E+02  0.25171595788E+03  0.25903863416E+03  0.00000000000E+00 0.  1.
<mgrwt>
<rscale>  0 0.50066596E+02</rscale>
<asrwt>0</asrwt>
<pdfrwt beam="1">  1        2 0.16821274E+00 0.42317461E+02</pdfrwt>
<pdfrwt beam="2">  1       -1 0.21073428E-02 0.59234747E+02</pdfrwt>
<totfact> 0.15321431E+04</totfact>
</mgrwt>
</event>
<event>
 7    1  0.3113530E-004  0.1609332E+03  0.7546771E-02  0.1274431E+00
          2   -1    0    0  502    0  0.00000000000E+00  0.00000000000E+00  0.17354301714E+04  0.17354301714E+04  0.00000000000E+00 0. -1.
          2   -1    0    0  503    0 -0.00000000000E+00 -0.00000000000E+00 -0.10189419440E+04  0.10189419440E+04  0.00000000000E+00 0. -1.
         25    2    1    2    0    0 -0.11081482987E+03  0.66937781718E+02  0.42229074865E+02  0.18485348617E+03  0.12500769354E+03 0.  0.
          4    1    3    3  501    0 -0.11075197741E+03  0.62828650553E+02  0.77667307126E+02  0.14915516527E+03  0.12700000000E+01 0. -1.
         -4    1    3    3    0  501 -0.62852464171E-01  0.41091311654E+01 -0.35438232262E+02  0.35698320902E+02  0.12700000000E+01 0. -1.
          2    1    1    2  502    0 -0.50704568003E+02 -0.41810079757E+02  0.16141661188E+04  0.16155034184E+04  0.00000000000E+00 0. -1.
          2    1    1    2  503    0  0.16151939787E+03 -0.25127701961E+02 -0.93990696622E+03  0.95401521080E+03  0.00000000000E+00 0. -1.
<mgrwt>
<rscale>  0 0.10284177E+03</rscale>
<asrwt>0</asrwt>
<pdfrwt beam="1">  1        2 0.26698926E+00 0.65719373E+02</pdfrwt>
<pdfrwt beam="2">  1        2 0.15676030E+00 0.16093320E+03</pdfrwt>
<totfact> 0.47939824E+01</totfact>
</mgrwt>
</event>
<event>
 7    1  0.3113530E-004  0.9134803E+02  0.7546771E-02  0.1365518E+00
          1   -1    0    0  503    0  0.00000000000E+00  0.00000000000E+00  0.22553482766E+04  0.22553482766E+04  0.00000000000E+00 0. -1.
         -1   -1    0    0    0  501 -0.00000000000E+00 -0.00000000000E+00 -0.11387050026E+02  0.11387050026E+02  0.00000000000E+00 0.  1.
         25    2    1    2    0    0 -0.18659208499E+02  0.11326997203E+03  0.10122938042E+04  0.10264219014E+04  0.12499968353E+03 0.  0.
          4    1    3    3  502    0 -0.66571703720E+02  0.38186103464E+02  0.57907661299E+03  0.58414151268E+03  0.12700000000E+01 0.  1.
         -4    1    3    3    0  502  0.47912495220E+02  0.75083868568E+02  0.43321719125E+03  0.44228038868E+03  0.12700000000E+01 0.  1.
          1    1    1    2  503    0  0.39127651769E+02 -0.33115812716E+02  0.73662582938E+03  0.73840723364E+03  0.00000000000E+00 0. -1.
         -1    1    1    2    0  501 -0.20468443270E+02 -0.80154159316E+02  0.49504159293E+03  0.50190619159E+03  0.00000000000E+00 0.  1.
<mgrwt>
<rscale>  0 0.68429072E+02</rscale>
<asrwt>0</asrwt>
<pdfrwt beam="1">  1        1 0.34697630E+00 0.51260415E+02</pdfrwt>
<pdfrwt beam="2">  1       -1 0.17518556E-02 0.91348029E+02</pdfrwt>
<totfact> 0.20923051E+03</totfact>
</mgrwt>
</event>
<event>
 7    1  0.3113530E-004  0.1355236E+03  0.7546771E-02  0.1243051E+00
          1   -1    0    0  503    0  0.00000000000E+00  0.00000000000E+00  0.38574737627E+04  0.38574737627E+04  0.00000000000E+00 0. -1.
         -1   -1    0    0    0  501 -0.00000000000E+00 -0.00000000000E+00 -0.49048496880E+02  0.49048496880E+02  0.00000000000E+00 0.  1.
         25    2    1    2    0    0 -0.55862195692E+02 -0.14609852784E+02  0.24325067894E+03  0.27951838262E+03  0.12500240284E+03 0.  0.
          4    1    3    3  502    0 -0.93822435775E+02 -0.73822469705E+01  0.20272067939E+03  0.22350488536E+03  0.12700000000E+01 0.  1.
         -4    1    3    3    0  502  0.37960240083E+02 -0.72276058134E+01  0.40529999543E+02  0.56013497266E+02  0.12700000000E+01 0.  1.
          1    1    1    2  503    0 -0.74359114436E+02  0.11330205221E+03  0.33688746664E+04  0.33715994944E+04  0.00000000000E+00 0. -1.
         -1    1    1    2    0  501  0.13022131013E+03 -0.98692199423E+02  0.19629992054E+03  0.25540438258E+03  0.00000000000E+00 0.  1.
<mgrwt>
<rscale>  0 0.12002795E+03</rscale>
<asrwt>0</asrwt>
<pdfrwt beam="1">  1        1 0.59345726E+00 0.13552355E+03</pdfrwt>
<pdfrwt beam="2">  1       -1 0.75459256E-02 0.10630410E+03</pdfrwt>
<totfact> 0.16696693E+01</totfact>
</mgrwt>
</event>
<event>
 7    1  0.4614108E-004  0.5685470E+02  0.7546771E-02  0.1474672E+00
          2   -1    0    0  503    0  0.00000000000E+00  0.00000000000E+00  0.31320304068E+04  0.31320304068E+04  0.00000000000E+00 0. -1.
         -1   -1    0    0    0  501 -0.00000000000E+00 -0.00000000000E+00 -0.45833857444E+01  0.45833857444E+01  0.00000000000E+00 0.  1.
         25    2    1    2    0    0  0.17940016455E+02 -0.52877264615E+02  0.14998947465E+04  0.15061299826E+04  0.12500169912E+03 0.  0.
          4    1    3    3  502    0 -0.10973447515E+02  0.38340169587E+02  0.35239268058E+03  0.35464432800E+03  0.12700000000E+01 0.  1.
         -4    1    3    3    0  502  0.28913463970E+02 -0.91217434201E+02  0.11475020659E+04  0.11514856546E+04  0.12700000000E+01 0.  1.
          2    1    1    2  503    0  0.31577765050E+02  0.16293439117E+02  0.68747069824E+03  0.68838840225E+03  0.00000000000E+00 0. -1.
         -1    1    1    2    0  501 -0.49517781505E+02  0.36583825498E+02  0.94008157637E+03  0.94209540770E+03  0.00000000000E+00 0.  1.
<mgrwt>
<rscale>  0 0.44947169E+02</rscale>
<asrwt>0</asrwt>
<pdfrwt beam="1">  1        2 0.48184912E+00 0.35533525E+02</pdfrwt>
<pdfrwt beam="2">  1       -1 0.70513877E-03 0.56854703E+02</pdfrwt>
<totfact> 0.67314650E+03</totfact>
</mgrwt>
</event>
<event>
 7    1  0.3113530E-004  0.7993172E+02  0.7546771E-02  0.1456818E+00
          1   -1    0    0  503    0 -0.00000000000E+00  0.00000000000E+00  0.25681190758E+03  0.25681190758E+03  0.00000000000E+00 0. -1.
          2   -1    0    0  502    0  0.00000000000E+00 -0.00000000000E+00 -0.81719013920E+03  0.81719013920E+03  0.00000000000E+00 0. -1.
         25    2    1    2    0    0 -0.76671178095E+02  0.42261981428E+02 -0.14943648813E+03  0.21359063923E+03  0.12500061022E+03 0.  0.
          4    1    3    3  501    0  0.25130085958E+01  0.68157641254E+02 -0.79955687539E+02  0.10510139934E+03  0.12700000000E+01 0.  1.
         -4    1    3    3    0  501 -0.79184186691E+02 -0.25895659826E+02 -0.69480800594E+02  0.10848923989E+03  0.12700000000E+01 0.  1.
          2    1    1    2  502    0  0.23190303353E+02  0.16984088674E+02 -0.62825111704E+03  0.62890835223E+03  0.00000000000E+00 0. -1.
          1    1    1    2  503    0  0.53480874743E+02 -0.59246070102E+02  0.21730937356E+03  0.23150305532E+03  0.00000000000E+00 0. -1.
<mgrwt>
<rscale>  0 0.47933305E+02</rscale>
<asrwt>0</asrwt>
<pdfrwt beam="2">  1        2 0.12572156E+00 0.28744555E+02</pdfrwt>
<pdfrwt beam="1">  1        1 0.39509524E-01 0.79931720E+02</pdfrwt>
<totfact> 0.54454741E+02</totfact>
</mgrwt>
</event>
<event>
 7    1  0.3113530E-004  0.1107535E+03  0.7546771E-02  0.1303802E+00
          2   -1    0    0  502    0  0.00000000000E+00  0.00000000000E+00  0.13306786700E+04  0.13306786700E+04  0.00000000000E+00 0. -1.
          2   -1    0    0  503    0 -0.00000000000E+00 -0.00000000000E+00 -0.18607900960E+03  0.18607900960E+03  0.00000000000E+00 0.  1.
         25    2    1    2    0    0  0.77131132166E+02  0.14580742306E+03  0.38879750481E+02  0.21058642282E+03  0.12500396118E+03 0.  0.
          4    1    3    3  501    0  0.79147921414E+02  0.16573539615E+03  0.23221652141E+02  0.18513096183E+03  0.12700000000E+01 0.  1.
         -4    1    3    3    0  501 -0.20167892478E+01 -0.19927973093E+02  0.15658098340E+02  0.25455460987E+02  0.12700000000E+01 0.  1.
          2    1    1    2  502    0 -0.54443134910E+02 -0.47878670262E+02  0.11793441827E+04  0.11815706171E+04  0.00000000000E+00 0. -1.
          2    1    1    2  503    0 -0.22687997256E+02 -0.97928752794E+02 -0.73624272818E+02  0.12460063961E+03  0.00000000000E+00 0.  1.
<mgrwt>
<rscale>  0 0.89608929E+02</rscale>
<asrwt>0</asrwt>
<pdfrwt beam="1">  1        2 0.20471979E+00 0.72501186E+02</pdfrwt>
<pdfrwt beam="2">  1        2 0.28627541E-01 0.11075350E+03</pdfrwt>
<totfact> 0.52058216E+02</totfact>
</mgrwt>
</event>
<event>
 7    1  0.3113530E-004  0.1863199E+03  0.7546771E-02  0.1178156E+00
          2   -1    0    0  503    0  0.00000000000E+00  0.00000000000E+00  0.11402549505E+04  0.11402549505E+04  0.00000000000E+00 0. -1.
         -1   -1    0    0    0  501 -0.00000000000E+00 -0.00000000000E+00 -0.24709882894E+03  0.24709882894E+03  0.00000000000E+00 0.  1.
         25    2    1    2    0    0 -0.40380048150E+02 -0.30473110648E+03  0.19253653617E+03  0.38364703493E+03  0.12499253619E+03 0.  0.
          4    1    3    3  502    0 -0.32413889311E+02 -0.64909995849E+01  0.25093809749E+02  0.41522349206E+02  0.12700000000E+01 0. -1.
         -4    1    3    3    0  502 -0.79661588387E+01 -0.29824010690E+03  0.16744272642E+03  0.34212468572E+03  0.12700000000E+01 0. -1.
          2    1    1    2  503    0 -0.38206355042E+02  0.17162745832E+03  0.80055921508E+03  0.81964063276E+03  0.00000000000E+00 0. -1.
         -1    1    1    2    0  501  0.78586403192E+02  0.13310364816E+03 -0.99939629685E+02  0.18406611177E+03  0.00000000000E+00 0.  1.
<mgrwt>
<rscale>  0 0.16970499E+03</rscale>
<asrwt>0</asrwt>
<pdfrwt beam="1">  1        2 0.17542384E+00 0.18631993E+03</pdfrwt>
<pdfrwt beam="2">  1       -1 0.38015205E-01 0.15457168E+03</pdfrwt>
<totfact> 0.17177964E+02</totfact>
</mgrwt>
</event>
<event>
 7    1  0.3113530E-004  0.5544000E+02  0.7546771E-02  0.1481017E+00
          3   -1    0    0  503    0 -0.00000000000E+00  0.00000000000E+00  0.73700795001E+02  0.73700795001E+02  0.00000000000E+00 0. -1.
          2   -1    0    0  502    0  0.00000000000E+00 -0.00000000000E+00 -0.10915576247E+04  0.10915576247E+04  0.00000000000E+00 0.  1.
         25    2    1    2    0    0  0.78960647101E+02  0.37060966668E+01 -0.12338415269E+03  0.19260069176E+03  0.12499143326E+03 0.  0.
          4    1    3    3  501    0  0.40170687976E+02 -0.15364790277E+02 -0.13985701749E+03  0.14632620816E+03  0.12700000000E+01 0.  1.
         -4    1    3    3    0  501  0.38789959125E+02  0.19070886944E+02  0.16472864804E+02  0.46274483602E+02  0.12700000000E+01 0.  1.
          2    1    1    2  502    0 -0.51903105270E+02  0.18239411503E+02 -0.92482017937E+03  0.92645505700E+03  0.00000000000E+00 0.  1.
          3    1    1    2  503    0 -0.27057541831E+02 -0.21945508170E+02  0.30347502383E+02  0.46202670915E+02  0.00000000000E+00 0. -1.
<mgrwt>
<rscale>  0 0.43948176E+02</rscale>
<asrwt>0</asrwt>
<pdfrwt beam="2">  1        2 0.16793193E+00 0.55439997E+02</pdfrwt>
<pdfrwt beam="1">  1        3 0.11338585E-01 0.34838426E+02</pdfrwt>
<totfact> 0.75233794E+02</totfact>
</mgrwt>
</event>
<event>
 7    1  0.3113530E-004  0.1096798E+03  0.7546771E-02  0.1341172E+00
         -2   -1    0    0    0  501 -0.00000000000E+00  0.00000000000E+00  0.15582949769E+03  0.15582949769E+03  0.00000000000E+00 0.  1.
          1   -1    0    0  503    0  0.00000000000E+00 -0.00000000000E+00 -0.23989578667E+03  0.23989578667E+03  0.00000000000E+00 0. -1.
         25    2    1    2    0    0 -0.97608181839E+02 -0.98444761064E+02  0.41599835473E+02  0.19123483897E+03  0.12498595594E+03 0.  0.
          4    1    3    3  502    0 -0.45136852624E+02 -0.11160179954E+03  0.59432549285E+02  0.13426145367E+03  0.12700000000E+01 0.  1.
         -4    1    3    3    0  502 -0.52471329215E+02  0.13157038480E+02 -0.17832713812E+02  0.56973385305E+02  0.12700000000E+01 0.  1.
          1    1    1    2  503    0  0.43053015773E+02  0.30034823221E+02 -0.10059790048E+03  0.11347065856E+03  0.00000000000E+00 0. -1.
         -2    1    1    2    0  501  0.54555166066E+02  0.68409937843E+02 -0.25068223977E+02  0.91019786825E+02  0.00000000000E+00 0.  1.
<mgrwt>
<rscale>  0 0.75878611E+02</rscale>
<asrwt>0</asrwt>
<pdfrwt beam="2">  1        1 0.36907044E-01 0.52494312E+02</pdfrwt>
<pdfrwt beam="1">  1       -2 0.23973769E-01 0.10967976E+03</pdfrwt>
<totfact> 0.15076652E+03</totfact>
</mgrwt>
</event>
<event>
 7    1  0.3113530E-004  0.4103808E+02  0.7546771E-02  0.1541793E+00
         -1   -1    0    0    0  501 -0.00000000000E+00  0.00000000000E+00  0.38959054933E+02  0.38959054933E+02  0.00000000000E+00 0.  1.
          2   -1    0    0  503    0  0.00000000000E+00 -0.00000000000E+00 -0.39917784499E+03  0.39917784499E+03  0.00000000000E+00 0. -1.
         25    2    1    2    0    0  0.58270990320E+02 -0.38019083448E+02 -0.19043774876E+03  0.23818408510E+03  0.12499665285E+03 0.  0.
          4    1    3    3  502    0 -0.25382753014E+02 -0.26298440116E+02 -0.84375331710E+01  0.37532612074E+02  0.12700000000E+01 0. -1.
         -4    1    3    3    0  502  0.83653743333E+02 -0.11720643331E+02 -0.18200021559E+03  0.20065147303E+03  0.12700000000E+01 0. -1.
          2    1    1    2  503    0 -0.32252474964E+02  0.20812890056E+02 -0.16374126514E+03  0.16818026175E+03  0.00000000000E+00 0. -1.
         -1    1    1    2    0  501 -0.26018515356E+02  0.17206193392E+02 -0.60397761558E+01  0.31772553067E+02  0.00000000000E+00 0.  1.
<mgrwt>
<rscale>  0 0.35778616E+02</rscale>
<asrwt>0</asrwt>
<pdfrwt beam="2">  1        2 0.61411973E-01 0.41038079E+02</pdfrwt>
<pdfrwt beam="1">  1       -1 0.59937010E-02 0.31193208E+02</pdfrwt>
<totfact> 0.10031390E+04</totfact>
</mgrwt>
</event>
<event>
 7    1  0.3113530E-004  0.9163824E+02  0.7546771E-02  0.1310559E+00
          2   -1    0    0  503    0  0.00000000000E+00  0.00000000000E+00  0.32868487345E+03  0.32868487345E+03  0.00000000000E+00 0. -1.
         -1   -1    0    0    0  501 -0.00000000000E+00 -0.00000000000E+00 -0.17327401396E+03  0.17327401396E+03  0.00000000000E+00 0.  1.
         25    2    1    2    0    0  0.70833748502E+02 -0.26060795521E+02  0.58826238416E+02  0.15742718112E+03  0.12500482406E+03 0.  0.
          4    1    3    3  502    0  0.10390023127E+03 -0.28327361294E+02  0.61721939276E+02  0.12413262320E+03  0.12700000000E+01 0.  1.
         -4    1    3    3    0  502 -0.33066482767E+02  0.22665657727E+01 -0.28957008601E+01  0.33294557911E+02  0.12700000000E+01 0.  1.
          2    1    1    2  503    0 -0.70998641116E+01  0.91905762876E+02  0.19154150092E+03  0.21256816294E+03  0.00000000000E+00 0. -1.
         -1    1    1    2    0  501 -0.63733884390E+02 -0.65844967355E+02 -0.94956879843E+02  0.13196354336E+03  0.00000000000E+00 0.  1.
<mgrwt>
<rscale>  0 0.86891632E+02</rscale>
<asrwt>0</asrwt>
<pdfrwt beam="1">  1        2 0.50566904E-01 0.82390882E+02</pdfrwt>
<pdfrwt beam="2">  1       -1 0.26657541E-01 0.91638244E+02</pdfrwt>
<totfact> 0.13783199E+03</totfact>
</mgrwt>
</event>
<event>
 7    1  0.3113530E-004  0.5190625E+02  0.7546771E-02  0.1469270E+00
         -2   -1    0    0    0  501 -0.00000000000E+00  0.00000000000E+00  0.26859929734E+03  0.26859929734E+03  0.00000000000E+00 0.  1.
          2   -1    0    0  503    0  0.00000000000E+00 -0.00000000000E+00 -0.14848725773E+03  0.14848725773E+03  0.00000000000E+00 0. -1.
         25    2    1    2    0    0 -0.44351598277E+02 -0.26217095615E+01 -0.99553837800E+01  0.13303902485E+03  0.12500533923E+03 0.  0.
          4    1    3    3  502    0 -0.71811572023E+02 -0.25741633454E+02 -0.40058585093E+02  0.86173294639E+02  0.12700000000E+01 0. -1.
         -4    1    3    3    0  502  0.27459973746E+02  0.23119923892E+02  0.30103201313E+02  0.46865730211E+02  0.12700000000E+01 0. -1.
          2    1    1    2  503    0  0.11370335210E+02 -0.38821334120E+02 -0.67944204255E+02  0.79074619174E+02  0.00000000000E+00 0. -1.
         -2    1    1    2    0  501  0.32981263067E+02  0.41443043681E+02  0.19801162765E+03  0.20497291105E+03  0.00000000000E+00 0.  1.
<mgrwt>
<rscale>  0 0.45822722E+02</rscale>
<asrwt>0</asrwt>
<pdfrwt beam="2">  1        2 0.22844193E-01 0.40452200E+02</pdfrwt>
<pdfrwt beam="1">  1       -2 0.41322969E-01 0.51906245E+02</pdfrwt>
<totfact> 0.12387051E+03</totfact>
</mgrwt>
</event>
<event>
 7    1  0.3113530E-004  0.1241112E+03  0.7546771E-02  0.1276491E+00
          1   -1    0    0  502    0  0.00000000000E+00  0.00000000000E+00  0.21988321640E+04  0.21988321640E+04  0.00000000000E+00 0. -1.
          1   -1    0    0  503    0 -0.00000000000E+00 -0.00000000000E+00 -0.10485861992E+03  0.10485861992E+03  0.00000000000E+00 0. -1.
         25    2    1    2    0    0  0.67190090689E+02  0.54383210053E+01  0.67707985246E+03  0.69181408410E+03  0.12500206691E+03 0.  0.
          4    1    3    3  501    0  0.24497762393E+02  0.64531442426E+02  0.31841335668E+03  0.32581148849E+03  0.12700000000E+01 0. -1.
         -4    1    3    3    0  501  0.42692328296E+02 -0.59093121420E+02  0.35866649578E+03  0.36600259561E+03  0.12700000000E+01 0. -1.
          1    1    1    2  502    0  0.42786040418E+02 -0.71764518207E+02  0.14703826330E+04  0.14727545208E+04  0.00000000000E+00 0. -1.
          1    1    1    2  503    0 -0.10997613111E+03  0.66326197202E+02 -0.53488941317E+02  0.13912217901E+03  0.00000000000E+00 0. -1.
<mgrwt>
<rscale>  0 0.10183140E+03</rscale>
<asrwt>0</asrwt>
<pdfrwt beam="1">  1        1 0.33828184E+00 0.83551130E+02</pdfrwt>
<pdfrwt beam="2">  1        1 0.16132097E-01 0.12411123E+03</pdfrwt>
<totfact> 0.11433272E+02</totfact>
</mgrwt>
</event>
<event>
 7    1  0.3113530E-004  0.3497304E+02  0.7546771E-02  0.1612662E+00
          1   -1    0    0  503    0 -0.00000000000E+00  0.00000000000E+00  0.28274756742E+03  0.28274756742E+03  0.00000000000E+00 0. -1.
          2   -1    0    0  502    0  0.00000000000E+00 -0.00000000000E+00 -0.86104659698E+03  0.86104659698E+03  0.00000000000E+00 0. -1.
         25    2    1    2    0    0  0.10397423814E+02  0.43259998609E+02  0.42877039979E+02  0.13943880685E+03  0.12500082559E+03 0.  0.
          4    1    3    3  501    0  0.34227216128E+02 -0.96619718428E+01 -0.29803608723E+02  0.46419004908E+02  0.12700000000E+01 0. -1.
         -4    1    3    3    0  501 -0.23829792314E+02  0.52921970452E+02  0.72680648702E+02  0.93019801946E+02  0.12700000000E+01 0. -1.
          2    1    1    2  502    0  0.14365469865E+02 -0.18709028039E+02 -0.81100615406E+03  0.81134910881E+03  0.00000000000E+00 0. -1.
          1    1    1    2  503    0 -0.24762893679E+02 -0.24550970570E+02  0.18983008453E+03  0.19300624873E+03  0.00000000000E+00 0. -1.
<mgrwt>
<rscale>  0 0.28721847E+02</rscale>
<asrwt>0</asrwt>
<pdfrwt beam="2">  1        2 0.13246871E+00 0.23588015E+02</pdfrwt>
<pdfrwt beam="1">  1        1 0.43499626E-01 0.34973036E+02</pdfrwt>
<totfact> 0.45705939E+02</totfact>
</mgrwt>
</event>
<event>
 7    1  0.3113530E-004  0.6635653E+02  0.7546771E-02  0.1485432E+00
          2   -1    0    0  503    0  0.00000000000E+00  0.00000000000E+00  0.33099650361E+04  0.33099650361E+04  0.00000000000E+00 0. -1.
         -3   -1    0    0    0  501 -0.00000000000E+00 -0.00000000000E+00 -0.20688699486E+03  0.20688699486E+03  0.00000000000E+00 0.  1.
         25    2    1    2    0    0  0.37417083383E+02 -0.14068796680E+02  0.26045644997E+03  0.29165301722E+03  0.12500380375E+03 0.  0.
          4    1    3    3  502    0  0.11875103790E+01  0.51397753914E+02  0.14703239218E+03  0.15576673759E+03  0.12700000000E+01 0.  1.
         -4    1    3    3    0  502  0.36229573004E+02 -0.65466550594E+02  0.11342405779E+03  0.13588627963E+03  0.12700000000E+01 0.  1.
          2    1    1    2  503    0 -0.58237920111E+02  0.33113674418E+02  0.30324977323E+04  0.30332376543E+04  0.00000000000E+00 0. -1.
         -3    1    1    2    0  501  0.20820836728E+02 -0.19044877738E+02 -0.18987614102E+03  0.19196135950E+03  0.00000000000E+00 0.  1.
<mgrwt>
<rscale>  0 0.43271243E+02</rscale>
<asrwt>0</asrwt>
<pdfrwt beam="1">  1        2 0.50922535E+00 0.66356531E+02</pdfrwt>
<pdfrwt beam="2">  1       -3 0.31828771E-01 0.28217275E+02</pdfrwt>
<totfact> 0.86839856E+00</totfact>
</mgrwt>
</event>
<event>
 7    1  0.3113530E-004  0.1824981E+03  0.7546771E-02  0.1281210E+00
          2   -1    0    0  503    0  0.00000000000E+00  0.00000000000E+00  0.88086891499E+03  0.88086891499E+03  0.00000000000E+00 0.  1.
          2   -1    0    0  502    0 -0.00000000000E+00 -0.00000000000E+00 -0.18382165451E+04  0.18382165451E+04  0.00000000000E+00 0. -1.
         25    2    1    2    0    0 -0.12233632249E+03  0.93091325653E+02 -0.38623097430E+02  0.20186359078E+03  0.12499997966E+03 0.  0.
          4    1    3    3  501    0 -0.82113429718E+02  0.11846886883E+03 -0.50652489478E+02  0.15278997288E+03  0.12700000000E+01 0.  1.
         -4    1    3    3    0  501 -0.40222892772E+02 -0.25377543180E+02  0.12029392047E+02  0.49073617900E+02  0.12700000000E+01 0.  1.
          2    1    1    2  502    0  0.11228361669E+03 -0.14647436730E+03 -0.17120849991E+04  0.17220038893E+04  0.00000000000E+00 0. -1.
          2    1    1    2  503    0  0.10052705803E+02  0.53383041643E+02  0.79336046639E+03  0.79521797997E+03  0.00000000000E+00 0.  1.
<mgrwt>
<rscale>  0 0.99566743E+02</rscale>
<asrwt>0</asrwt>
<pdfrwt beam="1">  1        2 0.13551830E+00 0.54321322E+02</pdfrwt>
<pdfrwt beam="2">  1        2 0.28280254E+00 0.18249807E+03</pdfrwt>
<totfact> 0.49174583E+01</totfact>
</mgrwt>
</event>
<event>
 7    1  0.3113530E-004  0.9207428E+02  0.7546771E-02  0.1362026E+00
          1   -1    0    0  503    0  0.00000000000E+00  0.00000000000E+00  0.13236845984E+04  0.13236845984E+04  0.00000000000E+00 0. -1.
          1   -1    0    0  502    0 -0.00000000000E+00 -0.00000000000E+00 -0.62301662874E+03  0.62301662874E+03  0.00000000000E+00 0. -1.
         25    2    1    2    0    0  0.14693581793E+02  0.47451533182E+02 -0.13377279791E+03  0.18970480405E+03  0.12500080748E+03 0.  0.
          4    1    3    3  501    0  0.54730431348E+02 -0.17935310351E+02 -0.62784382981E+02  0.85209078855E+02  0.12700000000E+01 0. -1.
         -4    1    3    3    0  501 -0.40036849555E+02  0.65386843533E+02 -0.70988414927E+02  0.10449572519E+03  0.12700000000E+01 0. -1.
          1    1    1    2  502    0 -0.46170385349E+02 -0.89296174283E+02 -0.45526334880E+03  0.46622980169E+03  0.00000000000E+00 0. -1.
          1    1    1    2  503    0  0.31476803556E+02  0.41844641101E+02  0.12897041164E+04  0.12907666214E+04  0.00000000000E+00 0. -1.
<mgrwt>
<rscale>  0 0.69434712E+02</rscale>
<asrwt>0</asrwt>
<pdfrwt beam="1">  1        1 0.20364378E+00 0.52361848E+02</pdfrwt>
<pdfrwt beam="2">  1        1 0.95848712E-01 0.92074277E+02</pdfrwt>
<totfact> 0.45199329E+01</totfact>
</mgrwt>
</event>
<event>
 7    1  0.3113530E-004  0.1061226E+03  0.7546771E-02  0.1404864E+00
         -1   -1    0    0    0  501 -0.00000000000E+00  0.00000000000E+00  0.15314370847E+03  0.15314370847E+03  0.00000000000E+00 0.  1.
          2   -1    0    0  503    0  0.00000000000E+00 -0.00000000000E+00 -0.24492811685E+03  0.24492811685E+03  0.00000000000E+00 0. -1.
         25    2    1    2    0    0 -0.11761191514E+03 -0.57643349878E+02  0.52254918181E+02  0.18844101228E+03  0.12499648102E+03 0.  0.
          4    1    3    3  502    0 -0.77729000796E+02 -0.47835616368E+02 -0.30340927228E+02  0.96188505151E+02  0.12700000000E+01 0.  1.
         -4    1    3    3    0  502 -0.39882914345E+02 -0.98077335099E+01  0.82595845409E+02  0.92252507132E+02  0.12700000000E+01 0.  1.
          2    1    1    2  503    0  0.85526273475E+02  0.57156327053E+02 -0.14469623042E+03  0.17753475230E+03  0.00000000000E+00 0. -1.
         -1    1    1    2    0  501  0.32085641667E+02  0.48702282568E+00  0.65690385997E+00  0.32096060741E+02  0.00000000000E+00 0.  1.
<mgrwt>
<rscale>  0 0.58355834E+02</rscale>
<asrwt>0</asrwt>
<pdfrwt beam="2">  1        2 0.37681249E-01 0.10612258E+03</pdfrwt>
<pdfrwt beam="1">  1       -1 0.23560570E-01 0.32089338E+02</pdfrwt>
<totfact> 0.22090914E+03</totfact>
</mgrwt>
</event>
<event>
 7    1  0.3113530E-004  0.1724731E+03  0.7546771E-02  0.1366030E+00
          2   -1    0    0  502    0  0.00000000000E+00  0.00000000000E+00  0.89673875292E+02  0.89673875292E+02  0.00000000000E+00 0.  1.
          2   -1    0    0  503    0 -0.00000000000E+00 -0.00000000000E+00 -0.21457243519E+04  0.21457243519E+04  0.00000000000E+00 0. -1.
         25    2    1    2    0    0 -0.29957029261E+02  0.14493230272E+03 -0.91424149899E+03  0.93454011255E+03  0.12499963007E+03 0.  0.
          4    1    3    3  501    0 -0.32101870203E+02  0.15425483982E+03 -0.91074776111E+03  0.92427711372E+03  0.12700000000E+01 0. -1.
         -4    1    3    3    0  501  0.21448409419E+01 -0.93225371000E+01 -0.34937378801E+01  0.10262998832E+02  0.12700000000E+01 0. -1.
          2    1    1    2  502    0  0.35723566872E+02 -0.17134404884E+03 -0.17141554114E+02  0.17586582721E+03  0.00000000000E+00 0.  1.
          2    1    1    2  503    0 -0.57665376111E+01  0.26411746117E+02 -0.11246674235E+04  0.11249922874E+04  0.00000000000E+00 0. -1.
<mgrwt>
<rscale>  0 0.68283416E+02</rscale>
<asrwt>0</asrwt>
<pdfrwt beam="1">  1        2 0.13795982E-01 0.17247308E+03</pdfrwt>
<pdfrwt beam="2">  1        2 0.33011140E+00 0.27033928E+02</pdfrwt>
<totfact> 0.53608548E+02</totfact>
</mgrwt>
</event>
<event>
 7    1  0.3113530E-004  0.8988168E+02  0.7546771E-02  0.1489296E+00
          2   -1    0    0  503    0  0.00000000000E+00  0.00000000000E+00  0.56085808842E+03  0.56085808842E+03  0.00000000000E+00 0. -1.
         -1   -1    0    0    0  501 -0.00000000000E+00 -0.00000000000E+00 -0.40769554839E+02  0.40769554839E+02  0.00000000000E+00 0.  1.
         25    2    1    2    0    0  0.43776829538E+02 -0.88548106241E+02  0.38202311093E+03  0.41391304975E+03  0.12500071019E+03 0.  0.
          4    1    3    3  502    0  0.19448255479E+02 -0.10236571511E+03  0.16541099779E+03  0.19549778864E+03  0.12700000000E+01 0. -1.
         -4    1    3    3    0  502  0.24328574059E+02  0.13817608869E+02  0.21661211314E+03  0.21841526112E+03  0.12700000000E+01 0. -1.
          2    1    1    2  503    0  0.93476174078E+01  0.17993366172E+02  0.78768605399E+02  0.81336537755E+02  0.00000000000E+00 0. -1.
         -1    1    1    2    0  501 -0.53124446946E+02  0.70554740069E+02  0.59296817256E+02  0.10637805576E+03  0.00000000000E+00 0.  1.
<mgrwt>
<rscale>  0 0.42690654E+02</rscale>
<asrwt>0</asrwt>
<pdfrwt beam="1">  1        2 0.86285854E-01 0.20276567E+02</pdfrwt>
<pdfrwt beam="2">  1       -1 0.62722396E-02 0.89881682E+02</pdfrwt>
<totfact> 0.74388372E+03</totfact>
</mgrwt>
</event>
<event>
 7    1  0.3113530E-004  0.4210908E+02  0.7546771E-02  0.1540799E+00
          2   -1    0    0  503    0  0.00000000000E+00  0.00000000000E+00  0.10073173100E+04  0.10073173100E+04  0.00000000000E+00 0. -1.
         -1   -1    0    0    0  501 -0.00000000000E+00 -0.00000000000E+00 -0.13061737886E+02  0.13061737886E+02  0.00000000000E+00 0.  1.
         25    2    1    2    0    0  0.79049932658E+01 -0.29844060528E+02  0.75957967107E+03  0.77042293523E+03  0.12504825290E+03 0.  0.
          4    1    3    3  502    0  0.40037126451E+02 -0.41657826377E+02  0.16447462007E+03  0.17433261181E+03  0.12700000000E+01 0. -1.
         -4    1    3    3    0  502 -0.32132133185E+02  0.11813765848E+02  0.59510505100E+03  0.59609032342E+03  0.12700000000E+01 0. -1.
          2    1    1    2  503    0  0.15257214202E+02  0.49835924328E+02  0.17892186796E+03  0.18635835579E+03  0.00000000000E+00 0. -1.
         -1    1    1    2    0  501 -0.23162207468E+02 -0.19991863800E+02  0.55754033052E+02  0.63597756835E+02  0.00000000000E+00 0.  1.
<mgrwt>
<rscale>  0 0.35894317E+02</rscale>
<asrwt>0</asrwt>
<pdfrwt beam="1">  1        2 0.15497183E+00 0.42109082E+02</pdfrwt>
<pdfrwt beam="2">  1       -1 0.20094989E-02 0.30596772E+02</pdfrwt>
<totfact> 0.16414589E+04</totfact>
</mgrwt>
</event>
<event>
 7    1  0.3113530E-004  0.6487958E+02  0.7546771E-02  0.1476337E+00
          1   -1    0    0  503    0 -0.00000000000E+00  0.00000000000E+00  0.93265711912E+03  0.93265711912E+03  0.00000000000E+00 0. -1.
          2   -1    0    0  502    0  0.00000000000E+00 -0.00000000000E+00 -0.34303246757E+03  0.34303246757E+03  0.00000000000E+00 0. -1.
         25    2    1    2    0    0 -0.17283385305E+02  0.32988122124E+02  0.34398293275E+03  0.36787984658E+03  0.12499756754E+03 0.  0.
          4    1    3    3  501    0 -0.87149797321E+01  0.34687142017E+02  0.15041836561E+02  0.38820335395E+02  0.12700000000E+01 0.  1.
         -4    1    3    3    0  501 -0.85684055727E+01 -0.16990198937E+01  0.32894109619E+03  0.32905951119E+03  0.12700000000E+01 0.  1.
          2    1    1    2  502    0  0.14102617264E+02 -0.63595385357E+02 -0.32746317828E+03  0.33387930451E+03  0.00000000000E+00 0. -1.
          1    1    1    2  503    0  0.31807680410E+01  0.30607263233E+02  0.57310489708E+03  0.57393043559E+03  0.00000000000E+00 0. -1.
<mgrwt>
<rscale>  0 0.44681993E+02</rscale>
<asrwt>0</asrwt>
<pdfrwt beam="2">  1        2 0.52774226E-01 0.64879576E+02</pdfrwt>
<pdfrwt beam="1">  1        1 0.14348571E+00 0.30772095E+02</pdfrwt>
<totfact> 0.26484090E+02</totfact>
</mgrwt>
</event>
<event>
 7    1  0.3113530E-004  0.8914760E+02  0.7546771E-02  0.1312691E+00
          2   -1    0    0  502    0  0.00000000000E+00  0.00000000000E+00  0.75163040748E+03  0.75163040748E+03  0.00000000000E+00 0. -1.
          1   -1    0    0  503    0 -0.00000000000E+00 -0.00000000000E+00 -0.51594586491E+03  0.51594586491E+03  0.00000000000E+00 0. -1.
         25    2    1    2    0    0 -0.96550410562E+02 -0.97458939471E+02 -0.21757586431E+03  0.28598106616E+03  0.12500274719E+03 0.  0.
          4    1    3    3  501    0 -0.52773660126E+02 -0.41547874333E+02 -0.11687259151E+02  0.68187168816E+02  0.12700000000E+01 0. -1.
         -4    1    3    3    0  501 -0.43776750436E+02 -0.55911065138E+02 -0.20588860516E+03  0.21779389734E+03  0.12700000000E+01 0. -1.
          2    1    1    2  502    0  0.87645227253E+02  0.14863856802E+02  0.70804785242E+03  0.71360660130E+03  0.00000000000E+00 0. -1.
          1    1    1    2  503    0  0.89051833088E+01  0.82595082669E+02 -0.25478744553E+03  0.26798860493E+03  0.00000000000E+00 0. -1.
<mgrwt>
<rscale>  0 0.86057114E+02</rscale>
<asrwt>0</asrwt>
<pdfrwt beam="1">  1        2 0.11563545E+00 0.89147603E+02</pdfrwt>
<pdfrwt beam="2">  1        1 0.79376287E-01 0.83073762E+02</pdfrwt>
<totfact> 0.24338848E+02</totfact>
</mgrwt>
</event>
<event>
 7    1  0.3113530E-004  0.2401137E+03  0.7546771E-02  0.1230178E+00
          1   -1    0    0  503    0 -0.00000000000E+00  0.00000000000E+00  0.11250719471E+04  0.11250719471E+04  0.00000000000E+00 0. -1.
          2   -1    0    0  502    0  0.00000000000E+00 -0.00000000000E+00 -0.10281712854E+04  0.10281712854E+04  0.00000000000E+00 0. -1.
         25    2    1    2    0    0 -0.22260930799E+03 -0.10234989572E+03  0.15008579035E+03  0.31332262873E+03  0.12495967371E+03 0.  0.
          4    1    3    3  501    0 -0.34316210746E+02 -0.55803764173E+02  0.87897066108E+02  0.10963197319E+03  0.12700000000E+01 0. -1.
         -4    1    3    3    0  501 -0.18829309724E+03 -0.46546131543E+02  0.62188724245E+02  0.20369065554E+03  0.12700000000E+01 0. -1.
          2    1    1    2  502    0  0.40522078447E+02 -0.55140497419E+02 -0.92905242922E+03  0.93156906858E+03  0.00000000000E+00 0. -1.
          1    1    1    2  503    0  0.18208722954E+03  0.15749039313E+03  0.87586730065E+03  0.90835153516E+03  0.00000000000E+00 0. -1.
<mgrwt>
<rscale>  0 0.12818236E+03</rscale>
<asrwt>0</asrwt>
<pdfrwt beam="2">  1        2 0.15818020E+00 0.68428892E+02</pdfrwt>
<pdfrwt beam="1">  1        1 0.17308799E+00 0.24011373E+03</pdfrwt>
<totfact> 0.48722008E+01</totfact>
</mgrwt>
</event>
<event>
 7    1  0.3113530E-004  0.4225041E+02  0.7546771E-02  0.1530414E+00
         -1   -1    0    0    0  501 -0.00000000000E+00  0.00000000000E+00  0.24019019746E+02  0.24019019746E+02  0.00000000000E+00 0.  1.
          2   -1    0    0  503    0  0.00000000000E+00 -0.00000000000E+00 -0.55047145631E+03  0.55047145631E+03  0.00000000000E+00 0. -1.
         25    2    1    2    0    0  0.46334945292E+02 -0.61150468699E+01 -0.26265113166E+03  0.29461417603E+03  0.12501029878E+03 0.  0.
          4    1    3    3  502    0  0.79210427631E+02  0.25758591395E+00 -0.95238128568E+02  0.12388007196E+03  0.12700000000E+01 0.  1.
         -4    1    3    3    0  502 -0.32875482339E+02 -0.63726327838E+01 -0.16741300309E+03  0.17073410407E+03  0.12700000000E+01 0.  1.
          2    1    1    2  503    0 -0.35337337203E+02 -0.24616503548E+02 -0.22540077310E+03  0.22947812131E+03  0.00000000000E+00 0. -1.
         -1    1    1    2    0  501 -0.10997608089E+02  0.30731550418E+02 -0.38400531809E+02  0.50398178717E+02  0.00000000000E+00 0.  1.
<mgrwt>
<rscale>  0 0.37135662E+02</rscale>
<asrwt>0</asrwt>
<pdfrwt beam="2">  1        2 0.84687910E-01 0.42250414E+02</pdfrwt>
<pdfrwt beam="1">  1       -1 0.36952341E-02 0.32640092E+02</pdfrwt>
<totfact> 0.14319092E+04</totfact>
</mgrwt>
</event>
<event>
 7    1  0.3113530E-004  0.4189719E+02  0.7546771E-02  0.1529835E+00
          1   -1    0    0  503    0  0.00000000000E+00  0.00000000000E+00  0.31499656983E+02  0.31499656983E+02  0.00000000000E+00 0. -1.
          1   -1    0    0  502    0 -0.00000000000E+00 -0.00000000000E+00 -0.12402536742E+04  0.12402536742E+04  0.00000000000E+00 0. -1.
         25    2    1    2    0    0 -0.12585982860E+02  0.44430362216E+02 -0.16959112942E+03  0.21568474252E+03  0.12500517159E+03 0.  0.
          4    1    3    3  501    0 -0.27790291709E+01 -0.31338051941E+02 -0.12123763131E+03  0.12525962098E+03  0.12700000000E+01 0.  1.
         -4    1    3    3    0  501 -0.98069536891E+01  0.75768414157E+02 -0.48353498114E+02  0.90425121534E+02  0.12700000000E+01 0.  1.
          1    1    1    2  502    0  0.32537301006E+02 -0.57482967320E+01 -0.98942328851E+03  0.98997482934E+03  0.00000000000E+00 0. -1.
          1    1    1    2  503    0 -0.19951318146E+02 -0.38682065484E+02 -0.49739599284E+02  0.66093759333E+02  0.00000000000E+00 0. -1.
<mgrwt>
<rscale>  0 0.37206614E+02</rscale>
<asrwt>0</asrwt>
<pdfrwt beam="1">  1        1 0.48461007E-02 0.41897188E+02</pdfrwt>
<pdfrwt beam="2">  1        1 0.19080827E+00 0.33041169E+02</pdfrwt>
<totfact> 0.22180763E+03</totfact>
</mgrwt>
</event>
<event>
 7    1  0.3113530E-004  0.4048101E+02  0.7546771E-02  0.1541313E+00
         -1   -1    0    0    0  501 -0.00000000000E+00  0.00000000000E+00  0.16930060994E+02  0.16930060994E+02  0.00000000000E+00 0.  1.
          2   -1    0    0  503    0  0.00000000000E+00 -0.00000000000E+00 -0.74940562209E+03  0.74940562209E+03  0.00000000000E+00 0. -1.
         25    2    1    2    0    0  0.23129289327E+02  0.19632293366E+01 -0.30902221261E+03  0.33415645566E+03  0.12500796248E+03 0.  0.
          4    1    3    3  502    0  0.70328123772E+02  0.17373247302E+02 -0.22685948500E+03  0.23814851154E+03  0.12700000000E+01 0. -1.
         -4    1    3    3    0  502 -0.47198834445E+02 -0.15410017965E+02 -0.82162727606E+02  0.96007944121E+02  0.12700000000E+01 0. -1.
          2    1    1    2  503    0  0.30170305116E+02  0.97971300451E+01 -0.16600440208E+03  0.16900796602E+03  0.00000000000E+00 0. -1.
         -1    1    1    2    0  501 -0.53299594443E+02 -0.11760359382E+02 -0.25744894641E+03  0.26317126140E+03  0.00000000000E+00 0.  1.
<mgrwt>
<rscale>  0 0.35834397E+02</rscale>
<asrwt>0</asrwt>
<pdfrwt beam="2">  1        2 0.11529314E+00 0.31721145E+02</pdfrwt>
<pdfrwt beam="1">  1       -1 0.26046255E-02 0.40481009E+02</pdfrwt>
<totfact> 0.17353189E+04</totfact>
</mgrwt>
</event>
<event>
 7    1  0.3113530E-004  0.1017199E+03  0.7546771E-02  0.1358933E+00
          1   -1    0    0  503    0  0.00000000000E+00  0.00000000000E+00  0.25229197222E+04  0.25229197222E+04  0.00000000000E+00 0. -1.
          1   -1    0    0  502    0 -0.00000000000E+00 -0.00000000000E+00 -0.51305458963E+03  0.51305458963E+03  0.00000000000E+00 0. -1.
         25    2    1    2    0    0 -0.12151529166E+02 -0.12060947174E+03  0.17268516983E+04  0.17356084891E+04  0.12500294091E+03 0.  0.
          4    1    3    3  501    0  0.92738925770E+01 -0.31191443990E+02  0.82607619126E+02  0.88794948614E+02  0.12700000000E+01 0.  1.
         -4    1    3    3    0  501 -0.21425421743E+02 -0.89418027753E+02  0.16442440791E+04  0.16468135405E+04  0.12700000000E+01 0.  1.
          1    1    1    2  502    0  0.49147298806E+02  0.89026060113E+02 -0.50283427818E+03  0.51301404237E+03  0.00000000000E+00 0. -1.
          1    1    1    2  503    0 -0.36995769640E+02  0.31583411630E+02  0.78584771247E+03  0.78735178037E+03  0.00000000000E+00 0. -1.
<mgrwt>
<rscale>  0 0.70342178E+02</rscale>
<asrwt>0</asrwt>
<pdfrwt beam="1">  1        1 0.38814149E+00 0.48643590E+02</pdfrwt>
<pdfrwt beam="2">  1        1 0.78931477E-01 0.10171992E+03</pdfrwt>
<totfact> 0.10647294E+01</totfact>
</mgrwt>
</event>
<event>
 7    1  0.3113530E-004  0.1323074E+03  0.7546771E-02  0.1224536E+00
          2   -1    0    0  503    0  0.00000000000E+00  0.00000000000E+00  0.13179174825E+04  0.13179174825E+04  0.00000000000E+00 0. -1.
         -2   -1    0    0    0  501 -0.00000000000E+00 -0.00000000000E+00 -0.49698446662E+03  0.49698446662E+03  0.00000000000E+00 0.  1.
         25    2    1    2    0    0  0.59475448033E+02 -0.63431973426E+02  0.21453941808E+03  0.26308487178E+03  0.12500217468E+03 0.  0.
          4    1    3    3  502    0  0.56899359533E+02  0.19718295554E+02  0.13568814586E+03  0.14845616903E+03  0.12700000000E+01 0.  1.
         -4    1    3    3    0  502  0.25760885000E+01 -0.83150268979E+02  0.78851272220E+02  0.11462870275E+03  0.12700000000E+01 0.  1.
          2    1    1    2  503    0 -0.14569344564E+03 -0.36925875223E+02  0.10644635632E+04  0.10750222219E+04  0.00000000000E+00 0. -1.
         -2    1    1    2    0  501  0.86217997610E+02  0.10035784865E+03 -0.45806996541E+03  0.47679485537E+03  0.00000000000E+00 0.  1.
<mgrwt>
<rscale>  0 0.13198766E+03</rscale>
<asrwt>0</asrwt>
<pdfrwt beam="1">  1        2 0.20275654E+00 0.13166873E+03</pdfrwt>
<pdfrwt beam="2">  1       -2 0.76459149E-01 0.13230737E+03</pdfrwt>
<totfact> 0.29209134E+01</totfact>
</mgrwt>
</event>
<event>
 7    1  0.3113530E-004  0.1543702E+03  0.7546771E-02  0.1333029E+00
         -1   -1    0    0    0  501 -0.00000000000E+00  0.00000000000E+00  0.35772044535E+03  0.35772044535E+03  0.00000000000E+00 0.  1.
          1   -1    0    0  503    0  0.00000000000E+00 -0.00000000000E+00 -0.87206905864E+03  0.87206905864E+03  0.00000000000E+00 0. -1.
         25    2    1    2    0    0 -0.14937228457E+03 -0.84872083532E+01  0.32451099899E+02  0.19769201366E+03  0.12507975967E+03 0.  0.
          4    1    3    3  502    0 -0.14654375930E+03 -0.45822433394E+02  0.41691523141E+02  0.15910551465E+03  0.12700000000E+01 0.  1.
         -4    1    3    3    0  502 -0.28285252690E+01  0.37335225041E+02 -0.92404232421E+01  0.38586499008E+02  0.12700000000E+01 0.  1.
          1    1    1    2  503    0  0.14723007350E+03  0.48465463559E+02 -0.78011880242E+03  0.79536843136E+03  0.00000000000E+00 0. -1.
         -1    1    1    2    0  501  0.21422110716E+01 -0.39978255205E+02  0.23331908924E+03  0.23672905897E+03  0.00000000000E+00 0.  1.
<mgrwt>
<rscale>  0 0.78614925E+02</rscale>
<asrwt>0</asrwt>
<pdfrwt beam="2">  1        1 0.13416447E+00 0.15437024E+03</pdfrwt>
<pdfrwt beam="1">  1       -1 0.55033915E-01 0.40035609E+02</pdfrwt>
<totfact> 0.73515963E+01</totfact>
</mgrwt>
</event>
<event>
 7    1  0.3113530E-004  0.7754631E+02  0.7546771E-02  0.1393589E+00
          2   -1    0    0  503    0  0.00000000000E+00  0.00000000000E+00  0.32447925770E+04  0.32447925770E+04  0.00000000000E+00 0. -1.
         -2   -1    0    0    0  501 -0.00000000000E+00 -0.00000000000E+00 -0.20319428887E+03  0.20319428887E+03  0.00000000000E+00 0.  1.
         25    2    1    2    0    0 -0.86049386869E+02 -0.86625579222E+02  0.25148603783E+04  0.25209235668E+04  0.12499767687E+03 0.  0.
          4    1    3    3  502    0 -0.25813941736E+02  0.23109050673E+02  0.22615276291E+03  0.22879482704E+03  0.12700000000E+01 0.  1.
         -4    1    3    3    0  502 -0.60235445133E+02 -0.10973462990E+03  0.22887076154E+04  0.22921287397E+04  0.12700000000E+01 0.  1.
          2    1    1    2  503    0  0.22483438152E+02  0.42431566883E+02  0.71858306744E+03  0.72018578691E+03  0.00000000000E+00 0. -1.
         -2    1    1    2    0  501  0.63565948718E+02  0.44194012339E+02 -0.19184515759E+03  0.20687751220E+03  0.00000000000E+00 0.  1.
<mgrwt>
<rscale>  0 0.61022881E+02</rscale>
<asrwt>0</asrwt>
<pdfrwt beam="1">  1        2 0.49919882E+00 0.48020234E+02</pdfrwt>
<pdfrwt beam="2">  1       -2 0.31260662E-01 0.77546310E+02</pdfrwt>
<totfact> 0.18728843E+01</totfact>
</mgrwt>
</event>
<event>
 7    1  0.3113530E-004  0.1064920E+03  0.7546771E-02  0.1414533E+00
         -1   -1    0    0    0  501 -0.00000000000E+00  0.00000000000E+00  0.50787648791E+02  0.50787648791E+02  0.00000000000E+00 0.  1.
          2   -1    0    0  503    0  0.00000000000E+00 -0.00000000000E+00 -0.51049765734E+03  0.51049765734E+03  0.00000000000E+00 0. -1.
         25    2    1    2    0    0 -0.11615388811E+03 -0.39402369969E+02 -0.26927027610E+03  0.32120766152E+03  0.12499443087E+03 0.  0.
          4    1    3    3  502    0 -0.18603348801E+02  0.30193608395E+01 -0.18373293628E+03  0.18470139658E+03  0.12700000000E+01 0. -1.
         -4    1    3    3    0  502 -0.97550539307E+02 -0.42421730808E+02 -0.85537339825E+02  0.13650626494E+03  0.12700000000E+01 0. -1.
          2    1    1    2  503    0  0.87460531720E+02  0.46885377798E+02 -0.18499293622E+03  0.20992848714E+03  0.00000000000E+00 0. -1.
         -1    1    1    2    0  501  0.28693356387E+02 -0.74830078292E+01 -0.54467962236E+01  0.30149157468E+02  0.00000000000E+00 0.  1.
<mgrwt>
<rscale>  0 0.56194432E+02</rscale>
<asrwt>0</asrwt>
<pdfrwt beam="2">  1        2 0.78538100E-01 0.10649201E+03</pdfrwt>
<pdfrwt beam="1">  1       -1 0.78134846E-02 0.29653062E+02</pdfrwt>
<totfact> 0.52296091E+03</totfact>
</mgrwt>
</event>
<event>
 7    1  0.3113530E-004  0.4897016E+02  0.7546771E-02  0.1486161E+00
          2   -1    0    0  503    0  0.00000000000E+00  0.00000000000E+00  0.39303872544E+03  0.39303872544E+03  0.00000000000E+00 0. -1.
         -1   -1    0    0    0  501 -0.00000000000E+00 -0.00000000000E+00 -0.34121409700E+02  0.34121409700E+02  0.00000000000E+00 0.  1.
         25    2    1    2    0    0  0.45425817795E+02  0.23523035245E+02  0.17717201873E+03  0.22278200048E+03  0.12500022962E+03 0.  0.
          4    1    3    3  502    0  0.41787223585E+02  0.41468532592E+02  0.16621587452E+02  0.61185793447E+02  0.12700000000E+01 0.  1.
         -4    1    3    3    0  502  0.36385942095E+01 -0.17945497347E+02  0.16055043128E+03  0.16159620703E+03  0.12700000000E+01 0.  1.
          2    1    1    2  503    0  0.49617054787E+01 -0.37715585703E+02  0.10319171215E+03  0.10998005902E+03  0.00000000000E+00 0. -1.
         -1    1    1    2    0  501 -0.50387523273E+02  0.14192550459E+02  0.78553584858E+02  0.94398075638E+02  0.00000000000E+00 0.  1.
<mgrwt>
<rscale>  0 0.43160771E+02</rscale>
<asrwt>0</asrwt>
<pdfrwt beam="1">  1        2 0.60467493E-01 0.38040556E+02</pdfrwt>
<pdfrwt beam="2">  1       -1 0.52494479E-02 0.48970162E+02</pdfrwt>
<totfact> 0.12979542E+04</totfact>
</mgrwt>
</event>
<event>
 7    1  0.3113530E-004  0.8168682E+02  0.7546771E-02  0.1405284E+00
          2   -1    0    0  503    0  0.00000000000E+00  0.00000000000E+00  0.84926688518E+03  0.84926688518E+03  0.00000000000E+00 0. -1.
         -1   -1    0    0    0  501 -0.00000000000E+00 -0.00000000000E+00 -0.31907519361E+02  0.31907519361E+02  0.00000000000E+00 0.  1.
         25    2    1    2    0    0 -0.74947339683E+02 -0.44576654380E+02  0.68964577714E+03  0.70628539743E+03  0.12499433131E+03 0.  0.
          4    1    3    3  502    0 -0.92455883834E+01 -0.71278055401E+02  0.47012650107E+03  0.47559077156E+03  0.12700000000E+01 0. -1.
         -4    1    3    3    0  502 -0.65701751299E+02  0.26701401021E+02  0.21951927607E+03  0.23069462587E+03  0.12700000000E+01 0. -1.
          2    1    1    2  503    0  0.77865435674E+02  0.31280001681E+01  0.83463957618E+02  0.11418862763E+03  0.00000000000E+00 0. -1.
         -1    1    1    2    0  501 -0.29180959912E+01  0.41448654212E+02  0.44249631061E+02  0.60700379482E+02  0.00000000000E+00 0.  1.
<mgrwt>
<rscale>  0 0.58259672E+02</rscale>
<asrwt>0</asrwt>
<pdfrwt beam="1">  1        2 0.13065643E+00 0.81686822E+02</pdfrwt>
<pdfrwt beam="2">  1       -1 0.49088498E-02 0.41551248E+02</pdfrwt>
<totfact> 0.59200614E+03</totfact>
</mgrwt>
</event>
<event>
 7    1  0.3113530E-004  0.1319240E+03  0.7546771E-02  0.1429085E+00
         -3   -1    0    0    0  501 -0.00000000000E+00  0.00000000000E+00  0.48087206551E+02  0.48087206551E+02  0.00000000000E+00 0.  1.
          2   -1    0    0  503    0  0.00000000000E+00 -0.00000000000E+00 -0.71534502441E+03  0.71534502441E+03  0.00000000000E+00 0.  1.
         25    2    1    2    0    0 -0.11243729023E+01 -0.12411213390E+03 -0.20268595280E+03  0.26853387869E+03  0.12499505009E+03 0.  0.
          4    1    3    3  502    0 -0.16845284734E+01 -0.13482424951E+03 -0.10672218114E+03  0.17196410305E+03  0.12700000000E+01 0.  1.
         -4    1    3    3    0  502  0.56015557112E+00  0.10712115611E+02 -0.95963771667E+02  0.96569775643E+02  0.12700000000E+01 0.  1.
          2    1    1    2  503    0 -0.80661174201E+01 -0.19830754051E+02 -0.11086880884E+03  0.11291684476E+03  0.00000000000E+00 0.  1.
         -3    1    1    2    0  501  0.91904903224E+01  0.14394288795E+03 -0.35370305621E+03  0.38198150751E+03  0.00000000000E+00 0.  1.
<mgrwt>
<rscale>  0 0.53144021E+02</rscale>
<asrwt>0</asrwt>
<pdfrwt beam="2">  1        2 0.11005307E+00 0.21408434E+02</pdfrwt>
<pdfrwt beam="1">  1       -3 0.73980326E-02 0.13192403E+03</pdfrwt>
<totfact> 0.31545938E+03</totfact>
</mgrwt>
</event>
<event>
 7    1  0.3113530E-004  0.6558123E+02  0.7546771E-02  0.1514072E+00
          1   -1    0    0  503    0  0.00000000000E+00  0.00000000000E+00  0.92921869037E+03  0.92921869037E+03  0.00000000000E+00 0. -1.
          1   -1    0    0  502    0 -0.00000000000E+00 -0.00000000000E+00 -0.55192615970E+03  0.55192615970E+03  0.00000000000E+00 0. -1.
         25    2    1    2    0    0  0.84270690601E+02 -0.17371524383E+02  0.21639894669E+03  0.26430447610E+03  0.12500013121E+03 0.  0.
          4    1    3    3  501    0  0.63937116194E+02 -0.10957900237E+02  0.23000433365E+03  0.23898041092E+03  0.12700000000E+01 0. -1.
         -4    1    3    3    0  501  0.20333574407E+02 -0.64136241461E+01 -0.13605386959E+02  0.25324065179E+02  0.12700000000E+01 0. -1.
          1    1    1    2  502    0 -0.20165127379E+02  0.11966636210E+02 -0.52620972341E+03  0.52673191070E+03  0.00000000000E+00 0. -1.
          1    1    1    2  503    0 -0.64105563222E+02  0.54048881726E+01  0.68710330739E+03  0.69010846327E+03  0.00000000000E+00 0. -1.
<mgrwt>
<rscale>  0 0.39214568E+02</rscale>
<asrwt>0</asrwt>
<pdfrwt beam="1">  1        1 0.14295672E+00 0.65581233E+02</pdfrwt>
<pdfrwt beam="2">  1        1 0.84911717E-01 0.23448513E+02</pdfrwt>
<totfact> 0.10036488E+02</totfact>
</mgrwt>
</event>
<event>
 7    1  0.3113530E-004  0.1386654E+03  0.7546771E-02  0.1335676E+00
          2   -1    0    0  503    0  0.00000000000E+00  0.00000000000E+00  0.29739189227E+04  0.29739189227E+04  0.00000000000E+00 0. -1.
         -2   -1    0    0    0  501 -0.00000000000E+00 -0.00000000000E+00 -0.78753736393E+02  0.78753736393E+02  0.00000000000E+00 0.  1.
         25    2    1    2    0    0 -0.41718572849E+02  0.11510731174E+03  0.46132471877E+03  0.49338998553E+03  0.12499219632E+03 0.  0.
          4    1    3    3  502    0 -0.82433460768E+02  0.47941054714E+02  0.22591401289E+03  0.24521903332E+03  0.12700000000E+01 0. -1.
         -4    1    3    3    0  502  0.40714887919E+02  0.67166257029E+02  0.23541070587E+03  0.24817095221E+03  0.12700000000E+01 0. -1.
          2    1    1    2  503    0  0.34253498006E+02  0.26895706797E+02  0.24155150495E+04  0.24159076214E+04  0.00000000000E+00 0. -1.
         -2    1    1    2    0  501  0.74650748427E+01 -0.14200301854E+03  0.18325418058E+02  0.14337505210E+03  0.00000000000E+00 0.  1.
<mgrwt>
<rscale>  0 0.77711019E+02</rscale>
<asrwt>0</asrwt>
<pdfrwt beam="1">  1        2 0.45752590E+00 0.43550903E+02</pdfrwt>
<pdfrwt beam="2">  1       -2 0.12115962E-01 0.13866538E+03</pdfrwt>
<totfact> 0.13653842E+02</totfact>
</mgrwt>
</event>
<event>
 7    1  0.3113530E-004  0.1110774E+03  0.7546771E-02  0.1413981E+00
         -2   -1    0    0    0  501 -0.00000000000E+00  0.00000000000E+00  0.21044013498E+03  0.21044013498E+03  0.00000000000E+00 0.  1.
          3   -1    0    0  503    0  0.00000000000E+00 -0.00000000000E+00 -0.34208908226E+03  0.34208908226E+03  0.00000000000E+00 0. -1.
         25    2    1    2    0    0  0.15718321911E+02  0.12224306251E+03 -0.12376688664E+03  0.21479303688E+03  0.12500949759E+03 0.  0.
          4    1    3    3  502    0  0.34884674978E+02  0.13763278972E+03 -0.75983176368E+02  0.16104279352E+03  0.12700000000E+01 0. -1.
         -4    1    3    3    0  502 -0.19166353067E+02 -0.15389727209E+02 -0.47783710274E+02  0.53750243358E+02  0.12700000000E+01 0. -1.
          3    1    1    2  503    0 -0.25592494997E+02 -0.12656155089E+02 -0.15298859998E+03  0.15562990004E+03  0.00000000000E+00 0. -1.
         -2    1    1    2    0  501  0.98741730869E+01 -0.10958690742E+03  0.14510653934E+03  0.18210628032E+03  0.00000000000E+00 0.  1.
<mgrwt>
<rscale>  0 0.56314832E+02</rscale>
<asrwt>0</asrwt>
<pdfrwt beam="2">  1        3 0.52629089E-01 0.28550903E+02</pdfrwt>
<pdfrwt beam="1">  1       -2 0.32375405E-01 0.11107741E+03</pdfrwt>
<totfact> 0.11262851E+02</totfact>
</mgrwt>
</event>
<event>
 7    1  0.3113530E-004  0.1911965E+03  0.7546771E-02  0.1220169E+00
          3   -1    0    0  503    0  0.00000000000E+00  0.00000000000E+00  0.21949274746E+04  0.21949274746E+04  0.00000000000E+00 0. -1.
         -3   -1    0    0    0  501 -0.00000000000E+00 -0.00000000000E+00 -0.14959048945E+03  0.14959048945E+03  0.00000000000E+00 0.  1.
         25    2    1    2    0    0 -0.47280494894E+02  0.27479472624E+03  0.13021801508E+04  0.13375522066E+04  0.12500069379E+03 0.  0.
          4    1    3    3  502    0  0.81729913457E+01  0.11564924375E+01  0.21273220893E+03  0.21289607999E+03  0.12700000000E+01 0. -1.
         -4    1    3    3    0  502 -0.55453486240E+02  0.27363823380E+03  0.10894479419E+04  0.11246561266E+04  0.12700000000E+01 0. -1.
          3    1    1    2  503    0  0.35912730354E+02 -0.88351526130E+02  0.80467471928E+03  0.81030680623E+03  0.00000000000E+00 0. -1.
         -3    1    1    2    0  501  0.11367764540E+02 -0.18644320011E+03 -0.61517884919E+02  0.19665895124E+03  0.00000000000E+00 0.  1.
<mgrwt>
<rscale>  0 0.13503590E+03</rscale>
<asrwt>0</asrwt>
<pdfrwt beam="1">  1        3 0.33768113E+00 0.95371465E+02</pdfrwt>
<pdfrwt beam="2">  1       -3 0.23013923E-01 0.19119653E+03</pdfrwt>
<totfact> 0.13183312E+00</totfact>
</mgrwt>
</event>
<event>
 7    1  0.3113530E-004  0.9910671E+02  0.7546771E-02  0.1388827E+00
          2   -1    0    0  503    0  0.00000000000E+00  0.00000000000E+00  0.37776107848E+03  0.37776107848E+03  0.00000000000E+00 0. -1.
         -1   -1    0    0    0  501 -0.00000000000E+00 -0.00000000000E+00 -0.70433532900E+02  0.70433532900E+02  0.00000000000E+00 0.  1.
         25    2    1    2    0    0  0.81119780864E+02  0.79648677359E+02  0.95134364472E+02  0.19390613754E+03  0.12499884888E+03 0.  0.
          4    1    3    3  502    0  0.10693864380E+02  0.91883912223E+02  0.30174270199E+02  0.97309359995E+02  0.12700000000E+01 0.  1.
         -4    1    3    3    0  502  0.70425916485E+02 -0.12235234864E+02  0.64960094273E+02  0.96596777549E+02  0.12700000000E+01 0.  1.
          2    1    1    2  503    0 -0.42734852489E+02 -0.86749622294E+02  0.17716911228E+03  0.20184315428E+03  0.00000000000E+00 0. -1.
         -1    1    1    2    0  501 -0.38384928376E+02  0.71009449352E+01  0.35024068827E+02  0.52445319549E+02  0.00000000000E+00 0.  1.
<mgrwt>
<rscale>  0 0.62199284E+02</rscale>
<asrwt>0</asrwt>
<pdfrwt beam="1">  1        2 0.58117088E-01 0.99106710E+02</pdfrwt>
<pdfrwt beam="2">  1       -1 0.10835928E-01 0.39036216E+02</pdfrwt>
<totfact> 0.46014269E+03</totfact>
</mgrwt>
</event>
<event>
 7    1  0.3113530E-004  0.1152716E+03  0.7546771E-02  0.1404025E+00
         -1   -1    0    0    0  501 -0.00000000000E+00  0.00000000000E+00  0.94140448080E+03  0.94140448080E+03  0.00000000000E+00 0.  1.
          2   -1    0    0  503    0  0.00000000000E+00 -0.00000000000E+00 -0.29576979632E+03  0.29576979632E+03  0.00000000000E+00 0. -1.
         25    2    1    2    0    0 -0.48105932473E+02  0.72365588994E+02 -0.19494128134E+03  0.24734215552E+03  0.12500031807E+03 0.  0.
          4    1    3    3  502    0 -0.62166775628E+02  0.93586150041E+02 -0.19093403316E+03  0.22154117764E+03  0.12700000000E+01 0.  1.
         -4    1    3    3    0  502  0.14060843155E+02 -0.21220561047E+02 -0.40072481757E+01  0.25800977875E+02  0.12700000000E+01 0.  1.
          2    1    1    2  503    0 -0.88785394082E+01  0.28381654346E+02 -0.67840114426E+02  0.74071775264E+02  0.00000000000E+00 0. -1.
         -1    1    1    2    0  501  0.56984471881E+02 -0.10074724334E+03  0.90841608025E+03  0.91576034634E+03  0.00000000000E+00 0.  1.
<mgrwt>
<rscale>  0 0.58548631E+02</rscale>
<asrwt>0</asrwt>
<pdfrwt beam="2">  1        2 0.45503046E-01 0.29737968E+02</pdfrwt>
<pdfrwt beam="1">  1       -1 0.14483146E+00 0.11527157E+03</pdfrwt>
<totfact> 0.54750577E+01</totfact>
</mgrwt>
</event>
<event>
 7    1  0.3113530E-004  0.1127282E+03  0.7546771E-02  0.1273371E+00
          2   -1    0    0  502    0  0.00000000000E+00  0.00000000000E+00  0.27516187737E+04  0.27516187737E+04  0.00000000000E+00 0.  1.
          1   -1    0    0  503    0 -0.00000000000E+00 -0.00000000000E+00 -0.12283277318E+03  0.12283277318E+03  0.00000000000E+00 0. -1.
         25    2    1    2    0    0 -0.32442548657E+02  0.23372722710E+02  0.20440181895E+03  0.24290737552E+03  0.12500034544E+03 0.  0.
          4    1    3    3  501    0 -0.29578236785E+01 -0.18368038893E+02 -0.10913552364E+02  0.21606760491E+02  0.12700000000E+01 0. -1.
         -4    1    3    3    0  501 -0.29484724979E+02  0.41740761603E+02  0.21531537132E+03  0.22130061503E+03  0.12700000000E+01 0. -1.
          2    1    1    2  502    0  0.11742323165E+03  0.18603635831E+02  0.25045717942E+04  0.25073919085E+04  0.00000000000E+00 0.  1.
          1    1    1    2  503    0 -0.84980682997E+02 -0.41976358542E+02 -0.80187612611E+02  0.12415226287E+03  0.00000000000E+00 0. -1.
<mgrwt>
<rscale>  0 0.10336666E+03</rscale>
<asrwt>0</asrwt>
<pdfrwt beam="1">  1        2 0.42332592E+00 0.11272820E+03</pdfrwt>
<pdfrwt beam="2">  1        1 0.18897352E-01 0.94782547E+02</pdfrwt>
<totfact> 0.11874053E+02</totfact>
</mgrwt>
</event>
<event>
 7    1  0.3113530E-004  0.5850078E+02  0.7546771E-02  0.1535671E+00
          2   -1    0    0  503    0  0.00000000000E+00  0.00000000000E+00  0.30136384996E+04  0.30136384996E+04  0.00000000000E+00 0. -1.
         -1   -1    0    0    0  501 -0.00000000000E+00 -0.00000000000E+00 -0.54871364805E+01  0.54871364805E+01  0.00000000000E+00 0.  1.
         25    2    1    2    0    0 -0.37450405586E+02 -0.65893111977E+02  0.16955748808E+04  0.17018637269E+04  0.12498613189E+03 0.  0.
          4    1    3    3  502    0 -0.67372270901E+02 -0.80870058714E+02  0.14761665767E+04  0.14799149855E+04  0.12700000000E+01 0.  1.
         -4    1    3    3    0  502  0.29921865315E+02  0.14976946737E+02  0.21940830418E+03  0.22194874138E+03  0.12700000000E+01 0.  1.
          2    1    1    2  503    0  0.34249084761E+01  0.22513956428E+02  0.97082538535E+03  0.97109244518E+03  0.00000000000E+00 0. -1.
         -1    1    1    2    0  501  0.34025497110E+02  0.43379155548E+02  0.34175109692E+03  0.34616946405E+03  0.00000000000E+00 0.  1.
<mgrwt>
<rscale>  0 0.36499816E+02</rscale>
<asrwt>0</asrwt>
<pdfrwt beam="1">  1        2 0.46363537E+00 0.22772972E+02</pdfrwt>
<pdfrwt beam="2">  1       -1 0.84417725E-03 0.58500780E+02</pdfrwt>
<totfact> 0.66895136E+03</totfact>
</mgrwt>
</event>
<event>
 7    1  0.3113530E-004  0.9921037E+02  0.7546771E-02  0.1430808E+00
          2   -1    0    0  502    0  0.00000000000E+00  0.00000000000E+00  0.31533253428E+03  0.31533253428E+03  0.00000000000E+00 0. -1.
          1   -1    0    0  503    0 -0.00000000000E+00 -0.00000000000E+00 -0.34385170556E+03  0.34385170556E+03  0.00000000000E+00 0. -1.
         25    2    1    2    0    0 -0.70654437742E+02 -0.51057507974E+02 -0.57919735221E+02  0.16303444113E+03  0.12500645813E+03 0.  0.
          4    1    3    3  501    0 -0.83719459855E+02  0.11330233975E+02 -0.14067891344E+02  0.85655359594E+02  0.12700000000E+01 0.  1.
         -4    1    3    3    0  501  0.13065022112E+02 -0.62387741949E+02 -0.43851843876E+02  0.77379081538E+02  0.12700000000E+01 0.  1.
          2    1    1    2  502    0  0.94038378974E+02  0.35478383551E+02  0.25224977726E+03  0.27153615330E+03  0.00000000000E+00 0. -1.
          1    1    1    2  503    0 -0.23383941232E+02  0.15579124424E+02 -0.22284921332E+03  0.22461364541E+03  0.00000000000E+00 0. -1.
<mgrwt>
<rscale>  0 0.52798189E+02</rscale>
<asrwt>0</asrwt>
<pdfrwt beam="1">  1        2 0.48512698E-01 0.99210373E+02</pdfrwt>
<pdfrwt beam="2">  1        1 0.52900262E-01 0.28098360E+02</pdfrwt>
<totfact> 0.10435760E+03</totfact>
</mgrwt>
</event>
<event>
 7    1  0.3113530E-004  0.6731989E+02  0.7546771E-02  0.1386712E+00
          2   -1    0    0  503    0  0.00000000000E+00  0.00000000000E+00  0.18527191950E+04  0.18527191950E+04  0.00000000000E+00 0. -1.
         -2   -1    0    0    0  501 -0.00000000000E+00 -0.00000000000E+00 -0.14336454762E+02  0.14336454762E+02  0.00000000000E+00 0.  1.
         25    2    1    2    0    0 -0.10572495508E+03  0.26843772517E+01  0.62966532394E+03  0.65060557628E+03  0.12499689479E+03 0.  0.
          4    1    3    3  502    0 -0.67951185534E+02  0.22037849071E+02  0.58359331670E+03  0.58795051034E+03  0.12700000000E+01 0.  1.
         -4    1    3    3    0  502 -0.37773769547E+02 -0.19353471820E+02  0.46072007237E+02  0.62655065942E+02  0.12700000000E+01 0.  1.
          2    1    1    2  503    0  0.57062310399E+02  0.29705419129E+02  0.89665229798E+03  0.89895709723E+03  0.00000000000E+00 0. -1.
         -2    1    1    2    0  501  0.48662644682E+02 -0.32389796381E+02  0.31206511836E+03  0.31749297629E+03  0.00000000000E+00 0.  1.
<mgrwt>
<rscale>  0 0.62731801E+02</rscale>
<asrwt>0</asrwt>
<pdfrwt beam="1">  1        2 0.28503353E+00 0.67319887E+02</pdfrwt>
<pdfrwt beam="2">  1       -2 0.22056099E-02 0.58456410E+02</pdfrwt>
<totfact> 0.56464911E+03</totfact>
</mgrwt>
</event>
<event>
 7    1  0.3113530E-004  0.1093454E+03  0.7546771E-02  0.1434815E+00
         -1   -1    0    0    0  501 -0.00000000000E+00  0.00000000000E+00  0.75416611080E+02  0.75416611080E+02  0.00000000000E+00 0.  1.
          3   -1    0    0  503    0  0.00000000000E+00 -0.00000000000E+00 -0.96845332117E+03  0.96845332117E+03  0.00000000000E+00 0. -1.
         25    2    1    2    0    0  0.88644555734E+01  0.96389987842E+02 -0.36265757348E+03  0.39561791104E+03  0.12499363026E+03 0.  0.
          4    1    3    3  502    0 -0.33623380272E+02 -0.67091124792E+01 -0.32981931937E+02  0.47591644492E+02  0.12700000000E+01 0.  1.
         -4    1    3    3    0  502  0.42487835845E+02  0.10309910032E+03 -0.32967564154E+03  0.34802626655E+03  0.12700000000E+01 0.  1.
          3    1    1    2  503    0  0.22422825989E+02  0.10440232695E+02 -0.53621164579E+03  0.53678180918E+03  0.00000000000E+00 0. -1.
         -1    1    1    2    0  501 -0.31287281562E+02 -0.10683022054E+03  0.58325091752E+01  0.11147021203E+03  0.00000000000E+00 0.  1.
<mgrwt>
<rscale>  0 0.52005500E+02</rscale>
<asrwt>0</asrwt>
<pdfrwt beam="2">  1        3 0.14899282E+00 0.24734219E+02</pdfrwt>
<pdfrwt beam="1">  1       -1 0.11602556E-01 0.10934536E+03</pdfrwt>
<totfact> 0.72572951E+01</totfact>
</mgrwt>
</event>
<event>
 7    1  0.3113530E-004  0.6697751E+02  0.7546771E-02  0.1492715E+00
          2   -1    0    0  503    0  0.00000000000E+00  0.00000000000E+00  0.22835280836E+04  0.22835280836E+04  0.00000000000E+00 0. -1.
         -1   -1    0    0    0  501 -0.00000000000E+00 -0.00000000000E+00 -0.61637803040E+01  0.61637803040E+01  0.00000000000E+00 0.  1.
         25    2    1    2    0    0  0.51343388889E+02 -0.29587474490E+02  0.12569577543E+04  0.12645470127E+04  0.12499915594E+03 0.  0.
          4    1    3    3  502    0  0.50611228693E+02 -0.65381842982E+02  0.50408847765E+03  0.51082588820E+03  0.12700000000E+01 0.  1.
         -4    1    3    3    0  502  0.73216019670E+00  0.35794368492E+02  0.75286927661E+03  0.75372112445E+03  0.12700000000E+01 0.  1.
          2    1    1    2  503    0 -0.70898454816E+02  0.11598342118E+02  0.73199313065E+03  0.73551006502E+03  0.00000000000E+00 0. -1.
         -1    1    1    2    0  501  0.19555065926E+02  0.17989132372E+02  0.28841341834E+03  0.28963478618E+03  0.00000000000E+00 0.  1.
<mgrwt>
<rscale>  0 0.42185882E+02</rscale>
<asrwt>0</asrwt>
<pdfrwt beam="1">  1        2 0.35131134E+00 0.66977510E+02</pdfrwt>
<pdfrwt beam="2">  1       -1 0.94827571E-03 0.26570839E+02</pdfrwt>
<totfact> 0.96879206E+03</totfact>
</mgrwt>
</event>
<event>
 7    1  0.4071986E-004  0.5587396E+02  0.7546771E-02  0.1428927E+00
          1   -1    0    0  503    0  0.00000000000E+00  0.00000000000E+00  0.22397304267E+04  0.22397304267E+04  0.00000000000E+00 0. -1.
         -2   -1    0    0    0  501 -0.00000000000E+00 -0.00000000000E+00 -0.99488030068E+01  0.99488030068E+01  0.00000000000E+00 0.  1.
         25    2    1    2    0    0  0.77815024395E+02  0.47658684067E+02  0.80558213262E+03  0.82031326215E+03  0.12499898991E+03 0.  0.
          4    1    3    3  502    0 -0.30223540107E+02  0.32447634071E+02  0.28365737650E+03  0.28710526201E+03  0.12700000000E+01 0. -1.
         -4    1    3    3    0  502  0.10803856450E+03  0.15211049996E+02  0.52192475612E+03  0.53320800014E+03  0.12700000000E+01 0. -1.
          1    1    1    2  503    0 -0.53454030477E+02 -0.32994715417E+01  0.10940606815E+04  0.10953707111E+04  0.00000000000E+00 0. -1.
         -2    1    1    2    0  501 -0.24360993918E+02 -0.44359212525E+02  0.33013880958E+03  0.33399525648E+03  0.00000000000E+00 0.  1.
<mgrwt>
<rscale>  0 0.53175980E+02</rscale>
<asrwt>0</asrwt>
<pdfrwt beam="1">  1        1 0.34457351E+00 0.55873959E+02</pdfrwt>
<pdfrwt beam="2">  1       -2 0.15305869E-02 0.50608278E+02</pdfrwt>
<totfact> 0.23178882E+03</totfact>
</mgrwt>
</event>
<event>
 7    1  0.3113530E-004  0.1370055E+03  0.7546771E-02  0.1233485E+00
          1   -1    0    0  503    0  0.00000000000E+00  0.00000000000E+00  0.15965917486E+04  0.15965917486E+04  0.00000000000E+00 0. -1.
         -1   -1    0    0    0  501 -0.00000000000E+00 -0.00000000000E+00 -0.24211467516E+03  0.24211467516E+03  0.00000000000E+00 0.  1.
         25    2    1    2    0    0  0.43397905699E+02  0.89969436874E+02  0.62313598069E+03  0.64335263623E+03  0.12500514519E+03 0.  0.
          4    1    3    3  502    0  0.61582107239E+02  0.94055550146E+02  0.31169778441E+03  0.33135468029E+03  0.12700000000E+01 0.  1.
         -4    1    3    3    0  502 -0.18184201540E+02 -0.40861132721E+01  0.31143819628E+03  0.31199795594E+03  0.12700000000E+01 0.  1.
          1    1    1    2  503    0  0.94403908352E+02 -0.67260410621E+02  0.93843574998E+03  0.94556740510E+03  0.00000000000E+00 0. -1.
         -1    1    1    2    0  501 -0.13780181405E+03 -0.22709026253E+02 -0.20709465719E+03  0.24978638246E+03  0.00000000000E+00 0.  1.
<mgrwt>
<rscale>  0 0.12601928E+03</rscale>
<asrwt>0</asrwt>
<pdfrwt beam="1">  1        1 0.24562949E+00 0.11591402E+03</pdfrwt>
<pdfrwt beam="2">  1       -1 0.37248413E-01 0.13700550E+03</pdfrwt>
<totfact> 0.47474678E+01</totfact>
</mgrwt>
</event>
<event>
 7    1  0.3113530E-004  0.7262756E+02  0.7546771E-02  0.1437821E+00
         -2   -1    0    0    0  501 -0.00000000000E+00  0.00000000000E+00  0.53064543876E+03  0.53064543876E+03  0.00000000000E+00 0.  1.
          2   -1    0    0  503    0  0.00000000000E+00 -0.00000000000E+00 -0.41492396044E+03  0.41492396044E+03  0.00000000000E+00 0.  1.
         25    2    1    2    0    0 -0.63638920737E+02  0.27026233252E+02  0.26820595857E+03  0.30387459625E+03  0.12500001807E+03 0.  0.
          4    1    3    3  502    0 -0.57799029090E+02  0.34479900344E+02  0.46154385557E+02  0.81617593064E+02  0.12700000000E+01 0. -1.
         -4    1    3    3    0  502 -0.58398916469E+01 -0.74536670919E+01  0.22205157302E+03  0.22225700319E+03  0.12700000000E+01 0. -1.
          2    1    1    2  503    0  0.16441560229E+02  0.32483477796E+02 -0.39032578441E+03  0.39202004949E+03  0.00000000000E+00 0.  1.
         -2    1    1    2    0  501  0.47197360507E+02 -0.59509711048E+02  0.23784130415E+03  0.24967475345E+03  0.00000000000E+00 0.  1.
<mgrwt>
<rscale>  0 0.51421620E+02</rscale>
<asrwt>0</asrwt>
<pdfrwt beam="2">  1        2 0.63834455E-01 0.36407434E+02</pdfrwt>
<pdfrwt beam="1">  1       -2 0.81637760E-01 0.72627557E+02</pdfrwt>
<totfact> 0.10954397E+02</totfact>
</mgrwt>
</event>
<event>
 7    1  0.3113530E-004  0.9435674E+02  0.7546771E-02  0.1456572E+00
         -1   -1    0    0    0  501 -0.00000000000E+00  0.00000000000E+00  0.17740135935E+02  0.17740135935E+02  0.00000000000E+00 0.  1.
          1   -1    0    0  503    0  0.00000000000E+00 -0.00000000000E+00 -0.18216009950E+04  0.18216009950E+04  0.00000000000E+00 0.  1.
         25    2    1    2    0    0 -0.16309854036E+02 -0.93281240265E+02 -0.82167752856E+03  0.83650813306E+03  0.12499797838E+03 0.  0.
          4    1    3    3  502    0 -0.24602242473E+02  0.88889248167E+01 -0.37980716546E+02  0.46134922222E+02  0.12700000000E+01 0.  1.
         -4    1    3    3    0  502  0.82923884370E+01 -0.10217016508E+03 -0.78369681202E+03  0.79037321083E+03  0.12700000000E+01 0.  1.
          1    1    1    2  503    0  0.24358909432E+02 -0.13075197889E+01 -0.76994729454E+03  0.77033363061E+03  0.00000000000E+00 0.  1.
         -1    1    1    2    0  501 -0.80490553963E+01  0.94588760054E+02 -0.21223603600E+03  0.23249936731E+03  0.00000000000E+00 0.  1.
<mgrwt>
<rscale>  0 0.47976411E+02</rscale>
<asrwt>0</asrwt>
<pdfrwt beam="2">  1        1 0.28024621E+00 0.24393976E+02</pdfrwt>
<pdfrwt beam="1">  1       -1 0.27292526E-02 0.94356739E+02</pdfrwt>
<totfact> 0.22671342E+03</totfact>
</mgrwt>
</event>
<event>
 7    1  0.3113530E-004  0.3647190E+02  0.7546771E-02  0.1557187E+00
         -1   -1    0    0    0  501 -0.00000000000E+00  0.00000000000E+00  0.93518799100E+03  0.93518799100E+03  0.00000000000E+00 0.  1.
          2   -1    0    0  503    0  0.00000000000E+00 -0.00000000000E+00 -0.12553844001E+02  0.12553844001E+02  0.00000000000E+00 0. -1.
         25    2    1    2    0    0 -0.16291192492E+02 -0.83483171127E+01  0.67946050738E+03  0.69110875157E+03  0.12501851088E+03 0.  0.
          4    1    3    3  502    0  0.42518746102E+02 -0.27923526590E+02  0.15837933189E+03  0.16635261578E+03  0.12700000000E+01 0. -1.
         -4    1    3    3    0  502 -0.58809938595E+02  0.19575209477E+02  0.52108117549E+03  0.52475613580E+03  0.12700000000E+01 0. -1.
          2    1    1    2  503    0 -0.26563675201E+02 -0.17467257123E+02  0.10328481292E+03  0.10806704628E+03  0.00000000000E+00 0. -1.
         -1    1    1    2    0  501  0.42854867693E+02  0.25815574236E+02  0.13988882670E+03  0.14856603714E+03  0.00000000000E+00 0.  1.
<mgrwt>
<rscale>  0 0.34051667E+02</rscale>
<asrwt>0</asrwt>
<pdfrwt beam="2">  1        2 0.19313614E-02 0.31792042E+02</pdfrwt>
<pdfrwt beam="1">  1       -1 0.14387502E+00 0.36471896E+02</pdfrwt>
<totfact> 0.23603587E+03</totfact>
</mgrwt>
</event>
<event>
 7    1  0.3113530E-004  0.5958252E+02  0.7546771E-02  0.1539661E+00
         -1   -1    0    0    0  501 -0.00000000000E+00  0.00000000000E+00  0.61383656369E+03  0.61383656369E+03  0.00000000000E+00 0.  1.
          2   -1    0    0  503    0  0.00000000000E+00 -0.00000000000E+00 -0.71825597444E+03  0.71825597444E+03  0.00000000000E+00 0. -1.
         25    2    1    2    0    0  0.14073899688E+02  0.42106364597E+02 -0.31094455621E+03  0.33805693875E+03  0.12499982482E+03 0.  0.
          4    1    3    3  502    0  0.32042679689E+01  0.86661936421E+02 -0.19941161826E+03  0.21745612190E+03  0.12700000000E+01 0.  1.
         -4    1    3    3    0  502  0.10869631719E+02 -0.44555571824E+02 -0.11153293796E+03  0.12060081685E+03  0.12700000000E+01 0.  1.
          2    1    1    2  503    0  0.20868237377E+02  0.62516771184E+01 -0.39196961943E+03  0.39257451440E+03  0.00000000000E+00 0. -1.
         -1    1    1    2    0  501 -0.34942137065E+02 -0.48358041715E+02  0.59849476489E+03  0.60146108498E+03  0.00000000000E+00 0.  1.
<mgrwt>
<rscale>  0 0.36027471E+02</rscale>
<asrwt>0</asrwt>
<pdfrwt beam="2">  1        2 0.11050092E+00 0.21784554E+02</pdfrwt>
<pdfrwt beam="1">  1       -1 0.94436395E-01 0.59582520E+02</pdfrwt>
<totfact> 0.61598101E+01</totfact>
</mgrwt>
</event>
<event>
 7    1  0.3113530E-004  0.1654270E+03  0.7546771E-02  0.1284750E+00
         -3   -1    0    0    0  502 -0.00000000000E+00  0.00000000000E+00  0.67985603265E+02  0.67985603265E+02  0.00000000000E+00 0.  1.
         -2   -1    0    0    0  501  0.00000000000E+00 -0.00000000000E+00 -0.15031398109E+04  0.15031398109E+04  0.00000000000E+00 0.  1.
         25    2    1    2    0    0  0.12340454689E+03  0.12497330626E+03 -0.58367370587E+03  0.62220967464E+03  0.12499149899E+03 0.  0.
          4    1    3    3  503    0 -0.56629501717E+01  0.75264289230E+02 -0.24549459370E+03  0.25683845248E+03  0.12700000000E+01 0.  1.
         -4    1    3    3    0  503  0.12906749706E+03  0.49709017034E+02 -0.33817911217E+03  0.36537122216E+03  0.12700000000E+01 0.  1.
         -2    1    1    2    0  501  0.24662903871E+02 -0.52441257111E+02 -0.75633953659E+03  0.75855641773E+03  0.00000000000E+00 0.  1.
         -3    1    1    2    0  502 -0.14806745076E+03 -0.72532049152E+02 -0.95140965123E+02  0.19035932174E+03  0.00000000000E+00 0.  1.
<mgrwt>
<rscale>  0 0.97911684E+02</rscale>
<asrwt>0</asrwt>
<pdfrwt beam="2">  1       -2 0.23125227E+00 0.57951223E+02</pdfrwt>
<pdfrwt beam="1">  1       -3 0.10459324E-01 0.16542701E+03</pdfrwt>
<totfact> 0.28350852E+01</totfact>
</mgrwt>
</event>
<event>
 7    1  0.3113530E-004  0.9697541E+02  0.7546771E-02  0.1327011E+00
         -2   -1    0    0    0  501 -0.00000000000E+00  0.00000000000E+00  0.12806857423E+03  0.12806857423E+03  0.00000000000E+00 0.  1.
          2   -1    0    0  503    0  0.00000000000E+00 -0.00000000000E+00 -0.70265258416E+03  0.70265258416E+03  0.00000000000E+00 0. -1.
         25    2    1    2    0    0 -0.11622144339E+03  0.48830504720E+02 -0.15154963217E+03  0.23341997151E+03  0.12500299996E+03 0.  0.
          4    1    3    3  502    0 -0.51556893262E+02  0.83001996340E+02 -0.11723873737E+03  0.15262365177E+03  0.12700000000E+01 0. -1.
         -4    1    3    3    0  502 -0.64664550124E+02 -0.34171491621E+02 -0.34310894793E+02  0.80796319742E+02  0.12700000000E+01 0. -1.
          2    1    1    2  503    0  0.94416847620E+02  0.14728273268E+02 -0.49189335596E+03  0.50108935010E+03  0.00000000000E+00 0. -1.
         -2    1    1    2    0  501  0.21804595765E+02 -0.63558777988E+02  0.68858978198E+02  0.96211836768E+02  0.00000000000E+00 0.  1.
<mgrwt>
<rscale>  0 0.80723330E+02</rscale>
<asrwt>0</asrwt>
<pdfrwt beam="2">  1        2 0.10810040E+00 0.96975411E+02</pdfrwt>
<pdfrwt beam="1">  1       -2 0.19702858E-01 0.67194930E+02</pdfrwt>
<totfact> 0.88683271E+02</totfact>
</mgrwt>
</event>
<event>
 7    1  0.3113530E-004  0.4002443E+02  0.7546771E-02  0.1515032E+00
         -2   -1    0    0    0  501 -0.00000000000E+00  0.00000000000E+00  0.10202081387E+03  0.10202081387E+03  0.00000000000E+00 0.  1.
          1   -1    0    0  503    0  0.00000000000E+00 -0.00000000000E+00 -0.14161491080E+03  0.14161491080E+03  0.00000000000E+00 0. -1.
         25    2    1    2    0    0 -0.47494475245E+01 -0.79389554813E+00 -0.54277575931E+02  0.13635466905E+03  0.12499341183E+03 0.  0.
          4    1    3    3  502    0  0.20901938261E+02 -0.16837347223E+01  0.36442984511E+02  0.42064593256E+02  0.12700000000E+01 0. -1.
         -4    1    3    3    0  502 -0.25651385786E+02  0.88983917413E+00 -0.90720560441E+02  0.94290075794E+02  0.12700000000E+01 0. -1.
          1    1    1    2  503    0 -0.29794394334E+01 -0.39913384054E+02 -0.27179091268E+02  0.48380350227E+02  0.00000000000E+00 0. -1.
         -2    1    1    2    0  501  0.77288869579E+01  0.40707279602E+02  0.41862570267E+02  0.58900705391E+02  0.00000000000E+00 0.  1.
<mgrwt>
<rscale>  0 0.39088025E+02</rscale>
<asrwt>0</asrwt>
<pdfrwt beam="2">  1        1 0.21786909E-01 0.40024434E+02</pdfrwt>
<pdfrwt beam="1">  1       -2 0.15695510E-01 0.38173524E+02</pdfrwt>
<totfact> 0.54096216E+03</totfact>
</mgrwt>
</event>
<event>
 7    1  0.3113530E-004  0.1295497E+03  0.7546771E-02  0.1260810E+00
          2   -1    0    0  503    0  0.00000000000E+00  0.00000000000E+00  0.74845633330E+03  0.74845633330E+03  0.00000000000E+00 0. -1.
          2   -1    0    0  502    0 -0.00000000000E+00 -0.00000000000E+00 -0.31486735381E+04  0.31486735381E+04  0.00000000000E+00 0. -1.
         25    2    1    2    0    0 -0.12408966343E+02 -0.39619225643E+02  0.67140790239E+03  0.68420535366E+03  0.12499891642E+03 0.  0.
          4    1    3    3  501    0  0.52240599228E+02 -0.39716657175E+02  0.38817000843E+03  0.39368015115E+03  0.12700000000E+01 0.  1.
         -4    1    3    3    0  501 -0.64649565571E+02  0.97431532120E-01  0.28323789396E+03  0.29052520252E+03  0.12700000000E+01 0.  1.
          2    1    1    2  502    0  0.85091623318E+02  0.97928005934E+02 -0.31095982134E+04  0.31123032512E+04  0.00000000000E+00 0. -1.
          2    1    1    2  503    0 -0.72682656975E+02 -0.58308780291E+02  0.37973106212E+02  0.10062126654E+03  0.00000000000E+00 0. -1.
<mgrwt>
<rscale>  0 0.10987067E+03</rscale>
<asrwt>0</asrwt>
<pdfrwt beam="1">  1        2 0.11514713E+00 0.93180913E+02</pdfrwt>
<pdfrwt beam="2">  1        2 0.48441132E+00 0.12954975E+03</pdfrwt>
<totfact> 0.11927579E+01</totfact>
</mgrwt>
</event>
<event>
 7    1  0.3113530E-004  0.9100255E+02  0.7546771E-02  0.1459869E+00
          2   -1    0    0  503    0  0.00000000000E+00  0.00000000000E+00  0.21250080590E+04  0.21250080590E+04  0.00000000000E+00 0.  1.
         -2   -1    0    0    0  501 -0.00000000000E+00 -0.00000000000E+00 -0.37322435355E+02  0.37322435355E+02  0.00000000000E+00 0.  1.
         25    2    1    2    0    0 -0.73719297284E+02 -0.86022839771E+02  0.12509021722E+04  0.12622263305E+04  0.12499840461E+03 0.  0.
          4    1    3    3  502    0  0.88745882548E+01 -0.52782963906E+02  0.84397426018E+03  0.84567071862E+03  0.12700000000E+01 0.  1.
         -4    1    3    3    0  502 -0.82593885539E+02 -0.33239875865E+02  0.40692791207E+03  0.41655561189E+03  0.12700000000E+01 0.  1.
          2    1    1    2  503    0  0.20722220559E+02  0.13428954270E+02  0.80407925347E+03  0.80445832278E+03  0.00000000000E+00 0.  1.
         -2    1    1    2    0  501  0.52997076724E+02  0.72593885501E+02  0.32704197963E+02  0.95645841090E+02  0.00000000000E+00 0.  1.
<mgrwt>
<rscale>  0 0.47403919E+02</rscale>
<asrwt>0</asrwt>
<pdfrwt beam="1">  1        2 0.32692422E+00 0.24693061E+02</pdfrwt>
<pdfrwt beam="2">  1       -2 0.57419148E-02 0.91002552E+02</pdfrwt>
<totfact> 0.12330207E+03</totfact>
</mgrwt>
</event>
<event>
 7    1  0.3113530E-004  0.3370938E+02  0.7546771E-02  0.1584246E+00
         -1   -1    0    0    0  501 -0.00000000000E+00  0.00000000000E+00  0.15243217255E+03  0.15243217255E+03  0.00000000000E+00 0.  1.
          2   -1    0    0  503    0  0.00000000000E+00 -0.00000000000E+00 -0.11014724893E+03  0.11014724893E+03  0.00000000000E+00 0. -1.
         25    2    1    2    0    0 -0.16257084917E+02 -0.45422878179E+02 -0.37742554039E+02  0.13920322264E+03  0.12500202453E+03 0.  0.
          4    1    3    3  502    0  0.72627941232E+01 -0.84050964481E+02 -0.73363266193E+01  0.84692073991E+02  0.12700000000E+01 0. -1.
         -4    1    3    3    0  502 -0.23519879040E+02  0.38628086302E+02 -0.30406227420E+02  0.54511148651E+02  0.12700000000E+01 0. -1.
          2    1    1    2  503    0  0.25819661744E+02  0.13303355665E+02 -0.72067679089E+01  0.29926104127E+02  0.00000000000E+00 0. -1.
         -1    1    1    2    0  501 -0.95625768275E+01  0.32119522515E+02  0.87234245570E+02  0.93450094716E+02  0.00000000000E+00 0.  1.
<mgrwt>
<rscale>  0 0.31290601E+02</rscale>
<asrwt>0</asrwt>
<pdfrwt beam="2">  1        2 0.16945731E-01 0.29045382E+02</pdfrwt>
<pdfrwt beam="1">  1       -1 0.23451103E-01 0.33709377E+02</pdfrwt>
<totfact> 0.50096300E+03</totfact>
</mgrwt>
</event>
<event>
 7    1  0.3113530E-004  0.3849730E+02  0.7546771E-02  0.1561118E+00
         -2   -1    0    0    0  501 -0.00000000000E+00  0.00000000000E+00  0.23009591525E+02  0.23009591525E+02  0.00000000000E+00 0.  1.
          2   -1    0    0  503    0  0.00000000000E+00 -0.00000000000E+00 -0.58791368177E+03  0.58791368177E+03  0.00000000000E+00 0. -1.
         25    2    1    2    0    0 -0.33549636003E+02  0.19855397972E+02 -0.29928696907E+03  0.32667601972E+03  0.12499886840E+03 0.  0.
          4    1    3    3  502    0 -0.33662147752E+02  0.62193580886E+02 -0.97276910677E+02  0.12027298926E+03  0.12700000000E+01 0.  1.
         -4    1    3    3    0  502  0.11251174810E+00 -0.42338182914E+02 -0.20201005839E+03  0.20640303046E+03  0.12700000000E+01 0.  1.
          2    1    1    2  503    0 -0.52871074348E+01 -0.28897681518E+02 -0.22647000809E+03  0.22836745405E+03  0.00000000000E+00 0. -1.
         -2    1    1    2    0  501  0.38836743438E+02  0.90422835460E+01 -0.39147113083E+02  0.55879799529E+02  0.00000000000E+00 0.  1.
<mgrwt>
<rscale>  0 0.33629587E+02</rscale>
<asrwt>0</asrwt>
<pdfrwt beam="2">  1        2 0.90448240E-01 0.29377364E+02</pdfrwt>
<pdfrwt beam="1">  1       -2 0.35399379E-02 0.38497298E+02</pdfrwt>
<totfact> 0.14363482E+04</totfact>
</mgrwt>
</event>
<event>
 7    1  0.3113530E-004  0.4181404E+02  0.7546771E-02  0.1525876E+00
          2   -1    0    0  503    0  0.00000000000E+00  0.00000000000E+00  0.54346962020E+02  0.54346962020E+02  0.00000000000E+00 0. -1.
          2   -1    0    0  502    0 -0.00000000000E+00 -0.00000000000E+00 -0.26490259167E+03  0.26490259167E+03  0.00000000000E+00 0. -1.
         25    2    1    2    0    0  0.24278496240E+02 -0.28392586196E+02 -0.15537106758E+03  0.20292704028E+03  0.12507450062E+03 0.  0.
          4    1    3    3  501    0 -0.16104855608E+01  0.31258480882E+02 -0.12899307698E+03  0.13274228075E+03  0.12700000000E+01 0.  1.
         -4    1    3    3    0  501  0.25888981801E+02 -0.59651067078E+02 -0.26377990605E+02  0.70184759532E+02  0.12700000000E+01 0.  1.
          2    1    1    2  502    0  0.48841704556E+01  0.45843989060E+02 -0.66133037848E+02  0.80617027661E+02  0.00000000000E+00 0. -1.
          2    1    1    2  503    0 -0.29162666696E+02 -0.17451402864E+02  0.10948475777E+02  0.35705485749E+02  0.00000000000E+00 0. -1.
<mgrwt>
<rscale>  0 0.37697084E+02</rscale>
<asrwt>0</asrwt>
<pdfrwt beam="1">  1        2 0.83610711E-02 0.33985476E+02</pdfrwt>
<pdfrwt beam="2">  1        2 0.40754245E-01 0.41814043E+02</pdfrwt>
<totfact> 0.12984284E+04</totfact>
</mgrwt>
</event>
<event>
 7    1  0.3113530E-004  0.5144389E+02  0.7546771E-02  0.1550832E+00
          3   -1    0    0  503    0 -0.00000000000E+00  0.00000000000E+00  0.10553083762E+03  0.10553083762E+03  0.00000000000E+00 0. -1.
          1   -1    0    0  502    0  0.00000000000E+00 -0.00000000000E+00 -0.15599081576E+04  0.15599081576E+04  0.00000000000E+00 0. -1.
         25    2    1    2    0    0 -0.27050494880E+02 -0.25009278205E+02 -0.54049789075E+02  0.14107941675E+03  0.12499931544E+03 0.  0.
          4    1    3    3  501    0  0.10231001091E+02 -0.55852297634E+02  0.13115586632E+02  0.58290514212E+02  0.12700000000E+01 0. -1.
         -4    1    3    3    0  501 -0.37281495971E+02  0.30843019429E+02 -0.67165375707E+02  0.82788902536E+02  0.12700000000E+01 0. -1.
          1    1    1    2  502    0  0.48925005083E+02  0.16494241282E+02 -0.14596494605E+04  0.14605623107E+04  0.00000000000E+00 0. -1.
          3    1    1    2  503    0 -0.21874510203E+02  0.85150369237E+01  0.59321929529E+02  0.63797267759E+02  0.00000000000E+00 0. -1.
<mgrwt>
<rscale>  0 0.34749999E+02</rscale>
<asrwt>0</asrwt>
<pdfrwt beam="2">  1        1 0.23998586E+00 0.51443887E+02</pdfrwt>
<pdfrwt beam="1">  1        3 0.16235514E-01 0.23473390E+02</pdfrwt>
<totfact> 0.10505627E+02</totfact>
</mgrwt>
</event>
<event>
 7    1  0.3113530E-004  0.1206453E+03  0.7546771E-02  0.1295252E+00
          1   -1    0    0  503    0  0.00000000000E+00  0.00000000000E+00  0.20558110953E+03  0.20558110953E+03  0.00000000000E+00 0. -1.
          1   -1    0    0  502    0 -0.00000000000E+00 -0.00000000000E+00 -0.95529819478E+03  0.95529819478E+03  0.00000000000E+00 0. -1.
         25    2    1    2    0    0  0.17315979983E+03  0.36059737319E+02 -0.41702808385E+03  0.46991530005E+03  0.12499338208E+03 0.  0.
          4    1    3    3  501    0  0.13316796941E+03 -0.17778469651E+02 -0.35081143139E+03  0.37565949389E+03  0.12700000000E+01 0. -1.
         -4    1    3    3    0  501  0.39991830427E+02  0.53838206970E+02 -0.66216652464E+02  0.94255806157E+02  0.12700000000E+01 0. -1.
          1    1    1    2  502    0 -0.69059365323E+02  0.20431360297E+02 -0.48932109315E+03  0.49459252786E+03  0.00000000000E+00 0. -1.
          1    1    1    2  503    0 -0.10410043451E+03 -0.56491097616E+02  0.15663209175E+03  0.19637147639E+03  0.00000000000E+00 0. -1.
<mgrwt>
<rscale>  0 0.93213022E+02</rscale>
<asrwt>0</asrwt>
<pdfrwt beam="1">  1        1 0.31627863E-01 0.12064526E+03</pdfrwt>
<pdfrwt beam="2">  1        1 0.14696895E+00 0.72018306E+02</pdfrwt>
<totfact> 0.31464487E+02</totfact>
</mgrwt>
</event>
<event>
 7    1  0.3113530E-004  0.4574968E+02  0.7546771E-02  0.1477956E+00
          2   -1    0    0  503    0  0.00000000000E+00  0.00000000000E+00  0.60535143944E+03  0.60535143944E+03  0.00000000000E+00 0.  1.
         -3   -1    0    0    0  501 -0.00000000000E+00 -0.00000000000E+00 -0.22581149274E+03  0.22581149274E+03  0.00000000000E+00 0.  1.
         25    2    1    2    0    0 -0.57056497690E+02  0.80121096476E+01 -0.45142453472E+02  0.14484954346E+03  0.12499564515E+03 0.  0.
          4    1    3    3  502    0 -0.61455354957E+02 -0.10068431498E+02  0.28776641700E+02  0.68613715635E+02  0.12700000000E+01 0. -1.
         -4    1    3    3    0  502  0.43988572666E+01  0.18080541146E+02 -0.73919095172E+02  0.76235827827E+02  0.12700000000E+01 0. -1.
          2    1    1    2  503    0  0.21446627905E+02 -0.37432387707E+02  0.55055005802E+03  0.55223772769E+03  0.00000000000E+00 0.  1.
         -3    1    1    2    0  501  0.35609869785E+02  0.29420278059E+02 -0.12586765785E+03  0.13407566103E+03  0.00000000000E+00 0.  1.
<mgrwt>
<rscale>  0 0.44426169E+02</rscale>
<asrwt>0</asrwt>
<pdfrwt beam="1">  1        2 0.93130990E-01 0.43140949E+02</pdfrwt>
<pdfrwt beam="2">  1       -3 0.34740230E-01 0.45749678E+02</pdfrwt>
<totfact> 0.23596075E+02</totfact>
</mgrwt>
</event>
<event>
 7    1  0.3113530E-004  0.2151883E+03  0.7546771E-02  0.1156936E+00
          1   -1    0    0  503    0  0.00000000000E+00  0.00000000000E+00  0.16926331044E+04  0.16926331044E+04  0.00000000000E+00 0. -1.
         -2   -1    0    0    0  501 -0.00000000000E+00 -0.00000000000E+00 -0.73301437266E+02  0.73301437266E+02  0.00000000000E+00 0. -1.
         25    2    1    2    0    0 -0.13487164613E+03  0.19985291327E+03  0.64907160978E+03  0.70360117756E+03  0.12501645718E+03 0.  0.
          4    1    3    3  502    0 -0.14215908951E+03  0.17427447722E+03  0.63464455529E+03  0.67331725405E+03  0.12700000000E+01 0. -1.
         -4    1    3    3    0  502  0.72874433820E+01  0.25578436047E+02  0.14427054489E+02  0.30283923505E+02  0.12700000000E+01 0. -1.
          1    1    1    2  503    0  0.16943269356E+03  0.21386880240E+02  0.64653810077E+03  0.66871245841E+03  0.00000000000E+00 0. -1.
         -2    1    1    2    0  501 -0.34561047430E+02 -0.22123979351E+03  0.32372195663E+03  0.39362090574E+03  0.00000000000E+00 0. -1.
<mgrwt>
<rscale>  0 0.19170092E+03</rscale>
<asrwt>0</asrwt>
<pdfrwt beam="1">  1        1 0.26040506E+00 0.17077715E+03</pdfrwt>
<pdfrwt beam="2">  1       -2 0.11277145E-01 0.21518829E+03</pdfrwt>
<totfact> 0.26663072E+02</totfact>
</mgrwt>
</event>
<event>
 7    1  0.3113530E-004  0.8279633E+02  0.7546771E-02  0.1322179E+00
          1   -1    0    0  503    0  0.00000000000E+00  0.00000000000E+00  0.92315524810E+03  0.92315524810E+03  0.00000000000E+00 0. -1.
          1   -1    0    0  502    0 -0.00000000000E+00 -0.00000000000E+00 -0.58879808377E+02  0.58879808377E+02  0.00000000000E+00 0. -1.
         25    2    1    2    0    0  0.10833405242E+03 -0.13746415398E+02  0.38218458552E+03  0.41667219623E+03  0.12500172340E+03 0.  0.
          4    1    3    3  501    0  0.97462645853E+02  0.42482986861E+02  0.28027668860E+03  0.29976725402E+03  0.12700000000E+01 0. -1.
         -4    1    3    3    0  501  0.10871406562E+02 -0.56229402259E+02  0.10190789693E+03  0.11690494222E+03  0.12700000000E+01 0. -1.
          1    1    1    2  502    0 -0.63000974675E+02 -0.54762165752E+02  0.76075128322E+01  0.83820593289E+02  0.00000000000E+00 0. -1.
          1    1    1    2  503    0 -0.45333077740E+02  0.68508581150E+02  0.47448334137E+03  0.48154226695E+03  0.00000000000E+00 0. -1.
<mgrwt>
<rscale>  0 0.82472197E+02</rscale>
<asrwt>0</asrwt>
<pdfrwt beam="1">  1        1 0.14202387E+00 0.82149337E+02</pdfrwt>
<pdfrwt beam="2">  1        1 0.90584327E-02 0.82796325E+02</pdfrwt>
<totfact> 0.15947592E+03</totfact>
</mgrwt>
</event>
<event>
 7    1  0.3113530E-004  0.3809907E+03  0.7546771E-02  0.1050568E+00
         -1   -1    0    0    0  501 -0.00000000000E+00  0.00000000000E+00  0.38599104270E+03  0.38599104270E+03  0.00000000000E+00 0.  1.
          2   -1    0    0  503    0  0.00000000000E+00 -0.00000000000E+00 -0.94013785564E+02  0.94013785564E+02  0.00000000000E+00 0. -1.
         25    2    1    2    0    0  0.94413060971E+01  0.15523994324E+03  0.11776977023E+03  0.23169446351E+03  0.12499610956E+03 0.  0.
          4    1    3    3  502    0  0.49333337067E+01  0.29666088958E+01 -0.23319003510E+02  0.24052596004E+02  0.12700000000E+01 0. -1.
         -4    1    3    3    0  502  0.45079723904E+01  0.15227333434E+03  0.14108877374E+03  0.20764186751E+03  0.12700000000E+01 0. -1.
          2    1    1    2  503    0  0.36768205876E+02 -0.80874509551E+02  0.77932587994E+02  0.11817815166E+03  0.00000000000E+00 0. -1.
         -1    1    1    2    0  501 -0.46209511974E+02 -0.74365433686E+02  0.96274898918E+02  0.13013221310E+03  0.00000000000E+00 0.  1.
<mgrwt>
<rscale>  0 0.38099070E+03</rscale>
<asrwt>0</asrwt>
<pdfrwt beam="2">  1        2 0.14463660E-01 0.38099070E+03</pdfrwt>
<pdfrwt beam="1">  1       -1 0.59383236E-01 0.38099070E+03</pdfrwt>
<totfact> 0.13800726E+03</totfact>
</mgrwt>
</event>
<event>
 7    1  0.3113530E-004  0.1497064E+03  0.7546771E-02  0.1393584E+00
          2   -1    0    0  502    0  0.00000000000E+00  0.00000000000E+00  0.44228676933E+03  0.44228676933E+03  0.00000000000E+00 0. -1.
          2   -1    0    0  503    0 -0.00000000000E+00 -0.00000000000E+00 -0.92711255044E+03  0.92711255044E+03  0.00000000000E+00 0.  1.
         25    2    1    2    0    0  0.12702346681E+03  0.19027137282E+01 -0.16137764314E+03  0.24042873825E+03  0.12499861211E+03 0.  0.
          4    1    3    3  501    0  0.89629919278E+02  0.35113999486E+02 -0.31572080072E+02  0.10131596384E+03  0.12700000000E+01 0.  1.
         -4    1    3    3    0  501  0.37393547536E+02 -0.33211285758E+02 -0.12980556307E+03  0.13911277440E+03  0.12700000000E+01 0.  1.
          2    1    1    2  502    0 -0.15109686110E+03 -0.81665214433E+01  0.38832379867E+03  0.41676411329E+03  0.00000000000E+00 0. -1.
          2    1    1    2  503    0  0.24073394287E+02  0.62638077151E+01 -0.71177193664E+03  0.71220646823E+03  0.00000000000E+00 0.  1.
<mgrwt>
<rscale>  0 0.61024102E+02</rscale>
<asrwt>0</asrwt>
<pdfrwt beam="1">  1        2 0.68044118E-01 0.14970642E+03</pdfrwt>
<pdfrwt beam="2">  1        2 0.14263270E+00 0.24874959E+02</pdfrwt>
<totfact> 0.36476212E+02</totfact>
</mgrwt>
</event>
<event>
 7    1  0.3113530E-004  0.1148271E+03  0.7546771E-02  0.1312942E+00
          2   -1    0    0  502    0  0.00000000000E+00  0.00000000000E+00  0.10432175183E+04  0.10432175183E+04  0.00000000000E+00 0.  1.
          1   -1    0    0  503    0 -0.00000000000E+00 -0.00000000000E+00 -0.70782253040E+03  0.70782253040E+03  0.00000000000E+00 0. -1.
         25    2    1    2    0    0  0.29736164555E+02 -0.99259742032E+02 -0.23596121095E+03  0.28643172862E+03  0.12501482400E+03 0.  0.
          4    1    3    3  501    0 -0.25521779515E+02 -0.32819309960E+01 -0.13212566617E+03  0.13461402921E+03  0.12700000000E+01 0. -1.
         -4    1    3    3    0  501  0.55257944070E+02 -0.95977811036E+02 -0.10383554478E+03  0.15181769941E+03  0.12700000000E+01 0. -1.
          2    1    1    2  502    0  0.61865317205E+02  0.17706169873E+02  0.10085177707E+04  0.10105686121E+04  0.00000000000E+00 0.  1.
          1    1    1    2  503    0 -0.91601481760E+02  0.81553572159E+02 -0.43716157182E+03  0.45403970803E+03  0.00000000000E+00 0. -1.
<mgrwt>
<rscale>  0 0.85959515E+02</rscale>
<asrwt>0</asrwt>
<pdfrwt beam="1">  1        2 0.16049500E+00 0.64349250E+02</pdfrwt>
<pdfrwt beam="2">  1        1 0.10889577E+00 0.11482711E+03</pdfrwt>
<totfact> 0.10523925E+02</totfact>
</mgrwt>
</event>
<event>
 7    1  0.3113530E-004  0.1813753E+03  0.7546771E-02  0.1324234E+00
         -2   -1    0    0    0  501 -0.00000000000E+00  0.00000000000E+00  0.99075808044E+03  0.99075808044E+03  0.00000000000E+00 0.  1.
          1   -1    0    0  503    0  0.00000000000E+00 -0.00000000000E+00 -0.11136076100E+04  0.11136076100E+04  0.00000000000E+00 0. -1.
         25    2    1    2    0    0  0.12775500296E+03 -0.98237705375E+02 -0.82319067715E+03  0.84808328333E+03  0.12502150608E+03 0.  0.
          4    1    3    3  502    0  0.85742557087E+02 -0.10615825636E+03 -0.75750799897E+03  0.76970211309E+03  0.12700000000E+01 0. -1.
         -4    1    3    3    0  502  0.42012445868E+02  0.79205509896E+01 -0.65682678182E+02  0.78381170244E+02  0.12700000000E+01 0. -1.
          1    1    1    2  503    0 -0.58335658963E+01 -0.36356626373E+02 -0.26827429510E+03  0.27078946099E+03  0.00000000000E+00 0. -1.
         -2    1    1    2    0  501 -0.12192143706E+03  0.13459433175E+03  0.96861544271E+03  0.98549294610E+03  0.00000000000E+00 0.  1.
<mgrwt>
<rscale>  0 0.81722324E+02</rscale>
<asrwt>0</asrwt>
<pdfrwt beam="2">  1        1 0.17132425E+00 0.36821662E+02</pdfrwt>
<pdfrwt beam="1">  1       -2 0.15242432E+00 0.18137526E+03</pdfrwt>
<totfact> 0.42332207E+00</totfact>
</mgrwt>
</event>
<event>
 7    1  0.5477334E-004  0.8960371E+02  0.7546771E-02  0.1431951E+00
          2   -1    0    0  503    0  0.00000000000E+00  0.00000000000E+00  0.20024438233E+04  0.20024438233E+04  0.00000000000E+00 0. -1.
         -1   -1    0    0    0  501 -0.00000000000E+00 -0.00000000000E+00 -0.10612783674E+02  0.10612783674E+02  0.00000000000E+00 0.  1.
         25    2    1    2    0    0  0.59835094754E+02  0.82748551951E+02  0.11380779922E+04  0.11494669237E+04  0.12500052374E+03 0.  0.
          4    1    3    3  502    0  0.43707525868E+02  0.31908177986E+02  0.14209798904E+03  0.15205897221E+03  0.12700000000E+01 0.  1.
         -4    1    3    3    0  502  0.16127568886E+02  0.50840373965E+02  0.99598000319E+03  0.99740795152E+03  0.12700000000E+01 0.  1.
          2    1    1    2  503    0  0.79512369690E+01 -0.29800357344E+02  0.43510465736E+03  0.43619645382E+03  0.00000000000E+00 0. -1.
         -1    1    1    2    0  501 -0.67786331723E+02 -0.52948194607E+02  0.41864839003E+03  0.42739322943E+03  0.00000000000E+00 0.  1.
<mgrwt>
<rscale>  0 0.52570304E+02</rscale>
<asrwt>0</asrwt>
<pdfrwt beam="1">  1        2 0.30806798E+00 0.30842884E+02</pdfrwt>
<pdfrwt beam="2">  1       -1 0.16327375E-02 0.89603711E+02</pdfrwt>
<totfact> 0.86027238E+03</totfact>
</mgrwt>
</event>
<event>
 7    1  0.3113530E-004  0.6783190E+02  0.7546771E-02  0.1418591E+00
         -2   -1    0    0    0  501 -0.00000000000E+00  0.00000000000E+00  0.23616265610E+03  0.23616265610E+03  0.00000000000E+00 0.  1.
          1   -1    0    0  503    0  0.00000000000E+00 -0.00000000000E+00 -0.29008387842E+04  0.29008387842E+04  0.00000000000E+00 0. -1.
         25    2    1    2    0    0  0.21560273758E+02 -0.14568374943E+02  0.16971463833E+03  0.21238246564E+03  0.12500468110E+03 0.  0.
          4    1    3    3  502    0  0.67609614734E+02 -0.31774115339E+02  0.12650262444E+03  0.14691896168E+03  0.12700000000E+01 0. -1.
         -4    1    3    3    0  502 -0.46049340976E+02  0.17205740396E+02  0.43212013885E+02  0.65463503961E+02  0.12700000000E+01 0. -1.
          1    1    1    2  503    0 -0.37006098005E+02  0.56958326278E+02 -0.28677216355E+04  0.28685259422E+04  0.00000000000E+00 0. -1.
         -2    1    1    2    0  501  0.15445824247E+02 -0.42389951336E+02  0.33330869062E+02  0.56093032485E+02  0.00000000000E+00 0.  1.
<mgrwt>
<rscale>  0 0.55320204E+02</rscale>
<asrwt>0</asrwt>
<pdfrwt beam="2">  1        1 0.44628289E+00 0.67831899E+02</pdfrwt>
<pdfrwt beam="1">  1       -2 0.36332717E-01 0.45116310E+02</pdfrwt>
<totfact> 0.65970321E+00</totfact>
</mgrwt>
</event>
<event>
 7    1  0.3113530E-004  0.3426342E+02  0.7546771E-02  0.1595264E+00
          2   -1    0    0  503    0  0.00000000000E+00  0.00000000000E+00  0.29702987536E+03  0.29702987536E+03  0.00000000000E+00 0. -1.
          2   -1    0    0  502    0 -0.00000000000E+00 -0.00000000000E+00 -0.98554865108E+03  0.98554865108E+03  0.00000000000E+00 0. -1.
         25    2    1    2    0    0  0.19246406015E+02  0.22121572830E+02  0.11257193365E+03  0.17074897377E+03  0.12499193442E+03 0.  0.
          4    1    3    3  501    0 -0.18482948340E+02  0.27057548580E+01 -0.22437314132E+02  0.29223046627E+02  0.12700000000E+01 0.  1.
         -4    1    3    3    0  501  0.37729354355E+02  0.19415817972E+02  0.13500924778E+03  0.14152592715E+03  0.12700000000E+01 0.  1.
          2    1    1    2  502    0  0.15981603491E+02 -0.21412703078E+02 -0.95427304663E+03  0.95464703583E+03  0.00000000000E+00 0. -1.
          2    1    1    2  503    0 -0.35228009507E+02 -0.70886975241E+00  0.15318233726E+03  0.15718251684E+03  0.00000000000E+00 0. -1.
<mgrwt>
<rscale>  0 0.30257082E+02</rscale>
<asrwt>0</asrwt>
<pdfrwt beam="1">  1        2 0.45696905E-01 0.34263417E+02</pdfrwt>
<pdfrwt beam="2">  1        2 0.15162287E+00 0.26719197E+02</pdfrwt>
<totfact> 0.50877753E+02</totfact>
</mgrwt>
</event>
<event>
 7    1  0.3113530E-004  0.1102802E+03  0.7546771E-02  0.1357314E+00
          2   -1    0    0  502    0  0.00000000000E+00  0.00000000000E+00  0.93401481265E+03  0.93401481265E+03  0.00000000000E+00 0. -1.
          2   -1    0    0  503    0 -0.00000000000E+00 -0.00000000000E+00 -0.14874874553E+04  0.14874874553E+04  0.00000000000E+00 0. -1.
         25    2    1    2    0    0  0.12275393936E+03 -0.59510874699E+02 -0.13049613853E+03  0.22641768995E+03  0.12500261724E+03 0.  0.
          4    1    3    3  501    0  0.14402454593E+03 -0.56776363236E+02 -0.86223926082E+02  0.17720836206E+03  0.12700000000E+01 0. -1.
         -4    1    3    3    0  501 -0.21270606576E+02 -0.27345114636E+01 -0.44272212443E+02  0.49209327893E+02  0.12700000000E+01 0. -1.
          2    1    1    2  502    0 -0.10868780839E+03  0.16256435397E+02  0.88224876768E+03  0.88906703879E+03  0.00000000000E+00 0. -1.
          2    1    1    2  503    0 -0.14066130967E+02  0.43254439303E+02 -0.13052252718E+04  0.13060175393E+04  0.00000000000E+00 0. -1.
<mgrwt>
<rscale>  0 0.70823679E+02</rscale>
<asrwt>0</asrwt>
<pdfrwt beam="1">  1        2 0.14369459E+00 0.11028017E+03</pdfrwt>
<pdfrwt beam="2">  1        2 0.22884422E+00 0.45484091E+02</pdfrwt>
<totfact> 0.75331202E+01</totfact>
</mgrwt>
</event>
<event>
 7    1  0.3113530E-004  0.1079767E+03  0.7546771E-02  0.1457945E+00
          3   -1    0    0  503    0 -0.00000000000E+00  0.00000000000E+00  0.19104919873E+03  0.19104919873E+03  0.00000000000E+00 0. -1.
          2   -1    0    0  502    0  0.00000000000E+00 -0.00000000000E+00 -0.13081630243E+03  0.13081630243E+03  0.00000000000E+00 0.  1.
         25    2    1    2    0    0  0.31060756884E+02 -0.10373177198E+03  0.56471559430E+02  0.17478721514E+03  0.12504592122E+03 0.  0.
          4    1    3    3  501    0 -0.18897741443E+02  0.22493229397E+02  0.13786209989E+02  0.32476799200E+02  0.12700000000E+01 0. -1.
         -4    1    3    3    0  501  0.49958498328E+02 -0.12622500137E+03  0.42685349441E+02  0.14231041594E+03  0.12700000000E+01 0. -1.
          2    1    1    2  502    0 -0.50644954027E+02  0.95866327210E+02 -0.25133551860E+02  0.11129671824E+03  0.00000000000E+00 0.  1.
          3    1    1    2  503    0  0.19584197143E+02  0.78654447665E+01  0.28894888722E+02  0.35781567788E+02  0.00000000000E+00 0. -1.
<mgrwt>
<rscale>  0 0.47736891E+02</rscale>
<asrwt>0</asrwt>
<pdfrwt beam="2">  1        2 0.20125585E-01 0.10797675E+03</pdfrwt>
<pdfrwt beam="1">  1        3 0.29392184E-01 0.21104644E+02</pdfrwt>
<totfact> 0.14784661E+03</totfact>
</mgrwt>
</event>
<event>
 7    1  0.3113530E-004  0.6035769E+02  0.7546771E-02  0.1481917E+00
          2   -1    0    0  502    0  0.00000000000E+00  0.00000000000E+00  0.97366362419E+03  0.97366362419E+03  0.00000000000E+00 0. -1.
          2   -1    0    0  503    0 -0.00000000000E+00 -0.00000000000E+00 -0.55023971850E+03  0.55023971850E+03  0.00000000000E+00 0. -1.
         25    2    1    2    0    0 -0.23265084406E+02 -0.19620390175E+02 -0.72714171605E+02  0.14777085299E+03  0.12499060116E+03 0.  0.
          4    1    3    3  501    0 -0.99386612195E+01 -0.72697096592E+02 -0.35043657400E+02  0.81322294998E+02  0.12700000000E+01 0. -1.
         -4    1    3    3    0  501 -0.13326423187E+02  0.53076706417E+02 -0.37670514205E+02  0.66448557994E+02  0.12700000000E+01 0. -1.
          2    1    1    2  502    0 -0.26673242678E+02 -0.17309493066E+02  0.93367142373E+03  0.93421272092E+03  0.00000000000E+00 0. -1.
          2    1    1    2  503    0  0.49938327084E+02  0.36929883242E+02 -0.43753334644E+03  0.44191976878E+03  0.00000000000E+00 0. -1.
<mgrwt>
<rscale>  0 0.43808939E+02</rscale>
<asrwt>0</asrwt>
<pdfrwt beam="1">  1        2 0.14979440E+00 0.31797491E+02</pdfrwt>
<pdfrwt beam="2">  1        2 0.84652264E-01 0.60357692E+02</pdfrwt>
<totfact> 0.27110769E+02</totfact>
</mgrwt>
</event>
<event>
 7    1  0.3113530E-004  0.5944691E+02  0.7546771E-02  0.1458043E+00
          2   -1    0    0  503    0  0.00000000000E+00  0.00000000000E+00  0.13651696764E+04  0.13651696764E+04  0.00000000000E+00 0. -1.
         -1   -1    0    0    0  501 -0.00000000000E+00 -0.00000000000E+00 -0.12144259608E+02  0.12144259608E+02  0.00000000000E+00 0.  1.
         25    2    1    2    0    0  0.25460440353E+02 -0.68104454838E+02  0.65362694883E+03  0.66943372446E+03  0.12500748943E+03 0.  0.
          4    1    3    3  502    0 -0.18837617177E+02  0.23519793380E+02  0.29819951829E+03  0.29972087367E+03  0.12700000000E+01 0.  1.
         -4    1    3    3    0  502  0.44298057530E+02 -0.91624248218E+02  0.35542743054E+03  0.36971285079E+03  0.12700000000E+01 0.  1.
          2    1    1    2  503    0 -0.36444373800E+02  0.11796763627E+02  0.46453162644E+03  0.46610834361E+03  0.00000000000E+00 0. -1.
         -1    1    1    2    0  501  0.10983933447E+02  0.56307691211E+02  0.23486684153E+03  0.24177186795E+03  0.00000000000E+00 0.  1.
<mgrwt>
<rscale>  0 0.47719789E+02</rscale>
<asrwt>0</asrwt>
<pdfrwt beam="1">  1        2 0.21002598E+00 0.38306083E+02</pdfrwt>
<pdfrwt beam="2">  1       -1 0.18683487E-02 0.59446909E+02</pdfrwt>
<totfact> 0.13239169E+04</totfact>
</mgrwt>
</event>
<event>
 7    1  0.3113530E-004  0.6953435E+02  0.7546771E-02  0.1490454E+00
          2   -1    0    0  503    0  0.00000000000E+00  0.00000000000E+00  0.85226349645E+03  0.85226349645E+03  0.00000000000E+00 0. -1.
         -2   -1    0    0    0  501 -0.00000000000E+00 -0.00000000000E+00 -0.96857099015E+02  0.96857099015E+02  0.00000000000E+00 0.  1.
         25    2    1    2    0    0  0.68398720991E+02 -0.59869119052E+02  0.15846137802E+03  0.22136468384E+03  0.12501847254E+03 0.  0.
          4    1    3    3  502    0 -0.34438860978E+02 -0.30813473409E+02  0.62456628617E+02  0.77704238283E+02  0.12700000000E+01 0. -1.
         -4    1    3    3    0  502  0.10283758197E+03 -0.29055645643E+02  0.96004749403E+02  0.14366044555E+03  0.12700000000E+01 0. -1.
          2    1    1    2  503    0 -0.24643522443E+02  0.82861165136E+01  0.64452970794E+03  0.64505387941E+03  0.00000000000E+00 0. -1.
         -2    1    1    2    0  501 -0.43755198547E+02  0.51583002538E+02 -0.47584688525E+02  0.82702032217E+02  0.00000000000E+00 0.  1.
<mgrwt>
<rscale>  0 0.42518743E+02</rscale>
<asrwt>0</asrwt>
<pdfrwt beam="1">  1        2 0.13111746E+00 0.25999287E+02</pdfrwt>
<pdfrwt beam="2">  1       -2 0.14901093E-01 0.69534349E+02</pdfrwt>
<totfact> 0.11720113E+03</totfact>
</mgrwt>
</event>
<event>
 7    1  0.3547496E-004  0.6713402E+02  0.7546771E-02  0.1456907E+00
          1   -1    0    0  503    0  0.00000000000E+00  0.00000000000E+00  0.18277009592E+04  0.18277009592E+04  0.00000000000E+00 0. -1.
         -2   -1    0    0    0  501 -0.00000000000E+00 -0.00000000000E+00 -0.90033701417E+01  0.90033701417E+01  0.00000000000E+00 0.  1.
         25    2    1    2    0    0 -0.52751132698E+02  0.44293013300E+02  0.12568177942E+04  0.12648957142E+04  0.12500258724E+03 0.  0.
          4    1    3    3  502    0  0.24709718163E+02 -0.62255867274E+01  0.69877517695E+03  0.69924079466E+03  0.12700000000E+01 0.  1.
         -4    1    3    3    0  502 -0.77460850861E+02  0.50518600028E+02  0.55804261727E+03  0.56565491950E+03  0.12700000000E+01 0.  1.
          1    1    1    2  503    0  0.68063431196E+02 -0.13710198424E+02  0.42982795631E+03  0.43539943986E+03  0.00000000000E+00 0. -1.
         -2    1    1    2    0  501 -0.15312298498E+02 -0.30582814876E+02  0.13205183850E+03  0.13640917529E+03  0.00000000000E+00 0.  1.
<mgrwt>
<rscale>  0 0.47917804E+02</rscale>
<asrwt>0</asrwt>
<pdfrwt beam="1">  1        1 0.28118447E+00 0.67134017E+02</pdfrwt>
<pdfrwt beam="2">  1       -2 0.13851353E-02 0.34201974E+02</pdfrwt>
<totfact> 0.43566580E+03</totfact>
</mgrwt>
</event>
<event>
 7    1  0.3113530E-004  0.4166810E+02  0.7546771E-02  0.1504920E+00
          1   -1    0    0  503    0  0.00000000000E+00  0.00000000000E+00  0.80160779572E+03  0.80160779572E+03  0.00000000000E+00 0. -1.
         -2   -1    0    0    0  501 -0.00000000000E+00 -0.00000000000E+00 -0.14829034914E+02  0.14829034914E+02  0.00000000000E+00 0.  1.
         25    2    1    2    0    0  0.13344268645E+02 -0.16935348266E+02  0.40569344903E+03  0.42505310655E+03  0.12497237003E+03 0.  0.
          4    1    3    3  502    0  0.33761043422E+02 -0.44528811753E+02  0.37451781924E+03  0.37866585924E+03  0.12700000000E+01 0.  1.
         -4    1    3    3    0  502 -0.20416774777E+02  0.27593463486E+02  0.31175629792E+02  0.46387247303E+02  0.12700000000E+01 0.  1.
          1    1    1    2  503    0 -0.48519750718E+02 -0.52140450172E+00  0.24435610256E+03  0.24912716217E+03  0.00000000000E+00 0. -1.
         -2    1    1    2    0  501  0.35175482073E+02  0.17456752768E+02  0.13672920922E+03  0.14225656192E+03  0.00000000000E+00 0.  1.
<mgrwt>
<rscale>  0 0.40450757E+02</rscale>
<asrwt>0</asrwt>
<pdfrwt beam="1">  1        1 0.12332424E+00 0.41668100E+02</pdfrwt>
<pdfrwt beam="2">  1       -2 0.22813906E-02 0.39268980E+02</pdfrwt>
<totfact> 0.11003206E+04</totfact>
</mgrwt>
</event>
<event>
 7    1  0.3133117E-004  0.3776341E+02  0.7546771E-02  0.1533680E+00
          1   -1    0    0  503    0  0.00000000000E+00  0.00000000000E+00  0.84244773840E+03  0.84244773840E+03  0.00000000000E+00 0. -1.
         -2   -1    0    0    0  501 -0.00000000000E+00 -0.00000000000E+00 -0.12983949783E+02  0.12983949783E+02  0.00000000000E+00 0.  1.
         25    2    1    2    0    0 -0.84713884638E+01  0.16772982564E+02  0.51800952556E+03  0.53320504583E+03  0.12498261864E+03 0.  0.
          4    1    3    3  502    0  0.53162910249E+02  0.12915285547E+02  0.14244816629E+03  0.15259814090E+03  0.12700000000E+01 0. -1.
         -4    1    3    3    0  502 -0.61634298713E+02  0.38576970165E+01  0.37556135927E+03  0.38060690493E+03  0.12700000000E+01 0. -1.
          1    1    1    2  503    0  0.44154032330E+02 -0.14712266908E+02  0.19043947918E+03  0.19604393538E+03  0.00000000000E+00 0. -1.
         -2    1    1    2    0  501 -0.35682643867E+02 -0.20607156557E+01  0.12101478387E+03  0.12618270697E+03  0.00000000000E+00 0.  1.
<mgrwt>
<rscale>  0 0.36738854E+02</rscale>
<asrwt>0</asrwt>
<pdfrwt beam="1">  1        1 0.12960730E+00 0.37763407E+02</pdfrwt>
<pdfrwt beam="2">  1       -2 0.19975314E-02 0.35742099E+02</pdfrwt>
<totfact> 0.12209836E+04</totfact>
</mgrwt>
</event>
<event>
 7    1  0.3113530E-004  0.6240101E+02  0.7546771E-02  0.1399496E+00
          1   -1    0    0  503    0  0.00000000000E+00  0.00000000000E+00  0.15864847567E+03  0.15864847567E+03  0.00000000000E+00 0. -1.
          1   -1    0    0  502    0 -0.00000000000E+00 -0.00000000000E+00 -0.18795670664E+03  0.18795670664E+03  0.00000000000E+00 0. -1.
         25    2    1    2    0    0 -0.30004024216E+02 -0.22099095163E+02 -0.35690141700E+02  0.13523040245E+03  0.12499945622E+03 0.  0.
          4    1    3    3  501    0 -0.76661736287E+02 -0.14473125770E+02 -0.40107032761E+02  0.87730725274E+02  0.12700000000E+01 0. -1.
         -4    1    3    3    0  501  0.46657712071E+02 -0.76259693930E+01  0.44168910611E+01  0.47499677173E+02  0.12700000000E+01 0. -1.
          1    1    1    2  502    0 -0.15426007118E+02  0.64877576257E+02 -0.80419131601E+02  0.10447151920E+03  0.00000000000E+00 0. -1.
          1    1    1    2  503    0  0.45430031334E+02 -0.42778481094E+02  0.86801042333E+02  0.10690326067E+03  0.00000000000E+00 0. -1.
<mgrwt>
<rscale>  0 0.59605132E+02</rscale>
<asrwt>0</asrwt>
<pdfrwt beam="1">  1        1 0.24407458E-01 0.62401011E+02</pdfrwt>
<pdfrwt beam="2">  1        1 0.28916417E-01 0.56934522E+02</pdfrwt>
<totfact> 0.34809826E+03</totfact>
</mgrwt>
</event>
<event>
 7    1  0.3113530E-004  0.1202623E+03  0.7546771E-02  0.1387028E+00
         -2   -1    0    0    0  501 -0.00000000000E+00  0.00000000000E+00  0.54569337881E+02  0.54569337881E+02  0.00000000000E+00 0.  1.
          1   -1    0    0  503    0  0.00000000000E+00 -0.00000000000E+00 -0.55017140501E+03  0.55017140501E+03  0.00000000000E+00 0. -1.
         25    2    1    2    0    0 -0.88532242821E+02  0.88916162557E+02 -0.17181663562E+03  0.24675793769E+03  0.12499792619E+03 0.  0.
          4    1    3    3  502    0 -0.41583686427E+02  0.11486348755E+03 -0.13259993499E+03  0.18029747477E+03  0.12700000000E+01 0. -1.
         -4    1    3    3    0  502 -0.46948556395E+02 -0.25947324996E+02 -0.39216700632E+02  0.66460462912E+02  0.12700000000E+01 0. -1.
          1    1    1    2  503    0  0.59452082104E+02 -0.10373714484E+03 -0.26550258346E+03  0.29118304743E+03  0.00000000000E+00 0. -1.
         -2    1    1    2    0  501  0.29080160717E+02  0.14820982279E+02 -0.58282848040E+02  0.66799757774E+02  0.00000000000E+00 0.  1.
<mgrwt>
<rscale>  0 0.62651944E+02</rscale>
<asrwt>0</asrwt>
<pdfrwt beam="2">  1        1 0.84641753E-01 0.12026233E+03</pdfrwt>
<pdfrwt beam="1">  1       -2 0.83952829E-02 0.32639198E+02</pdfrwt>
<totfact> 0.26502047E+03</totfact>
</mgrwt>
</event>
<event>
 7    1  0.3113530E-004  0.6648624E+02  0.7546771E-02  0.1454303E+00
         -1   -1    0    0    0  501 -0.00000000000E+00  0.00000000000E+00  0.12426341019E+03  0.12426341019E+03  0.00000000000E+00 0.  1.
          2   -1    0    0  503    0  0.00000000000E+00 -0.00000000000E+00 -0.14808307290E+03  0.14808307290E+03  0.00000000000E+00 0. -1.
         25    2    1    2    0    0  0.36626868360E+02  0.61546923377E+02 -0.64870838084E+02  0.15799977641E+03  0.12500460972E+03 0.  0.
          4    1    3    3  502    0 -0.32923268039E+02 -0.41527720864E+01  0.11950863192E+02  0.35293386426E+02  0.12700000000E+01 0.  1.
         -4    1    3    3    0  502  0.69550136400E+02  0.65699695463E+02 -0.76821701276E+02  0.12270638999E+03  0.12700000000E+01 0.  1.
          2    1    1    2  503    0  0.21297675585E+02 -0.28024377401E+02 -0.11663210975E+01  0.35218134802E+02  0.00000000000E+00 0. -1.
         -1    1    1    2    0  501 -0.57924543945E+02 -0.33522545976E+02  0.42217496471E+02  0.79128571883E+02  0.00000000000E+00 0.  1.
<mgrwt>
<rscale>  0 0.48375997E+02</rscale>
<asrwt>0</asrwt>
<pdfrwt beam="2">  1        2 0.22782011E-01 0.35198817E+02</pdfrwt>
<pdfrwt beam="1">  1       -1 0.19117448E-01 0.66486243E+02</pdfrwt>
<totfact> 0.52261925E+03</totfact>
</mgrwt>
</event>
<event>
 7    1  0.3113530E-004  0.9310862E+02  0.7546771E-02  0.1345797E+00
         -1   -1    0    0    0  501 -0.00000000000E+00  0.00000000000E+00  0.20636394991E+04  0.20636394991E+04  0.00000000000E+00 0.  1.
          1   -1    0    0  503    0  0.00000000000E+00 -0.00000000000E+00 -0.69199142432E+03  0.69199142432E+03  0.00000000000E+00 0. -1.
         25    2    1    2    0    0 -0.11730360754E+01 -0.13171536211E+03  0.45397068312E+03  0.48894156484E+03  0.12499664023E+03 0.  0.
          4    1    3    3  502    0 -0.47100715210E+02 -0.96668458525E+01  0.85880908822E+02  0.98433067016E+02  0.12700000000E+01 0. -1.
         -4    1    3    3    0  502  0.45927679135E+02 -0.12204851626E+03  0.36808977430E+03  0.39050849783E+03  0.12700000000E+01 0. -1.
          1    1    1    2  503    0 -0.34766384671E+02  0.48188662654E+02 -0.67189543554E+03  0.67451784632E+03  0.00000000000E+00 0. -1.
         -1    1    1    2    0  501  0.35939420747E+02  0.83526699456E+02  0.15895728272E+04  0.15921715123E+04  0.00000000000E+00 0.  1.
<mgrwt>
<rscale>  0 0.74381464E+02</rscale>
<asrwt>0</asrwt>
<pdfrwt beam="2">  1        1 0.10646022E+00 0.59420945E+02</pdfrwt>
<pdfrwt beam="1">  1       -1 0.31748300E+00 0.93108619E+02</pdfrwt>
<totfact> 0.10675023E+00</totfact>
</mgrwt>
</event>
<event>
 7    1  0.3113530E-004  0.9275552E+02  0.7546771E-02  0.1339892E+00
         -2   -1    0    0    0  501 -0.00000000000E+00  0.00000000000E+00  0.59146060307E+02  0.59146060307E+02  0.00000000000E+00 0.  1.
          2   -1    0    0  503    0  0.00000000000E+00 -0.00000000000E+00 -0.19948703322E+04  0.19948703322E+04  0.00000000000E+00 0. -1.
         25    2    1    2    0    0 -0.42203120875E+02  0.12827111059E+03 -0.40765174107E+03  0.44725874090E+03  0.12500343232E+03 0.  0.
          4    1    3    3  502    0  0.35648566936E+02  0.29285558984E+02 -0.19252314846E+03  0.19797787725E+03  0.12700000000E+01 0.  1.
         -4    1    3    3    0  502 -0.77851687811E+02  0.98985551611E+02 -0.21512859261E+03  0.24928086365E+03  0.12700000000E+01 0.  1.
          2    1    1    2  503    0  0.59806908199E+02 -0.68026680029E+02 -0.15401763044E+04  0.15428374977E+04  0.00000000000E+00 0. -1.
         -2    1    1    2    0  501 -0.17603787325E+02 -0.60244430566E+02  0.12103773621E+02  0.63920153928E+02  0.00000000000E+00 0.  1.
<mgrwt>
<rscale>  0 0.76299943E+02</rscale>
<asrwt>0</asrwt>
<pdfrwt beam="2">  1        2 0.30690305E+00 0.92755515E+02</pdfrwt>
<pdfrwt beam="1">  1       -2 0.90993963E-02 0.62763722E+02</pdfrwt>
<totfact> 0.58588774E+02</totfact>
</mgrwt>
</event>
<event>
 7    1  0.3113530E-004  0.5148593E+02  0.7546771E-02  0.1516821E+00
          2   -1    0    0  502    0  0.00000000000E+00  0.00000000000E+00  0.15799566516E+03  0.15799566516E+03  0.00000000000E+00 0. -1.
          1   -1    0    0  503    0 -0.00000000000E+00 -0.00000000000E+00 -0.13452291126E+04  0.13452291126E+04  0.00000000000E+00 0. -1.
         25    2    1    2    0    0 -0.62777496810E+02  0.42686956430E+02 -0.14086207658E+03  0.20307810087E+03  0.12504159340E+03 0.  0.
          4    1    3    3  501    0 -0.68949231051E+02  0.76553433917E+02 -0.70827925566E+02  0.12503052686E+03  0.12700000000E+01 0. -1.
         -4    1    3    3    0  501  0.61717342415E+01 -0.33866477488E+02 -0.70034151010E+02  0.78047574009E+02  0.12700000000E+01 0. -1.
          2    1    1    2  502    0  0.28994706071E+02 -0.43604866026E+01  0.12462935777E+03  0.12803196336E+03  0.00000000000E+00 0. -1.
          1    1    1    2  503    0  0.33782790738E+02 -0.38326469827E+02 -0.11710007287E+04  0.11721147136E+04  0.00000000000E+00 0. -1.
<mgrwt>
<rscale>  0 0.38853653E+02</rscale>
<asrwt>0</asrwt>
<pdfrwt beam="1">  1        2 0.24307025E-01 0.29320758E+02</pdfrwt>
<pdfrwt beam="2">  1        1 0.20695833E+00 0.51485926E+02</pdfrwt>
<totfact> 0.29532479E+02</totfact>
</mgrwt>
</event>
<event>
 7    1  0.3113530E-004  0.3427276E+02  0.7546771E-02  0.1566290E+00
          1   -1    0    0  503    0 -0.00000000000E+00  0.00000000000E+00  0.43439172478E+03  0.43439172478E+03  0.00000000000E+00 0. -1.
          2   -1    0    0  502    0  0.00000000000E+00 -0.00000000000E+00 -0.65270930539E+02  0.65270930539E+02  0.00000000000E+00 0. -1.
         25    2    1    2    0    0 -0.71401611824E+01  0.56534230503E+01  0.10138316947E+03  0.16120469338E+03  0.12500185207E+03 0.  0.
          4    1    3    3  501    0  0.53319295655E+02  0.72632497511E+01  0.15240731869E+02  0.55942782323E+02  0.12700000000E+01 0. -1.
         -4    1    3    3    0  501 -0.60459456837E+02 -0.16098267008E+01  0.86142437603E+02  0.10526191106E+03  0.12700000000E+01 0. -1.
          2    1    1    2  502    0  0.12968477158E+02  0.29187993854E+02 -0.26870810270E+02  0.41739200155E+02  0.00000000000E+00 0. -1.
          1    1    1    2  503    0 -0.58283159757E+01 -0.34841416905E+02  0.29460843504E+03  0.29671876178E+03  0.00000000000E+00 0. -1.
<mgrwt>
<rscale>  0 0.33085475E+02</rscale>
<asrwt>0</asrwt>
<pdfrwt beam="2">  1        2 0.10041682E-01 0.31939323E+02</pdfrwt>
<pdfrwt beam="1">  1        1 0.66829494E-01 0.34272756E+02</pdfrwt>
<totfact> 0.42132794E+03</totfact>
</mgrwt>
</event>
<event>
 7    1  0.3113530E-004  0.7779520E+02  0.7546771E-02  0.1443680E+00
          2   -1    0    0  503    0  0.00000000000E+00  0.00000000000E+00  0.20617856999E+03  0.20617856999E+03  0.00000000000E+00 0. -1.
         -2   -1    0    0    0  501 -0.00000000000E+00 -0.00000000000E+00 -0.92263154921E+02  0.92263154921E+02  0.00000000000E+00 0.  1.
         25    2    1    2    0    0  0.67839721034E+02 -0.49723964203E+02  0.71801776267E+02  0.16690169567E+03  0.12500392225E+03 0.  0.
          4    1    3    3  502    0  0.91213780651E+02 -0.48123341151E+02  0.90254100996E+02  0.13705190765E+03  0.12700000000E+01 0. -1.
         -4    1    3    3    0  502 -0.23374059616E+02 -0.16006230523E+01 -0.18452324729E+02  0.29849788023E+02  0.12700000000E+01 0. -1.
          2    1    1    2  503    0 -0.39706236331E+02  0.66064084884E+02  0.56897788997E+02  0.95804002567E+02  0.00000000000E+00 0. -1.
         -2    1    1    2    0  501 -0.28133484704E+02 -0.16340120681E+02 -0.14784150193E+02  0.35736026673E+02  0.00000000000E+00 0.  1.
<mgrwt>
<rscale>  0 0.50309307E+02</rscale>
<asrwt>0</asrwt>
<pdfrwt beam="1">  1        2 0.31719780E-01 0.77795196E+02</pdfrwt>
<pdfrwt beam="2">  1       -2 0.14194332E-01 0.32534482E+02</pdfrwt>
<totfact> 0.53495937E+03</totfact>
</mgrwt>
</event>
<event>
 7    1  0.3113530E-004  0.1937129E+03  0.7546771E-02  0.1257694E+00
          1   -1    0    0  503    0  0.00000000000E+00  0.00000000000E+00  0.31092776617E+04  0.31092776617E+04  0.00000000000E+00 0. -1.
          1   -1    0    0  502    0 -0.00000000000E+00 -0.00000000000E+00 -0.13893098118E+04  0.13893098118E+04  0.00000000000E+00 0. -1.
         25    2    1    2    0    0  0.22464163166E+03 -0.54125493453E+02  0.11112704322E+03  0.28525364250E+03  0.12500795619E+03 0.  0.
          4    1    3    3  501    0  0.15191272803E+03  0.21293406375E+02  0.39744486191E+02  0.15846805096E+03  0.12700000000E+01 0.  1.
         -4    1    3    3    0  501  0.72728903623E+02 -0.75418899828E+02  0.71382557029E+02  0.12678559154E+03  0.12700000000E+01 0.  1.
          1    1    1    2  502    0 -0.53904989204E+02 -0.34973988575E+02 -0.12982658319E+04  0.12998550296E+04  0.00000000000E+00 0. -1.
          1    1    1    2  503    0 -0.17073664245E+03  0.89099482028E+02  0.29071066385E+04  0.29134788015E+04  0.00000000000E+00 0. -1.
<mgrwt>
<rscale>  0 0.11156772E+03</rscale>
<asrwt>0</asrwt>
<pdfrwt beam="1">  1        1 0.47835041E+00 0.19371286E+03</pdfrwt>
<pdfrwt beam="2">  1        1 0.21373997E+00 0.64256733E+02</pdfrwt>
<totfact> 0.74657786E-01</totfact>
</mgrwt>
</event>
<event>
 7    1  0.3113530E-004  0.8075803E+02  0.7546771E-02  0.1375443E+00
          1   -1    0    0  503    0  0.00000000000E+00  0.00000000000E+00  0.42033370912E+03  0.42033370912E+03  0.00000000000E+00 0. -1.
         -2   -1    0    0    0  501 -0.00000000000E+00 -0.00000000000E+00 -0.36788960064E+03  0.36788960064E+03  0.00000000000E+00 0.  1.
         25    2    1    2    0    0  0.12069739191E+03  0.62212366584E+01 -0.21351162392E+03  0.27535078093E+03  0.12499709922E+03 0.  0.
          4    1    3    3  502    0  0.99530089443E+02 -0.38900250772E+02 -0.81992550304E+02  0.13469914410E+03  0.12700000000E+01 0.  1.
         -4    1    3    3    0  502  0.21167302466E+02  0.45121487430E+02 -0.13151907361E+03  0.14065163684E+03  0.12700000000E+01 0.  1.
          1    1    1    2  503    0 -0.52397934816E+02 -0.10359659034E+02  0.37790894082E+03  0.38166481847E+03  0.00000000000E+00 0. -1.
         -2    1    1    2    0  501 -0.68299457093E+02  0.41384223756E+01 -0.11195320843E+03  0.13120771035E+03  0.00000000000E+00 0.  1.
<mgrwt>
<rscale>  0 0.65676984E+02</rscale>
<asrwt>0</asrwt>
<pdfrwt beam="1">  1        1 0.64666724E-01 0.53412228E+02</pdfrwt>
<pdfrwt beam="2">  1       -2 0.56598400E-01 0.80758028E+02</pdfrwt>
<totfact> 0.15537946E+02</totfact>
</mgrwt>
</event>
<event>
 7    1  0.3113530E-004  0.6511809E+02  0.7546771E-02  0.1528235E+00
         -1   -1    0    0    0  501 -0.00000000000E+00  0.00000000000E+00  0.26015897867E+02  0.26015897867E+02  0.00000000000E+00 0.  1.
          2   -1    0    0  503    0  0.00000000000E+00 -0.00000000000E+00 -0.89286117839E+03  0.89286117839E+03  0.00000000000E+00 0. -1.
         25    2    1    2    0    0 -0.51296131976E+02 -0.66837190786E+02 -0.69428843078E+03  0.71046522772E+03  0.12500364578E+03 0.  0.
          4    1    3    3  502    0  0.25964620013E+02 -0.61768045049E+02 -0.22281831730E+03  0.23267803571E+03  0.12700000000E+01 0.  1.
         -4    1    3    3    0  502 -0.77260751989E+02 -0.50691457373E+01 -0.47147011348E+03  0.47778719201E+03  0.12700000000E+01 0.  1.
          2    1    1    2  503    0  0.16626470712E+02  0.13607031249E+02 -0.13043031962E+03  0.13218796884E+03  0.00000000000E+00 0. -1.
         -1    1    1    2    0  501  0.34669661264E+02  0.53230159537E+02 -0.42126530117E+02  0.76223879698E+02  0.00000000000E+00 0.  1.
<mgrwt>
<rscale>  0 0.37403749E+02</rscale>
<asrwt>0</asrwt>
<pdfrwt beam="2">  1        2 0.13736324E+00 0.21484665E+02</pdfrwt>
<pdfrwt beam="1">  1       -1 0.40024462E-02 0.65118093E+02</pdfrwt>
<totfact> 0.83419905E+03</totfact>
</mgrwt>
</event>
<event>
 7    1  0.3113530E-004  0.7456003E+02  0.7546771E-02  0.1453093E+00
         -3   -1    0    0    0  501 -0.00000000000E+00  0.00000000000E+00  0.10962154382E+03  0.10962154382E+03  0.00000000000E+00 0.  1.
          1   -1    0    0  503    0  0.00000000000E+00 -0.00000000000E+00 -0.54918909668E+03  0.54918909668E+03  0.00000000000E+00 0. -1.
         25    2    1    2    0    0 -0.33320906388E+02  0.84527070433E+02 -0.10473697449E+03  0.18669895597E+03  0.12502622883E+03 0.  0.
          4    1    3    3  502    0 -0.24217199075E+02  0.92479746575E+02 -0.15761269448E+02  0.96896887320E+02  0.12700000000E+01 0. -1.
         -4    1    3    3    0  502 -0.91037073132E+01 -0.79526761424E+01 -0.88975705046E+02  0.89802068646E+02  0.12700000000E+01 0. -1.
          1    1    1    2  503    0  0.47479796654E+02 -0.56201786979E+02 -0.39624300928E+03  0.40301550138E+03  0.00000000000E+00 0. -1.
         -3    1    1    2    0  501 -0.14158890266E+02 -0.28325283454E+02  0.61412430907E+02  0.69096183152E+02  0.00000000000E+00 0.  1.
<mgrwt>
<rscale>  0 0.48591036E+02</rscale>
<asrwt>0</asrwt>
<pdfrwt beam="2">  1        1 0.84490630E-01 0.74560027E+02</pdfrwt>
<pdfrwt beam="1">  1       -3 0.16864853E-01 0.31666952E+02</pdfrwt>
<totfact> 0.55388289E+02</totfact>
</mgrwt>
</event>
<event>
 7    1  0.3277342E-004  0.6498229E+02  0.7546771E-02  0.1455052E+00
         -1   -1    0    0    0  501 -0.00000000000E+00  0.00000000000E+00  0.16319582793E+02  0.16319582793E+02  0.00000000000E+00 0.  1.
          2   -1    0    0  503    0  0.00000000000E+00 -0.00000000000E+00 -0.11357133081E+04  0.11357133081E+04  0.00000000000E+00 0. -1.
         25    2    1    2    0    0  0.13324041646E+02 -0.75751314331E+02 -0.44865934980E+03  0.47205736488E+03  0.12500860715E+03 0.  0.
          4    1    3    3  502    0 -0.31560924144E+02 -0.20997293069E+02 -0.34159595606E+03  0.34369519686E+03  0.12700000000E+01 0.  1.
         -4    1    3    3    0  502  0.44884965790E+02 -0.54754021262E+02 -0.10706339375E+03  0.12836216802E+03  0.12700000000E+01 0.  1.
          2    1    1    2  503    0  0.23763369682E+02  0.26798082030E+02 -0.43149032697E+03  0.43297429163E+03  0.00000000000E+00 0. -1.
         -1    1    1    2    0  501 -0.37087411328E+02  0.48953232301E+02 -0.23924404854E+03  0.24700123440E+03  0.00000000000E+00 0.  1.
<mgrwt>
<rscale>  0 0.48243655E+02</rscale>
<asrwt>0</asrwt>
<pdfrwt beam="2">  1        2 0.17472509E+00 0.35816685E+02</pdfrwt>
<pdfrwt beam="1">  1       -1 0.25107056E-02 0.64982290E+02</pdfrwt>
<totfact> 0.11622321E+04</totfact>
</mgrwt>
</event>
<event>
 7    1  0.3113530E-004  0.1930877E+03  0.7546771E-02  0.1274871E+00
          1   -1    0    0  503    0  0.00000000000E+00  0.00000000000E+00  0.12263786604E+04  0.12263786604E+04  0.00000000000E+00 0. -1.
          1   -1    0    0  502    0 -0.00000000000E+00 -0.00000000000E+00 -0.55072100940E+02  0.55072100940E+02  0.00000000000E+00 0. -1.
         25    2    1    2    0    0 -0.14255046012E+03  0.10633097961E+03  0.35324905403E+03  0.41477148488E+03  0.12499431822E+03 0.  0.
          4    1    3    3  501    0 -0.39346514183E+02  0.10714754784E+03  0.18394615019E+03  0.21648682236E+03  0.12700000000E+01 0. -1.
         -4    1    3    3    0  501 -0.10320394594E+03 -0.81656822539E+00  0.16930290384E+03  0.19828466252E+03  0.12700000000E+01 0. -1.
          1    1    1    2  502    0  0.14507432626E+03 -0.16081714309E+03  0.51399135134E+03  0.55775964618E+03  0.00000000000E+00 0. -1.
          1    1    1    2  503    0 -0.25238661365E+01  0.54486163485E+02  0.30406615409E+03  0.30891963028E+03  0.00000000000E+00 0. -1.
<mgrwt>
<rscale>  0 0.10262499E+03</rscale>
<asrwt>0</asrwt>
<pdfrwt beam="1">  1        1 0.18867362E+00 0.54544586E+02</pdfrwt>
<pdfrwt beam="2">  1        1 0.84726319E-02 0.19308770E+03</pdfrwt>
<totfact> 0.11674253E+03</totfact>
</mgrwt>
</event>
<event>
 7    1  0.3113530E-004  0.5644784E+02  0.7546771E-02  0.1497799E+00
          2   -1    0    0  503    0  0.00000000000E+00  0.00000000000E+00  0.98742096726E+03  0.98742096726E+03  0.00000000000E+00 0. -1.
         -1   -1    0    0    0  501 -0.00000000000E+00 -0.00000000000E+00 -0.17664106269E+02  0.17664106269E+02  0.00000000000E+00 0.  1.
         25    2    1    2    0    0  0.28099734364E+02 -0.77026405814E+02  0.53142123373E+03  0.55204937568E+03  0.12500929271E+03 0.  0.
          4    1    3    3  502    0  0.42858791610E+01 -0.10479137196E+03  0.45987869613E+03  0.47168806266E+03  0.12700000000E+01 0. -1.
         -4    1    3    3    0  502  0.23813855203E+02  0.27764966146E+02  0.71542537599E+02  0.80361313024E+02  0.12700000000E+01 0. -1.
          2    1    1    2  503    0 -0.12894186387E+02  0.27572022572E+02  0.34482477511E+03  0.34616557021E+03  0.00000000000E+00 0. -1.
         -1    1    1    2    0  501 -0.15205547977E+02  0.49454383242E+02  0.93510852158E+02  0.10687012764E+03  0.00000000000E+00 0.  1.
<mgrwt>
<rscale>  0 0.41450738E+02</rscale>
<asrwt>0</asrwt>
<pdfrwt beam="1">  1        2 0.15191088E+00 0.30438076E+02</pdfrwt>
<pdfrwt beam="2">  1       -1 0.27175556E-02 0.56447842E+02</pdfrwt>
<totfact> 0.12372676E+04</totfact>
</mgrwt>
</event>
<event>
 7    1  0.4836223E-004  0.7097675E+02  0.7546771E-02  0.1413022E+00
          2   -1    0    0  503    0  0.00000000000E+00  0.00000000000E+00  0.30986870366E+03  0.30986870366E+03  0.00000000000E+00 0. -1.
         -1   -1    0    0    0  501 -0.00000000000E+00 -0.00000000000E+00 -0.65221563574E+02  0.65221563574E+02  0.00000000000E+00 0.  1.
         25    2    1    2    0    0  0.65541368080E+02  0.50681187516E+02  0.69808330504E+02  0.16541739627E+03  0.12500183313E+03 0.  0.
          4    1    3    3  502    0  0.79764920411E+02 -0.11841961162E+02  0.60041298346E+02  0.10054474118E+03  0.12700000000E+01 0. -1.
         -4    1    3    3    0  502 -0.14223552332E+02  0.62523148678E+02  0.97670321579E+01  0.64872655092E+02  0.12700000000E+01 0. -1.
          2    1    1    2  503    0 -0.23469340873E+02 -0.66692186969E+02  0.10511479315E+03  0.12667982280E+03  0.00000000000E+00 0. -1.
         -1    1    1    2    0  501 -0.42072027206E+02  0.16010999453E+02  0.69724016425E+02  0.82993048162E+02  0.00000000000E+00 0.  1.
<mgrwt>
<rscale>  0 0.56524895E+02</rscale>
<asrwt>0</asrwt>
<pdfrwt beam="1">  1        2 0.47672107E-01 0.70976753E+02</pdfrwt>
<pdfrwt beam="2">  1       -1 0.10034087E-01 0.45015637E+02</pdfrwt>
<totfact> 0.64093433E+03</totfact>
</mgrwt>
</event>
<event>
 7    1  0.3113530E-004  0.7151265E+02  0.7546771E-02  0.1495331E+00
          1   -1    0    0  503    0  0.00000000000E+00  0.00000000000E+00  0.36727756801E+03  0.36727756801E+03  0.00000000000E+00 0. -1.
         -2   -1    0    0    0  501 -0.00000000000E+00 -0.00000000000E+00 -0.47296961043E+02  0.47296961043E+02  0.00000000000E+00 0.  1.
         25    2    1    2    0    0 -0.23132788327E+02 -0.69052315308E+02  0.12837336617E+03  0.19341287993E+03  0.12500189132E+03 0.  0.
          4    1    3    3  502    0 -0.35029017484E+02  0.12755562402E+02  0.98796836512E+02  0.10560380790E+03  0.12700000000E+01 0.  1.
         -4    1    3    3    0  502  0.11896229157E+02 -0.81807877710E+02  0.29576529662E+02  0.87809072028E+02  0.12700000000E+01 0.  1.
          1    1    1    2  503    0 -0.11334122834E+01  0.71952826827E+02  0.18050186694E+03  0.19431782697E+03  0.00000000000E+00 0. -1.
         -2    1    1    2    0  501  0.24266200610E+02 -0.29005115190E+01  0.11105373853E+02  0.26843822149E+02  0.00000000000E+00 0.  1.
<mgrwt>
<rscale>  0 0.41805418E+02</rscale>
<asrwt>0</asrwt>
<pdfrwt beam="1">  1        1 0.56504239E-01 0.71512653E+02</pdfrwt>
<pdfrwt beam="2">  1       -2 0.72764558E-02 0.24438933E+02</pdfrwt>
<totfact> 0.53324589E+03</totfact>
</mgrwt>
</event>
<event>
 7    1  0.3113530E-004  0.5089189E+02  0.7546771E-02  0.1533778E+00
          1   -1    0    0  503    0  0.00000000000E+00  0.00000000000E+00  0.94045125193E+02  0.94045125193E+02  0.00000000000E+00 0. -1.
         -2   -1    0    0    0  501 -0.00000000000E+00 -0.00000000000E+00 -0.18838134921E+03  0.18838134921E+03  0.00000000000E+00 0.  1.
         25    2    1    2    0    0  0.41688663766E+01  0.26273957407E+02 -0.13852156334E+03  0.18848612112E+03  0.12502437386E+03 0.  0.
          4    1    3    3  502    0  0.41540379020E+02 -0.10949095694E+02 -0.12754955381E+03  0.13459564392E+03  0.12700000000E+01 0. -1.
         -4    1    3    3    0  502 -0.37371512644E+02  0.37223053101E+02 -0.10972009535E+02  0.53890477198E+02  0.12700000000E+01 0. -1.
          1    1    1    2  503    0 -0.26496524485E+01 -0.52735030650E+02  0.41770517234E+02  0.67325925361E+02  0.00000000000E+00 0. -1.
         -2    1    1    2    0  501 -0.15192139282E+01  0.26461073242E+02  0.24148220896E+01  0.26614427926E+02  0.00000000000E+00 0.  1.
<mgrwt>
<rscale>  0 0.36726989E+02</rscale>
<asrwt>0</asrwt>
<pdfrwt beam="1">  1        1 0.14468481E-01 0.50891893E+02</pdfrwt>
<pdfrwt beam="2">  1       -2 0.28981746E-01 0.26504649E+02</pdfrwt>
<totfact> 0.32424071E+03</totfact>
</mgrwt>
</event>
<event>
 7    1  0.3113530E-004  0.5222669E+02  0.7546771E-02  0.1438063E+00
          2   -1    0    0  502    0  0.00000000000E+00  0.00000000000E+00  0.29365962813E+04  0.29365962813E+04  0.00000000000E+00 0. -1.
          1   -1    0    0  503    0 -0.00000000000E+00 -0.00000000000E+00 -0.84415605325E+02  0.84415605325E+02  0.00000000000E+00 0. -1.
         25    2    1    2    0    0 -0.63550888624E+02  0.52096734499E+02  0.58141018431E+03  0.60034654352E+03  0.12500153883E+03 0.  0.
          4    1    3    3  501    0 -0.85331684581E+02  0.77741215151E+02  0.46925766271E+03  0.48324896258E+03  0.12700000000E+01 0.  1.
         -4    1    3    3    0  501  0.21780795957E+02 -0.25644480653E+02  0.11215252160E+03  0.11709758094E+03  0.12700000000E+01 0.  1.
          2    1    1    2  502    0  0.13052993786E+02 -0.50104057862E+02  0.23368791065E+04  0.23374526211E+04  0.00000000000E+00 0. -1.
          1    1    1    2  503    0  0.50497894838E+02 -0.19926766369E+01 -0.66108614877E+02  0.83212722010E+02  0.00000000000E+00 0. -1.
<mgrwt>
<rscale>  0 0.51374997E+02</rscale>
<asrwt>0</asrwt>
<pdfrwt beam="1">  1        2 0.45178396E+00 0.52226688E+02</pdfrwt>
<pdfrwt beam="2">  1        1 0.12987018E-01 0.50537196E+02</pdfrwt>
<totfact> 0.16534064E+02</totfact>
</mgrwt>
</event>
<event>
 7    1  0.3113530E-004  0.1306800E+03  0.7546771E-02  0.1255903E+00
         -2   -1    0    0    0  501 -0.00000000000E+00  0.00000000000E+00  0.15076287968E+04  0.15076287968E+04  0.00000000000E+00 0. -1.
          2   -1    0    0  503    0  0.00000000000E+00 -0.00000000000E+00 -0.52346818672E+03  0.52346818672E+03  0.00000000000E+00 0. -1.
         25    2    1    2    0    0  0.11406319309E+03 -0.68806457359E+02 -0.71072378993E+02  0.19601497131E+03  0.12500338127E+03 0.  0.
          4    1    3    3  502    0  0.10277999355E+02 -0.36924183875E+02  0.29213478565E+02  0.48208638805E+02  0.12700000000E+01 0. -1.
         -4    1    3    3    0  502  0.10378519374E+03 -0.31882273485E+02 -0.10028585756E+03  0.14780633250E+03  0.12700000000E+01 0. -1.
          2    1    1    2  503    0 -0.13328455855E+03 -0.26219664477E+02 -0.37640440688E+03  0.40016561806E+03  0.00000000000E+00 0. -1.
         -2    1    1    2    0  501  0.19221365455E+02  0.95026121836E+02  0.14316373959E+04  0.14349163941E+04  0.00000000000E+00 0. -1.
<mgrwt>
<rscale>  0 0.11255891E+03</rscale>
<asrwt>0</asrwt>
<pdfrwt beam="2">  1        2 0.80533568E-01 0.13067999E+03</pdfrwt>
<pdfrwt beam="1">  1       -2 0.23194289E+00 0.96950630E+02</pdfrwt>
<totfact> 0.60436050E+00</totfact>
</mgrwt>
</event>
<event>
 7    1  0.3113530E-004  0.6503233E+02  0.7546771E-02  0.1418010E+00
          1   -1    0    0  503    0 -0.00000000000E+00  0.00000000000E+00  0.70005113373E+03  0.70005113373E+03  0.00000000000E+00 0. -1.
          2   -1    0    0  502    0  0.00000000000E+00 -0.00000000000E+00 -0.97270219262E+03  0.97270219262E+03  0.00000000000E+00 0. -1.
         25    2    1    2    0    0  0.86586463706E+02  0.56082577705E+02  0.12135784424E+02  0.16252418348E+03  0.12499744690E+03 0.  0.
          4    1    3    3  501    0 -0.31148772426E+02  0.10541497799E+02  0.15188677418E+02  0.36244696456E+02  0.12700000000E+01 0. -1.
         -4    1    3    3    0  501  0.11773523613E+03  0.45541079906E+02 -0.30528929936E+01  0.12627948702E+03  0.12700000000E+01 0. -1.
          2    1    1    2  502    0 -0.46954464919E+02 -0.54508965853E+01 -0.89519585695E+03  0.89644300228E+03  0.00000000000E+00 0. -1.
          1    1    1    2  503    0 -0.39631998787E+02 -0.50631681120E+02  0.61040901363E+03  0.61378614059E+03  0.00000000000E+00 0. -1.
<mgrwt>
<rscale>  0 0.55444256E+02</rscale>
<asrwt>0</asrwt>
<pdfrwt beam="2">  1        2 0.14964649E+00 0.47269801E+02</pdfrwt>
<pdfrwt beam="1">  1        1 0.10770017E+00 0.65032334E+02</pdfrwt>
<totfact> 0.12205570E+02</totfact>
</mgrwt>
</event>
<event>
 7    1  0.3113530E-004  0.1541011E+03  0.7546771E-02  0.1393075E+00
         -3   -1    0    0    0  501 -0.00000000000E+00  0.00000000000E+00  0.33089963778E+03  0.33089963778E+03  0.00000000000E+00 0.  1.
          2   -1    0    0  503    0  0.00000000000E+00 -0.00000000000E+00 -0.15150094360E+04  0.15150094360E+04  0.00000000000E+00 0. -1.
         25    2    1    2    0    0  0.14176731871E+03  0.10290245860E+03  0.11680287665E+03  0.24485555997E+03  0.12499777844E+03 0.  0.
          4    1    3    3  502    0  0.50393637882E+01  0.75536210416E+02  0.38844491026E+02  0.85097718268E+02  0.12700000000E+01 0.  1.
         -4    1    3    3    0  502  0.13672795492E+03  0.27366248188E+02  0.77958385623E+02  0.15975784171E+03  0.12700000000E+01 0.  1.
          2    1    1    2  503    0 -0.13018677818E+03 -0.81580224756E+02 -0.14459052581E+04  0.14540446849E+04  0.00000000000E+00 0. -1.
         -3    1    1    2    0  501 -0.11580540535E+02 -0.21322233848E+02  0.14499258325E+03  0.14700882889E+03  0.00000000000E+00 0.  1.
<mgrwt>
<rscale>  0 0.61148386E+02</rscale>
<asrwt>0</asrwt>
<pdfrwt beam="2">  1        2 0.23307838E+00 0.15410112E+03</pdfrwt>
<pdfrwt beam="1">  1       -3 0.50907635E-01 0.24264101E+02</pdfrwt>
<totfact> 0.29220712E+01</totfact>
</mgrwt>
</event>
<event>
 7    1  0.3113530E-004  0.4755960E+02  0.7546771E-02  0.1541410E+00
          2   -1    0    0  502    0  0.00000000000E+00  0.00000000000E+00  0.80788739470E+03  0.80788739470E+03  0.00000000000E+00 0. -1.
          2   -1    0    0  503    0 -0.00000000000E+00 -0.00000000000E+00 -0.86374170453E+02  0.86374170453E+02  0.00000000000E+00 0. -1.
         25    2    1    2    0    0  0.86158783823E+01 -0.70407263140E+02 -0.19794311455E+01  0.14379411706E+03  0.12506563832E+03 0.  0.
          4    1    3    3  501    0  0.59973218076E+02 -0.66243271990E+02 -0.15038122035E+02  0.90624036462E+02  0.12700000000E+01 0. -1.
         -4    1    3    3    0  501 -0.51357339694E+02 -0.41639911504E+01  0.13058690890E+02  0.53170080595E+02  0.12700000000E+01 0. -1.
          2    1    1    2  502    0  0.49323560178E+01  0.47072290093E+02  0.72188692095E+03  0.72343683572E+03  0.00000000000E+00 0. -1.
          2    1    1    2  503    0 -0.13548234400E+02  0.23334973047E+02  0.16057344389E+01  0.27030612378E+02  0.00000000000E+00 0. -1.
<mgrwt>
<rscale>  0 0.35823103E+02</rscale>
<asrwt>0</asrwt>
<pdfrwt beam="1">  1        2 0.12429036E+00 0.47559596E+02</pdfrwt>
<pdfrwt beam="2">  1        2 0.13288334E-01 0.26982876E+02</pdfrwt>
<totfact> 0.22885377E+03</totfact>
</mgrwt>
</event>
<event>
 7    1  0.3113530E-004  0.4384230E+02  0.7546771E-02  0.1511997E+00
          1   -1    0    0  503    0  0.00000000000E+00  0.00000000000E+00  0.11584780009E+04  0.11584780009E+04  0.00000000000E+00 0. -1.
         -2   -1    0    0    0  501 -0.00000000000E+00 -0.00000000000E+00 -0.56964968439E+02  0.56964968439E+02  0.00000000000E+00 0.  1.
         25    2    1    2    0    0 -0.32828452695E+01  0.21687041703E+02  0.11489327379E+03  0.17119084803E+03  0.12499894894E+03 0.  0.
          4    1    3    3  502    0 -0.56993758574E+02  0.34025582565E+02  0.37736999337E+02  0.76365717467E+02  0.12700000000E+01 0.  1.
         -4    1    3    3    0  502  0.53710913305E+02 -0.12338540862E+02  0.77156274452E+02  0.94825130561E+02  0.12700000000E+01 0.  1.
          1    1    1    2  503    0 -0.34875884097E+02  0.69933758228E+01  0.99512887885E+03  0.99576438986E+03  0.00000000000E+00 0. -1.
         -2    1    1    2    0  501  0.38158729366E+02 -0.28680417526E+02 -0.85091201643E+01  0.48487731461E+02  0.00000000000E+00 0.  1.
<mgrwt>
<rscale>  0 0.39490207E+02</rscale>
<asrwt>0</asrwt>
<pdfrwt beam="1">  1        1 0.17822737E+00 0.35570136E+02</pdfrwt>
<pdfrwt beam="2">  1       -2 0.87638422E-02 0.43842297E+02</pdfrwt>
<totfact> 0.90301908E+02</totfact>
</mgrwt>
</event>
<event>
 7    1  0.3113530E-004  0.8507057E+02  0.7546771E-02  0.1434944E+00
          2   -1    0    0  503    0  0.00000000000E+00  0.00000000000E+00  0.14327896691E+04  0.14327896691E+04  0.00000000000E+00 0. -1.
         -2   -1    0    0    0  501 -0.00000000000E+00 -0.00000000000E+00 -0.53175973803E+03  0.53175973803E+03  0.00000000000E+00 0.  1.
         25    2    1    2    0    0 -0.59606396944E+02 -0.23298056520E+01 -0.71689090965E+02  0.15593533159E+03  0.12497260230E+03 0.  0.
          4    1    3    3  502    0  0.22449077387E+02 -0.15040391006E+02  0.18932442048E+02  0.33018550831E+02  0.12700000000E+01 0.  1.
         -4    1    3    3    0  502 -0.82055474331E+02  0.12710585354E+02 -0.90621533012E+02  0.12291678076E+03  0.12700000000E+01 0.  1.
          2    1    1    2  503    0 -0.27264817226E+02  0.16291387447E+02  0.13858518924E+04  0.13862158011E+04  0.00000000000E+00 0. -1.
         -2    1    1    2    0  501  0.86871214171E+02 -0.13961581795E+02 -0.41313287039E+03  0.42239827440E+03  0.00000000000E+00 0.  1.
<mgrwt>
<rscale>  0 0.51980296E+02</rscale>
<asrwt>0</asrwt>
<pdfrwt beam="1">  1        2 0.22042918E+00 0.31761290E+02</pdfrwt>
<pdfrwt beam="2">  1       -2 0.81809191E-01 0.85070574E+02</pdfrwt>
<totfact> 0.24773574E+01</totfact>
</mgrwt>
</event>
<event>
 7    1  0.3113530E-004  0.1167641E+03  0.7546771E-02  0.1281358E+00
          1   -1    0    0  503    0 -0.00000000000E+00  0.00000000000E+00  0.81000558768E+03  0.81000558768E+03  0.00000000000E+00 0. -1.
          2   -1    0    0  502    0  0.00000000000E+00 -0.00000000000E+00 -0.58207245991E+03  0.58207245991E+03  0.00000000000E+00 0.  1.
         25    2    1    2    0    0  0.56094410306E+02 -0.18005231721E+03  0.10923044478E+03  0.25123944916E+03  0.12499820376E+03 0.  0.
          4    1    3    3  501    0 -0.38605128768E+02 -0.51642258986E+02  0.47764264972E+02  0.80251584338E+02  0.12700000000E+01 0.  1.
         -4    1    3    3    0  501  0.94699539074E+02 -0.12841005823E+03  0.61466179812E+02  0.17098786482E+03  0.12700000000E+01 0.  1.
          2    1    1    2  502    0 -0.50467476240E+02  0.68125469186E+02 -0.50250300232E+03  0.50960505595E+03  0.00000000000E+00 0.  1.
          1    1    1    2  503    0 -0.56269340661E+01  0.11192684803E+03  0.62120568531E+03  0.63123354249E+03  0.00000000000E+00 0. -1.
<mgrwt>
<rscale>  0 0.99496414E+02</rscale>
<asrwt>0</asrwt>
<pdfrwt beam="2">  1        2 0.89549608E-01 0.84782343E+02</pdfrwt>
<pdfrwt beam="1">  1        1 0.12461625E+00 0.11676413E+03</pdfrwt>
<totfact> 0.17303138E+02</totfact>
</mgrwt>
</event>
<event>
 7    1  0.3113530E-004  0.3016901E+02  0.7546771E-02  0.1611760E+00
         -2   -1    0    0    0  501 -0.00000000000E+00  0.00000000000E+00  0.13473961514E+02  0.13473961514E+02  0.00000000000E+00 0.  1.
          1   -1    0    0  503    0  0.00000000000E+00 -0.00000000000E+00 -0.83587319863E+03  0.83587319863E+03  0.00000000000E+00 0. -1.
         25    2    1    2    0    0  0.76367974727E+01  0.82570341718E+01 -0.38092422951E+03  0.40106780671E+03  0.12500247062E+03 0.  0.
          4    1    3    3  502    0 -0.55832305667E+02  0.21371290546E+01 -0.23940676172E+03  0.24584349521E+03  0.12700000000E+01 0.  1.
         -4    1    3    3    0  502  0.63469103140E+02  0.61199051171E+01 -0.14151746778E+03  0.15522431150E+03  0.12700000000E+01 0.  1.
          1    1    1    2  503    0 -0.31233398867E+02  0.58472826093E+01 -0.37500522437E+03  0.37634908559E+03  0.00000000000E+00 0. -1.
         -2    1    1    2    0  501  0.23596601394E+02 -0.14104316781E+02 -0.66469783235E+02  0.71930267847E+02  0.00000000000E+00 0.  1.
<mgrwt>
<rscale>  0 0.28798668E+02</rscale>
<asrwt>0</asrwt>
<pdfrwt beam="2">  1        1 0.12859586E+00 0.30169013E+02</pdfrwt>
<pdfrwt beam="1">  1       -2 0.20729175E-02 0.27490568E+02</pdfrwt>
<totfact> 0.11339571E+04</totfact>
</mgrwt>
</event>
<event>
 7    1  0.3113530E-004  0.4202500E+02  0.7546771E-02  0.1525250E+00
          1   -1    0    0  503    0  0.00000000000E+00  0.00000000000E+00  0.46364649616E+02  0.46364649616E+02  0.00000000000E+00 0. -1.
         -2   -1    0    0    0  501 -0.00000000000E+00 -0.00000000000E+00 -0.38106561310E+03  0.38106561310E+03  0.00000000000E+00 0.  1.
         25    2    1    2    0    0  0.21199251492E+02  0.46931481251E+02 -0.86193662302E+02  0.16033613720E+03  0.12500542899E+03 0.  0.
          4    1    3    3  502    0 -0.77614619845E+01  0.86032905598E+02 -0.51723488589E+02  0.10069177379E+03  0.12700000000E+01 0.  1.
         -4    1    3    3    0  502  0.28960713476E+02 -0.39101424346E+02 -0.34470173713E+02  0.59644363412E+02  0.12700000000E+01 0.  1.
          1    1    1    2  503    0 -0.37784295506E+02 -0.17301677790E+02 -0.46964643367E+02  0.62711073726E+02  0.00000000000E+00 0. -1.
         -2    1    1    2    0  501  0.16585044015E+02 -0.29629803461E+02 -0.20154265781E+03  0.20438305178E+03  0.00000000000E+00 0.  1.
<mgrwt>
<rscale>  0 0.37775493E+02</rscale>
<asrwt>0</asrwt>
<pdfrwt beam="1">  1        1 0.71330231E-02 0.42024999E+02</pdfrwt>
<pdfrwt beam="2">  1       -2 0.58625478E-01 0.33955691E+02</pdfrwt>
<totfact> 0.21679516E+03</totfact>
</mgrwt>
</event>
<event>
 7    1  0.3113530E-004  0.8796849E+02  0.7546771E-02  0.1321468E+00
         -3   -1    0    0    0  501 -0.00000000000E+00  0.00000000000E+00  0.17052665464E+03  0.17052665464E+03  0.00000000000E+00 0.  1.
          1   -1    0    0  503    0  0.00000000000E+00 -0.00000000000E+00 -0.11855965257E+04  0.11855965257E+04  0.00000000000E+00 0. -1.
         25    2    1    2    0    0  0.38458939539E+02 -0.58915931978E+02  0.70243153698E+02  0.15971752774E+03  0.12500164381E+03 0.  0.
          4    1    3    3  502    0  0.50970945767E+02 -0.28200279154E+02  0.99610415735E+02  0.11539991716E+03  0.12700000000E+01 0. -1.
         -4    1    3    3    0  502 -0.12512006228E+02 -0.30715652824E+02 -0.29367262037E+02  0.44317610583E+02  0.12700000000E+01 0. -1.
          1    1    1    2  503    0  0.77526588903E+02  0.66387834595E+01 -0.10646817038E+04  0.10675212297E+04  0.00000000000E+00 0. -1.
         -3    1    1    2    0  501 -0.11598552844E+03  0.52277148518E+02 -0.20631320955E+02  0.12888442291E+03  0.00000000000E+00 0.  1.
<mgrwt>
<rscale>  0 0.82733643E+02</rscale>
<asrwt>0</asrwt>
<pdfrwt beam="2">  1        1 0.18239946E+00 0.77810317E+02</pdfrwt>
<pdfrwt beam="1">  1       -3 0.26234871E-01 0.87968486E+02</pdfrwt>
<totfact> 0.90828142E+01</totfact>
</mgrwt>
</event>
<event>
 7    1  0.3113530E-004  0.9162496E+02  0.7546771E-02  0.1481556E+00
          2   -1    0    0  502    0  0.00000000000E+00  0.00000000000E+00  0.11734485358E+04  0.11734485358E+04  0.00000000000E+00 0.  1.
          1   -1    0    0  503    0 -0.00000000000E+00 -0.00000000000E+00 -0.12115304834E+03  0.12115304834E+03  0.00000000000E+00 0. -1.
         25    2    1    2    0    0 -0.50396943228E+02 -0.50170265581E+02 -0.41948354831E+02  0.14980263387E+03  0.12499702880E+03 0.  0.
          4    1    3    3  501    0 -0.90075443118E+02 -0.44097398786E+02 -0.14940007322E+02  0.10140504303E+03  0.12700000000E+01 0.  1.
         -4    1    3    3    0  501  0.39678499891E+02 -0.60728667944E+01 -0.27008347509E+02  0.48397590847E+02  0.12700000000E+01 0.  1.
          2    1    1    2  502    0  0.66677061780E+02  0.63435027173E+02  0.11129060997E+04  0.11167048938E+04  0.00000000000E+00 0.  1.
          1    1    1    2  503    0 -0.16280118552E+02 -0.13264761593E+02 -0.18662257331E+02  0.28094056469E+02  0.00000000000E+00 0. -1.
<mgrwt>
<rscale>  0 0.43864743E+02</rscale>
<asrwt>0</asrwt>
<pdfrwt beam="1">  1        2 0.18053054E+00 0.91624956E+02</pdfrwt>
<pdfrwt beam="2">  1        1 0.18638931E-01 0.20999909E+02</pdfrwt>
<totfact> 0.75400839E+02</totfact>
</mgrwt>
</event>
<event>
 7    1  0.3113530E-004  0.6493326E+02  0.7546771E-02  0.1471354E+00
         -2   -1    0    0    0  501 -0.00000000000E+00  0.00000000000E+00  0.12586606927E+04  0.12586606927E+04  0.00000000000E+00 0.  1.
          2   -1    0    0  503    0  0.00000000000E+00 -0.00000000000E+00 -0.12988322756E+02  0.12988322756E+02  0.00000000000E+00 0. -1.
         25    2    1    2    0    0 -0.61535394492E+02 -0.12207551346E+02  0.56209970221E+03  0.57923818319E+03  0.12500067424E+03 0.  0.
          4    1    3    3  502    0 -0.87986175427E+02 -0.18682566116E+02  0.52786513614E+03  0.53547532174E+03  0.12700000000E+01 0.  1.
         -4    1    3    3    0  502  0.26450780935E+02  0.64750147700E+01  0.34234566067E+02  0.43762861448E+02  0.12700000000E+01 0.  1.
          2    1    1    2  503    0  0.66036837695E+02 -0.19330546303E+02  0.31313354403E+03  0.32060435173E+03  0.00000000000E+00 0. -1.
         -2    1    1    2    0  501 -0.45014432029E+01  0.31538097648E+02  0.37043912375E+03  0.37180648057E+03  0.00000000000E+00 0.  1.
<mgrwt>
<rscale>  0 0.45482149E+02</rscale>
<asrwt>0</asrwt>
<pdfrwt beam="2">  1        2 0.19982045E-02 0.64933260E+02</pdfrwt>
<pdfrwt beam="1">  1       -2 0.19364001E+00 0.31857724E+02</pdfrwt>
<totfact> 0.84142936E+02</totfact>
</mgrwt>
</event>
<event>
 7    1  0.3113530E-004  0.8183315E+02  0.7546771E-02  0.1432302E+00
         -2   -1    0    0    0  501 -0.00000000000E+00  0.00000000000E+00  0.13388638212E+02  0.13388638212E+02  0.00000000000E+00 0.  1.
          1   -1    0    0  503    0  0.00000000000E+00 -0.00000000000E+00 -0.34202868037E+04  0.34202868037E+04  0.00000000000E+00 0. -1.
         25    2    1    2    0    0  0.43247290927E+02  0.76937275520E+02 -0.31110021162E+04  0.31147627239E+04  0.12499194836E+03 0.  0.
          4    1    3    3  502    0  0.55860513454E+02  0.10274769884E+03 -0.20210315824E+04  0.20244129412E+04  0.12700000000E+01 0. -1.
         -4    1    3    3    0  502 -0.12613222527E+02 -0.25810423316E+02 -0.10899705338E+04  0.10903497827E+04  0.12700000000E+01 0. -1.
          1    1    1    2  503    0 -0.33407295223E+02  0.42947311698E+01 -0.12466652819E+03  0.12913649887E+03  0.00000000000E+00 0. -1.
         -2    1    1    2    0  501 -0.98399957040E+01 -0.81232006689E+02 -0.17122952111E+03  0.18977621907E+03  0.00000000000E+00 0.  1.
<mgrwt>
<rscale>  0 0.52500689E+02</rscale>
<asrwt>0</asrwt>
<pdfrwt beam="2">  1        1 0.52619884E+00 0.33682222E+02</pdfrwt>
<pdfrwt beam="1">  1       -2 0.20597871E-02 0.81833150E+02</pdfrwt>
<totfact> 0.30490080E+02</totfact>
</mgrwt>
</event>
<event>
 7    1  0.3113530E-004  0.2327834E+03  0.7546771E-02  0.1286772E+00
          1   -1    0    0  503    0 -0.00000000000E+00  0.00000000000E+00  0.30779854742E+03  0.30779854742E+03  0.00000000000E+00 0. -1.
          2   -1    0    0  502    0  0.00000000000E+00 -0.00000000000E+00 -0.35080999717E+03  0.35080999717E+03  0.00000000000E+00 0. -1.
         25    2    1    2    0    0  0.18864007581E+03 -0.96273890627E+02  0.35797959864E+02  0.24851513511E+03  0.12499815290E+03 0.  0.
          4    1    3    3  501    0  0.23092089243E+02 -0.29468048616E+02 -0.39789842196E+02  0.54648466738E+02  0.12700000000E+01 0. -1.
         -4    1    3    3    0  501  0.16554798657E+03 -0.66805842011E+02  0.75587802059E+02  0.19386666837E+03  0.12700000000E+01 0. -1.
          2    1    1    2  502    0  0.37535569255E+02 -0.14954918339E+02 -0.14415807714E+03  0.14971345881E+03  0.00000000000E+00 0. -1.
          1    1    1    2  503    0 -0.22617564507E+03  0.11122880897E+03  0.65348667533E+02  0.26037995068E+03  0.00000000000E+00 0. -1.
<mgrwt>
<rscale>  0 0.96982607E+02</rscale>
<asrwt>0</asrwt>
<pdfrwt beam="2">  1        2 0.53970769E-01 0.40405056E+02</pdfrwt>
<pdfrwt beam="1">  1        1 0.47353623E-01 0.23278339E+03</pdfrwt>
<totfact> 0.10602050E+03</totfact>
</mgrwt>
</event>
<event>
 7    1  0.3113530E-004  0.4155221E+02  0.7546771E-02  0.1562322E+00
         -1   -1    0    0    0  501 -0.00000000000E+00  0.00000000000E+00  0.99247849154E+03  0.99247849154E+03  0.00000000000E+00 0.  1.
          1   -1    0    0  503    0  0.00000000000E+00 -0.00000000000E+00 -0.18056515372E+02  0.18056515372E+02  0.00000000000E+00 0. -1.
         25    2    1    2    0    0  0.10832796242E+02  0.10976847012E+02  0.82781365895E+03  0.83733981643E+03  0.12499869431E+03 0.  0.
          4    1    3    3  502    0 -0.21815070971E+02 -0.15051901937E+02  0.73590733354E+03  0.73638554680E+03  0.12700000000E+01 0. -1.
         -4    1    3    3    0  502  0.32647867213E+02  0.26028748949E+02  0.91906325416E+02  0.10095426963E+03  0.12700000000E+01 0. -1.
          1    1    1    2  503    0  0.32250788344E+02 -0.26200618716E+02  0.42189536208E+02  0.59216068219E+02  0.00000000000E+00 0. -1.
         -1    1    1    2    0  501 -0.43083584586E+02  0.15223771705E+02  0.10441878101E+03  0.11397912227E+03  0.00000000000E+00 0.  1.
<mgrwt>
<rscale>  0 0.33501782E+02</rscale>
<asrwt>0</asrwt>
<pdfrwt beam="2">  1        1 0.27779262E-02 0.41552205E+02</pdfrwt>
<pdfrwt beam="1">  1       -1 0.15268896E+00 0.27011067E+02</pdfrwt>
<totfact> 0.12915664E+03</totfact>
</mgrwt>
</event>
<event>
 7    1  0.3113530E-004  0.5167161E+02  0.7546771E-02  0.1511131E+00
          2   -1    0    0  503    0  0.00000000000E+00  0.00000000000E+00  0.21578242138E+04  0.21578242138E+04  0.00000000000E+00 0. -1.
         -1   -1    0    0    0  501 -0.00000000000E+00 -0.00000000000E+00 -0.59843886181E+01  0.59843886181E+01  0.00000000000E+00 0.  1.
         25    2    1    2    0    0  0.20228245990E+02  0.30804174381E+02  0.97483323990E+03  0.98350372189E+03  0.12498658432E+03 0.  0.
          4    1    3    3  502    0 -0.49509786429E+02  0.25606744657E+02  0.30736003088E+03  0.31237593666E+03  0.12700000000E+01 0. -1.
         -4    1    3    3    0  502  0.69738032419E+02  0.51974297238E+01  0.66747320902E+03  0.67112778523E+03  0.12700000000E+01 0. -1.
          2    1    1    2  503    0 -0.49919314512E+02 -0.24476671686E+02  0.87884072289E+03  0.88059755940E+03  0.00000000000E+00 0. -1.
         -1    1    1    2    0  501  0.29691068521E+02 -0.63275026949E+01  0.29816586239E+03  0.29970732112E+03  0.00000000000E+00 0.  1.
<mgrwt>
<rscale>  0 0.39606023E+02</rscale>
<asrwt>0</asrwt>
<pdfrwt beam="1">  1        2 0.33197233E+00 0.51671609E+02</pdfrwt>
<pdfrwt beam="2">  1       -1 0.92067689E-03 0.30357813E+02</pdfrwt>
<totfact> 0.12405618E+04</totfact>
</mgrwt>
</event>
<event>
 7    1  0.3113530E-004  0.1270630E+03  0.7546771E-02  0.1428640E+00
          2   -1    0    0  503    0  0.00000000000E+00  0.00000000000E+00  0.56658367898E+03  0.56658367898E+03  0.00000000000E+00 0. -1.
         -1   -1    0    0    0  501 -0.00000000000E+00 -0.00000000000E+00 -0.10094395174E+04  0.10094395174E+04  0.00000000000E+00 0.  1.
         25    2    1    2    0    0 -0.78092797403E+02  0.70914938712E+02  0.21301530390E+03  0.26856514054E+03  0.12499720589E+03 0.  0.
          4    1    3    3  502    0 -0.81646836773E+02  0.95634618960E+02  0.12595369475E+03  0.17798351727E+03  0.12700000000E+01 0. -1.
         -4    1    3    3    0  502  0.35540393700E+01 -0.24719680247E+02  0.87061609146E+02  0.90581623271E+02  0.12700000000E+01 0. -1.
          2    1    1    2  503    0 -0.13266669138E+02  0.17927951076E+02  0.32126948883E+03  0.32204269964E+03  0.00000000000E+00 0. -1.
         -1    1    1    2    0  501  0.91359466541E+02 -0.88842889788E+02 -0.97714063114E+03  0.98541535620E+03  0.00000000000E+00 0.  1.
<mgrwt>
<rscale>  0 0.53234037E+02</rscale>
<asrwt>0</asrwt>
<pdfrwt beam="1">  1        2 0.87166721E-01 0.22302824E+02</pdfrwt>
<pdfrwt beam="2">  1       -1 0.15529839E+00 0.12706295E+03</pdfrwt>
<totfact> 0.23670148E+01</totfact>
</mgrwt>
</event>
<event>
 7    1  0.3113530E-004  0.4019359E+02  0.7546771E-02  0.1552450E+00
          1   -1    0    0  503    0  0.00000000000E+00  0.00000000000E+00  0.72242155776E+03  0.72242155776E+03  0.00000000000E+00 0. -1.
         -3   -1    0    0    0  501 -0.00000000000E+00 -0.00000000000E+00 -0.41102569805E+02  0.41102569805E+02  0.00000000000E+00 0.  1.
         25    2    1    2    0    0  0.40357117202E+02  0.32946297125E+02  0.31512867117E+03  0.34299412101E+03  0.12499892900E+03 0.  0.
          4    1    3    3  502    0  0.50408635052E+02  0.52685109748E+02  0.85846514858E+02  0.11264097074E+03  0.12700000000E+01 0.  1.
         -4    1    3    3    0  502 -0.10051517850E+02 -0.19738812623E+02  0.22928215631E+03  0.23035315026E+03  0.12700000000E+01 0.  1.
          1    1    1    2  503    0 -0.43752611981E+00 -0.29730479085E+02  0.37769329225E+03  0.37886186906E+03  0.00000000000E+00 0. -1.
         -3    1    1    2    0  501 -0.39919591082E+02 -0.32158180396E+01 -0.11502975464E+02  0.41668137496E+02  0.00000000000E+00 0.  1.
<mgrwt>
<rscale>  0 0.34570277E+02</rscale>
<asrwt>0</asrwt>
<pdfrwt beam="1">  1        1 0.11114177E+00 0.29733698E+02</pdfrwt>
<pdfrwt beam="2">  1       -3 0.63234728E-02 0.40193589E+02</pdfrwt>
<totfact> 0.19984572E+03</totfact>
</mgrwt>
</event>
<event>
 7    1  0.3113530E-004  0.9108059E+02  0.7546771E-02  0.1467433E+00
          1   -1    0    0  503    0  0.00000000000E+00  0.00000000000E+00  0.29077332267E+03  0.29077332267E+03  0.00000000000E+00 0. -1.
         -1   -1    0    0    0  501 -0.00000000000E+00 -0.00000000000E+00 -0.48535115954E+03  0.48535115954E+03  0.00000000000E+00 0.  1.
         25    2    1    2    0    0  0.85839852460E+02  0.68474252931E+02 -0.30031545627E+02  0.16906383677E+03  0.12499393419E+03 0.  0.
          4    1    3    3  502    0 -0.25166770663E+02  0.45241913811E+02 -0.18788345672E+02  0.55089127275E+02  0.12700000000E+01 0.  1.
         -4    1    3    3    0  502  0.11100662312E+03  0.23232339120E+02 -0.11243199954E+02  0.11397470949E+03  0.12700000000E+01 0.  1.
          1    1    1    2  503    0 -0.75878122764E+02 -0.47345446014E+02  0.21184206089E+03  0.22994812357E+03  0.00000000000E+00 0. -1.
         -1    1    1    2    0  501 -0.99617296957E+01 -0.21128806916E+02 -0.37638835212E+03  0.37711252188E+03  0.00000000000E+00 0.  1.
<mgrwt>
<rscale>  0 0.46125804E+02</rscale>
<asrwt>0</asrwt>
<pdfrwt beam="1">  1        1 0.44734357E-01 0.91080589E+02</pdfrwt>
<pdfrwt beam="2">  1       -1 0.74669409E-01 0.23359421E+02</pdfrwt>
<totfact> 0.18398974E+02</totfact>
</mgrwt>
</event>
<event>
 7    1  0.3113530E-004  0.1667405E+03  0.7546771E-02  0.1329336E+00
          1   -1    0    0  503    0 -0.00000000000E+00  0.00000000000E+00  0.20751821021E+03  0.20751821021E+03  0.00000000000E+00 0. -1.
          2   -1    0    0  502    0  0.00000000000E+00 -0.00000000000E+00 -0.26236777257E+04  0.26236777257E+04  0.00000000000E+00 0.  1.
         25    2    1    2    0    0  0.15941351995E+03  0.86634549322E+02 -0.36210230018E+03  0.42387030223E+03  0.12501896591E+03 0.  0.
          4    1    3    3  501    0  0.16257837444E+03  0.10987633204E+03 -0.31276776538E+03  0.36922868813E+03  0.12700000000E+01 0.  1.
         -4    1    3    3    0  501 -0.31648544845E+01 -0.23241782714E+02 -0.49334534805E+02  0.54641614106E+02  0.12700000000E+01 0.  1.
          2    1    1    2  502    0 -0.10163983380E+01 -0.38273421676E+02 -0.21916664715E+04  0.21920008691E+04  0.00000000000E+00 0.  1.
          1    1    1    2  503    0 -0.15839712162E+03 -0.48361127646E+02  0.13760925626E+03  0.21532476451E+03  0.00000000000E+00 0. -1.
<mgrwt>
<rscale>  0 0.79899804E+02</rscale>
<asrwt>0</asrwt>
<pdfrwt beam="2">  1        2 0.40364273E+00 0.38286915E+02</pdfrwt>
<pdfrwt beam="1">  1        1 0.31925878E-01 0.16674048E+03</pdfrwt>
<totfact> 0.86047844E+01</totfact>
</mgrwt>
</event>
<event>
 7    1  0.3113530E-004  0.3772856E+02  0.7546771E-02  0.1527892E+00
         -2   -1    0    0    0  501 -0.00000000000E+00  0.00000000000E+00  0.17564980787E+02  0.17564980787E+02  0.00000000000E+00 0.  1.
          1   -1    0    0  503    0  0.00000000000E+00 -0.00000000000E+00 -0.74459050932E+03  0.74459050932E+03  0.00000000000E+00 0. -1.
         25    2    1    2    0    0  0.28638884037E+02 -0.11110730649E+02 -0.29673562285E+03  0.32345067869E+03  0.12499871065E+03 0.  0.
          4    1    3    3  502    0  0.69446969976E+02 -0.28308019423E+02 -0.12222294213E+03  0.14340253166E+03  0.12700000000E+01 0. -1.
         -4    1    3    3    0  502 -0.40808085938E+02  0.17197288775E+02 -0.17451268072E+03  0.18004814704E+03  0.12700000000E+01 0. -1.
          1    1    1    2  503    0 -0.33478930965E+01  0.39107338600E+02 -0.31409961751E+03  0.31654251221E+03  0.00000000000E+00 0. -1.
         -2    1    1    2    0  501 -0.25290990941E+02 -0.27996607952E+02 -0.11619028817E+03  0.12216229920E+03  0.00000000000E+00 0.  1.
<mgrwt>
<rscale>  0 0.37446225E+02</rscale>
<asrwt>0</asrwt>
<pdfrwt beam="2">  1        1 0.11455237E+00 0.37166002E+02</pdfrwt>
<pdfrwt beam="1">  1       -2 0.27023052E-02 0.37728561E+02</pdfrwt>
<totfact> 0.96120600E+03</totfact>
</mgrwt>
</event>
<event>
 7    1  0.3113530E-004  0.1343185E+03  0.7546771E-02  0.1241726E+00
         -1   -1    0    0    0  501 -0.00000000000E+00  0.00000000000E+00  0.31818593561E+03  0.31818593561E+03  0.00000000000E+00 0.  1.
          2   -1    0    0  503    0  0.00000000000E+00 -0.00000000000E+00 -0.10191975768E+04  0.10191975768E+04  0.00000000000E+00 0. -1.
         25    2    1    2    0    0 -0.66913496657E+02  0.21022571921E+03 -0.38564251867E+03  0.46153513459E+03  0.12498903633E+03 0.  0.
          4    1    3    3  502    0 -0.36886068571E+02  0.21905370425E+03 -0.33363660819E+03  0.40082428397E+03  0.12700000000E+01 0.  1.
         -4    1    3    3    0  502 -0.30027428086E+02 -0.88279850399E+01 -0.52005910487E+02  0.60710850620E+02  0.12700000000E+01 0.  1.
          2    1    1    2  503    0  0.65960358077E+02 -0.10152532554E+03 -0.57856003077E+03  0.59109209923E+03  0.00000000000E+00 0. -1.
         -1    1    1    2    0  501  0.95313857994E+00 -0.10870039367E+03  0.26319090821E+03  0.28475627863E+03  0.00000000000E+00 0.  1.
<mgrwt>
<rscale>  0 0.12083475E+03</rscale>
<asrwt>0</asrwt>
<pdfrwt beam="2">  1        2 0.15679963E+00 0.13431851E+03</pdfrwt>
<pdfrwt beam="1">  1       -1 0.48951682E-01 0.10870457E+03</pdfrwt>
<totfact> 0.13130284E+02</totfact>
</mgrwt>
</event>
<event>
 7    1  0.3113530E-004  0.3698994E+02  0.7546771E-02  0.1603040E+00
          2   -1    0    0  503    0  0.00000000000E+00  0.00000000000E+00  0.11021938254E+02  0.11021938254E+02  0.00000000000E+00 0. -1.
         -1   -1    0    0    0  501 -0.00000000000E+00 -0.00000000000E+00 -0.10611724165E+04  0.10611724165E+04  0.00000000000E+00 0.  1.
         25    2    1    2    0    0  0.22395362445E+01  0.25445510565E+02 -0.52725839700E+03  0.54247431044E+03  0.12499788297E+03 0.  0.
          4    1    3    3  502    0  0.36302924270E+02  0.64322534492E+02 -0.26153337376E+03  0.27176572492E+03  0.12700000000E+01 0. -1.
         -4    1    3    3    0  502 -0.34063388026E+02 -0.38877023927E+02 -0.26572502324E+03  0.27070858551E+03  0.12700000000E+01 0. -1.
          2    1    1    2  503    0 -0.22373080309E+02  0.75647578976E+01 -0.50516717852E+02  0.55764855125E+02  0.00000000000E+00 0. -1.
         -1    1    1    2    0  501  0.20133544064E+02 -0.33010268463E+02 -0.47237536341E+03  0.47395518920E+03  0.00000000000E+00 0.  1.
<mgrwt>
<rscale>  0 0.29556815E+02</rscale>
<asrwt>0</asrwt>
<pdfrwt beam="1">  1        2 0.16956828E-02 0.23617373E+02</pdfrwt>
<pdfrwt beam="2">  1       -1 0.16325730E+00 0.36989944E+02</pdfrwt>
<totfact> 0.19209255E+03</totfact>
</mgrwt>
</event>
<event>
 7    1  0.3113530E-004  0.1577313E+03  0.7546771E-02  0.1257411E+00
          2   -1    0    0  502    0  0.00000000000E+00  0.00000000000E+00  0.14619480866E+04  0.14619480866E+04  0.00000000000E+00 0. -1.
          2   -1    0    0  503    0 -0.00000000000E+00 -0.00000000000E+00 -0.11425102701E+03  0.11425102701E+03  0.00000000000E+00 0. -1.
         25    2    1    2    0    0  0.13032272992E+03 -0.70083141760E+02  0.14600902610E+02  0.19429377847E+03  0.12506488437E+03 0.  0.
          4    1    3    3  501    0  0.64864203267E+02 -0.22575902274E+02  0.68563985925E+02  0.97054980783E+02  0.12700000000E+01 0. -1.
         -4    1    3    3    0  501  0.65458526654E+02 -0.47507239486E+02 -0.53963083315E+02  0.97238797690E+02  0.12700000000E+01 0. -1.
          2    1    1    2  502    0 -0.15924639416E+03 -0.35774024355E+01  0.12719863739E+04  0.12819210378E+04  0.00000000000E+00 0. -1.
          2    1    1    2  503    0  0.28923664241E+02  0.73660544195E+02  0.61109783144E+02  0.99984297368E+02  0.00000000000E+00 0. -1.
<mgrwt>
<rscale>  0 0.11172365E+03</rscale>
<asrwt>0</asrwt>
<pdfrwt beam="1">  1        2 0.22491508E+00 0.15773132E+03</pdfrwt>
<pdfrwt beam="2">  1        2 0.17577082E-01 0.79135669E+02</pdfrwt>
<totfact> 0.71072070E+02</totfact>
</mgrwt>
</event>
<event>
 7    1  0.3113530E-004  0.7701837E+02  0.7546771E-02  0.1371925E+00
          1   -1    0    0  503    0 -0.00000000000E+00  0.00000000000E+00  0.31876517781E+02  0.31876517781E+02  0.00000000000E+00 0.  1.
          2   -1    0    0  502    0  0.00000000000E+00 -0.00000000000E+00 -0.28534007875E+04  0.28534007875E+04  0.00000000000E+00 0. -1.
         25    2    1    2    0    0  0.22323115774E+02  0.26264398991E+02 -0.14647218724E+03  0.19562272619E+03  0.12500403680E+03 0.  0.
          4    1    3    3  501    0  0.31490884213E+02 -0.46499299716E+02 -0.68142494131E+02  0.88311228443E+02  0.12700000000E+01 0.  1.
         -4    1    3    3    0  501 -0.91677684395E+01  0.72763698707E+02 -0.78329693104E+02  0.10731149775E+03  0.12700000000E+01 0.  1.
          2    1    1    2  502    0  0.26486584128E+01 -0.78226667811E+02 -0.25577851048E+04  0.25589824285E+04  0.00000000000E+00 0. -1.
          1    1    1    2  503    0 -0.24971774187E+02  0.51962268820E+02 -0.11726697762E+03  0.13067215054E+03  0.00000000000E+00 0.  1.
<mgrwt>
<rscale>  0 0.66634866E+02</rscale>
<asrwt>0</asrwt>
<pdfrwt beam="2">  1        2 0.43898483E+00 0.77018367E+02</pdfrwt>
<pdfrwt beam="1">  1        1 0.49040786E-02 0.57651252E+02</pdfrwt>
<totfact> 0.61811996E+02</totfact>
</mgrwt>
</event>
<event>
 7    1  0.3113530E-004  0.1764660E+03  0.7546771E-02  0.1284891E+00
          2   -1    0    0  502    0  0.00000000000E+00  0.00000000000E+00  0.48204805679E+03  0.48204805679E+03  0.00000000000E+00 0. -1.
          2   -1    0    0  503    0 -0.00000000000E+00 -0.00000000000E+00 -0.25834002820E+03  0.25834002820E+03  0.00000000000E+00 0. -1.
         25    2    1    2    0    0  0.17719999130E+03 -0.12046377436E+03 -0.83621902369E+01  0.24819925937E+03  0.12498635235E+03 0.  0.
          4    1    3    3  501    0  0.38135419603E+02 -0.14300138867E+02  0.49319574460E+02  0.63975288391E+02  0.12700000000E+01 0.  1.
         -4    1    3    3    0  501  0.13906457170E+03 -0.10616363549E+03 -0.57681764697E+02  0.18422397097E+03  0.12700000000E+01 0.  1.
          2    1    1    2  502    0 -0.48371642559E+02  0.24568726316E+02  0.30927291756E+03  0.31399550260E+03  0.00000000000E+00 0. -1.
          2    1    1    2  503    0 -0.12882834874E+03  0.95895048041E+02 -0.77202698728E+02  0.17819332302E+03  0.00000000000E+00 0. -1.
<mgrwt>
<rscale>  0 0.97846267E+02</rscale>
<asrwt>0</asrwt>
<pdfrwt beam="1">  1        2 0.74161239E-01 0.54253462E+02</pdfrwt>
<pdfrwt beam="2">  1        2 0.39744620E-01 0.17646601E+03</pdfrwt>
<totfact> 0.13118358E+03</totfact>
</mgrwt>
</event>
<event>
 7    1  0.3113530E-004  0.5054339E+02  0.7546771E-02  0.1510976E+00
         -2   -1    0    0    0  501 -0.00000000000E+00  0.00000000000E+00  0.30119765143E+03  0.30119765143E+03  0.00000000000E+00 0.  1.
          2   -1    0    0  503    0  0.00000000000E+00 -0.00000000000E+00 -0.22113682338E+03  0.22113682338E+03  0.00000000000E+00 0.  1.
         25    2    1    2    0    0 -0.48510861710E+02 -0.36838986155E+02 -0.71565686860E+02  0.15639131768E+03  0.12500472833E+03 0.  0.
          4    1    3    3  502    0  0.11136304177E+02 -0.50834697006E+02 -0.79055488400E+02  0.94654988440E+02  0.12700000000E+01 0. -1.
         -4    1    3    3    0  502 -0.59647165887E+02  0.13995710851E+02  0.74898015398E+01  0.61736329237E+02  0.12700000000E+01 0. -1.
          2    1    1    2  503    0  0.49779556219E+02  0.57969992855E+01 -0.10029184643E+03  0.11211629622E+03  0.00000000000E+00 0.  1.
         -2    1    1    2    0  501 -0.12686945096E+01  0.31041986869E+02  0.25191836134E+03  0.25382686091E+03  0.00000000000E+00 0.  1.
<mgrwt>
<rscale>  0 0.39626724E+02</rscale>
<asrwt>0</asrwt>
<pdfrwt beam="2">  1        2 0.34021050E-01 0.50543394E+02</pdfrwt>
<pdfrwt beam="1">  1       -2 0.46338100E-01 0.31067902E+02</pdfrwt>
<totfact> 0.65690465E+02</totfact>
</mgrwt>
</event>
<event>
 7    1  0.3113530E-004  0.1093345E+03  0.7546771E-02  0.1340704E+00
         -1   -1    0    0    0  501 -0.00000000000E+00  0.00000000000E+00  0.48631905864E+03  0.48631905864E+03  0.00000000000E+00 0.  1.
          3   -1    0    0  503    0  0.00000000000E+00 -0.00000000000E+00 -0.10719858512E+04  0.10719858512E+04  0.00000000000E+00 0. -1.
         25    2    1    2    0    0  0.71393067041E+02 -0.10963136751E+02  0.89974273310E+02  0.17010888826E+03  0.12499801446E+03 0.  0.
          4    1    3    3  502    0  0.96109383604E+01  0.37050642976E+02 -0.13293597278E+02  0.40539522811E+02  0.12700000000E+01 0. -1.
         -4    1    3    3    0  502  0.61782128681E+02 -0.48013779728E+02  0.10326787059E+03  0.12956936545E+03  0.12700000000E+01 0. -1.
          3    1    1    2  503    0 -0.10656458671E+03 -0.28515405862E+02 -0.10269866315E+04  0.10328943222E+04  0.00000000000E+00 0. -1.
         -1    1    1    2    0  501  0.35171519670E+02  0.39478542613E+02  0.35134556561E+03  0.35530169940E+03  0.00000000000E+00 0.  1.
<mgrwt>
<rscale>  0 0.76032092E+02</rscale>
<asrwt>0</asrwt>
<pdfrwt beam="2">  1        3 0.16492090E+00 0.10933446E+03</pdfrwt>
<pdfrwt beam="1">  1       -1 0.74818317E-01 0.52873350E+02</pdfrwt>
<totfact> 0.24453169E+00</totfact>
</mgrwt>
</event>
<event>
 7    1  0.3113530E-004  0.6867057E+02  0.7546771E-02  0.1365389E+00
          2   -1    0    0  503    0  0.00000000000E+00  0.00000000000E+00  0.15744017218E+03  0.15744017218E+03  0.00000000000E+00 0. -1.
         -2   -1    0    0    0  501 -0.00000000000E+00 -0.00000000000E+00 -0.30476287857E+03  0.30476287857E+03  0.00000000000E+00 0.  1.
         25    2    1    2    0    0 -0.63508475495E+02  0.41033449589E+02 -0.67150573218E+02  0.16078169067E+03  0.12499792849E+03 0.  0.
          4    1    3    3  502    0  0.13083080681E+02 -0.33794111889E+02 -0.40428427168E+01  0.36485154183E+02  0.12700000000E+01 0. -1.
         -4    1    3    3    0  502 -0.76591556176E+02  0.74827561478E+02 -0.63107730501E+02  0.12429653649E+03  0.12700000000E+01 0. -1.
          2    1    1    2  503    0  0.15660173277E+01 -0.70677658514E+02  0.92020280295E+02  0.11604100917E+03  0.00000000000E+00 0. -1.
         -2    1    1    2    0  501  0.61942458167E+02  0.29644208925E+02 -0.17219241346E+03  0.18538035090E+03  0.00000000000E+00 0.  1.
<mgrwt>
<rscale>  0 0.68465759E+02</rscale>
<asrwt>0</asrwt>
<pdfrwt beam="1">  1        2 0.24221565E-01 0.68261559E+02</pdfrwt>
<pdfrwt beam="2">  1       -2 0.46886597E-01 0.68670570E+02</pdfrwt>
<totfact> 0.93723327E+02</totfact>
</mgrwt>
</event>
<event>
 7    1  0.3113530E-004  0.1619575E+03  0.7546771E-02  0.1280304E+00
          2   -1    0    0  502    0  0.00000000000E+00  0.00000000000E+00  0.28352217719E+04  0.28352217719E+04  0.00000000000E+00 0. -1.
          2   -1    0    0  503    0 -0.00000000000E+00 -0.00000000000E+00 -0.69452327698E+03  0.69452327698E+03  0.00000000000E+00 0.  1.
         25    2    1    2    0    0 -0.10601816574E+03 -0.47119554199E+02  0.46078371982E+02  0.17665638769E+03  0.12499663632E+03 0.  0.
          4    1    3    3  501    0 -0.10585008383E+03 -0.82203337504E+02  0.27069434930E+02  0.13673330301E+03  0.12700000000E+01 0.  1.
         -4    1    3    3    0  501 -0.16808191418E+00  0.35083783306E+02  0.19008937052E+02  0.39923084681E+02  0.12700000000E+01 0.  1.
          2    1    1    2  502    0  0.12509903671E+03  0.10583703798E+03  0.27198681355E+04  0.27247997948E+04  0.00000000000E+00 0. -1.
          2    1    1    2  503    0 -0.19080870969E+02 -0.58717483786E+02 -0.62524801248E+03  0.62828886641E+03  0.00000000000E+00 0.  1.
<mgrwt>
<rscale>  0 0.99996237E+02</rscale>
<asrwt>0</asrwt>
<pdfrwt beam="1">  1        2 0.43618796E+00 0.16195747E+03</pdfrwt>
<pdfrwt beam="2">  1        2 0.10684974E+00 0.61739959E+02</pdfrwt>
<totfact> 0.19357428E+01</totfact>
</mgrwt>
</event>
<event>
 7    1  0.3113530E-004  0.2337897E+03  0.7546771E-02  0.1286881E+00
          1   -1    0    0  503    0 -0.00000000000E+00  0.00000000000E+00  0.96989946923E+03  0.96989946923E+03  0.00000000000E+00 0. -1.
          2   -1    0    0  502    0  0.00000000000E+00 -0.00000000000E+00 -0.20564049149E+04  0.20564049149E+04  0.00000000000E+00 0. -1.
         25    2    1    2    0    0 -0.25829301096E+03  0.66630842836E+02  0.17216652685E+03  0.34120722544E+03  0.12500443593E+03 0.  0.
          4    1    3    3  501    0 -0.41472885060E+02 -0.35784278493E+02  0.32013495800E+02  0.63458581735E+02  0.12700000000E+01 0.  1.
         -4    1    3    3    0  501 -0.21682012590E+03  0.10241512133E+03  0.14015303105E+03  0.27774864371E+03  0.12700000000E+01 0.  1.
          2    1    1    2  502    0  0.39682211065E+02 -0.63677286455E+01 -0.19536477755E+04  0.19540611189E+04  0.00000000000E+00 0. -1.
          1    1    1    2  503    0  0.21861079989E+03 -0.60263114190E+02  0.69497580295E+03  0.73103603978E+03  0.00000000000E+00 0. -1.
<mgrwt>
<rscale>  0 0.96932844E+02</rscale>
<asrwt>0</asrwt>
<pdfrwt beam="2">  1        2 0.31636998E+00 0.40189872E+02</pdfrwt>
<pdfrwt beam="1">  1        1 0.14921530E+00 0.23378965E+03</pdfrwt>
<totfact> 0.20146880E+01</totfact>
</mgrwt>
</event>
<event>
 7    1  0.3113530E-004  0.1015906E+03  0.7546771E-02  0.1320038E+00
          1   -1    0    0  503    0 -0.00000000000E+00  0.00000000000E+00  0.14418160920E+04  0.14418160920E+04  0.00000000000E+00 0. -1.
          2   -1    0    0  502    0  0.00000000000E+00 -0.00000000000E+00 -0.78640383873E+03  0.78640383873E+03  0.00000000000E+00 0.  1.
         25    2    1    2    0    0 -0.15219017968E+03  0.41724066476E+02  0.18057127310E+03  0.27042853154E+03  0.12499142966E+03 0.  0.
          4    1    3    3  501    0 -0.15821179533E+03  0.66889066510E+02  0.13691597041E+03  0.21966500690E+03  0.12700000000E+01 0.  1.
         -4    1    3    3    0  501  0.60216156505E+01 -0.25165000034E+02  0.43655302689E+02  0.50763524647E+02  0.12700000000E+01 0.  1.
          2    1    1    2  502    0  0.85083950721E+02 -0.54122289871E+02 -0.73708240082E+03  0.74394822839E+03  0.00000000000E+00 0.  1.
          1    1    1    2  503    0  0.67106228963E+02  0.12398223395E+02  0.12119233810E+04  0.12138431708E+04  0.00000000000E+00 0. -1.
<mgrwt>
<rscale>  0 0.83263093E+02</rscale>
<asrwt>0</asrwt>
<pdfrwt beam="2">  1        2 0.12098521E+00 0.10159065E+03</pdfrwt>
<pdfrwt beam="1">  1        1 0.22181786E+00 0.68241937E+02</pdfrwt>
<totfact> 0.45777918E+01</totfact>
</mgrwt>
</event>
<event>
 7    1  0.3113530E-004  0.9126619E+02  0.7546771E-02  0.1334878E+00
          1   -1    0    0  503    0  0.00000000000E+00  0.00000000000E+00  0.32076880818E+03  0.32076880818E+03  0.00000000000E+00 0. -1.
         -2   -1    0    0    0  501 -0.00000000000E+00 -0.00000000000E+00 -0.10730410618E+03  0.10730410618E+03  0.00000000000E+00 0.  1.
         25    2    1    2    0    0  0.71021962159E+02 -0.11114324208E+03  0.24347571873E+02  0.18334481663E+03  0.12500231262E+03 0.  0.
          4    1    3    3  502    0 -0.32593223673E+02 -0.21492242415E+02  0.24896909690E+02  0.46321741392E+02  0.12700000000E+01 0.  1.
         -4    1    3    3    0  502  0.10361518583E+03 -0.89650999660E+02 -0.54933781717E+00  0.13702307524E+03  0.12700000000E+01 0.  1.
          1    1    1    2  503    0 -0.49039218563E+02  0.45109492383E+02  0.15175086949E+03  0.16573484139E+03  0.00000000000E+00 0. -1.
         -2    1    1    2    0  501 -0.21982743596E+02  0.66033749692E+02  0.37366260636E+02  0.78993256347E+02  0.00000000000E+00 0.  1.
<mgrwt>
<rscale>  0 0.77981868E+02</rscale>
<asrwt>0</asrwt>
<pdfrwt beam="1">  1        1 0.49349047E-01 0.66631158E+02</pdfrwt>
<pdfrwt beam="2">  1       -2 0.16508324E-01 0.91266187E+02</pdfrwt>
<totfact> 0.19793761E+03</totfact>
</mgrwt>
</event>
<event>
 7    1  0.3113530E-004  0.1824507E+03  0.7546771E-02  0.1365740E+00
         -2   -1    0    0    0  501 -0.00000000000E+00  0.00000000000E+00  0.15848975081E+03  0.15848975081E+03  0.00000000000E+00 0.  1.
          1   -1    0    0  503    0  0.00000000000E+00 -0.00000000000E+00 -0.34439844324E+03  0.34439844324E+03  0.00000000000E+00 0. -1.
         25    2    1    2    0    0 -0.16007755971E+03  0.10633742259E+03 -0.10479276044E+02  0.22948983346E+03  0.12499318328E+03 0.  0.
          4    1    3    3  502    0 -0.16450273444E+03  0.49403633436E+02 -0.13461088791E+02  0.17229243294E+03  0.12700000000E+01 0. -1.
         -4    1    3    3    0  502  0.44251747318E+01  0.56933789158E+02  0.29818127463E+01  0.57197400522E+02  0.12700000000E+01 0. -1.
          1    1    1    2  503    0  0.25519805678E+02 -0.22325347999E+01 -0.66808661275E+02  0.71551673040E+02  0.00000000000E+00 0. -1.
         -2    1    1    2    0  501  0.13455775403E+03 -0.10410488779E+03 -0.10862075512E+03  0.20184668755E+03  0.00000000000E+00 0.  1.
<mgrwt>
<rscale>  0 0.68365856E+02</rscale>
<asrwt>0</asrwt>
<pdfrwt beam="2">  1        1 0.52984375E-01 0.25617273E+02</pdfrwt>
<pdfrwt beam="1">  1       -2 0.24383039E-01 0.18245073E+03</pdfrwt>
<totfact> 0.96229844E+02</totfact>
</mgrwt>
</event>
<event>
 7    1  0.3113530E-004  0.9146046E+02  0.7546771E-02  0.1358603E+00
          2   -1    0    0  502    0  0.00000000000E+00  0.00000000000E+00  0.13351493009E+04  0.13351493009E+04  0.00000000000E+00 0. -1.
          2   -1    0    0  503    0 -0.00000000000E+00 -0.00000000000E+00 -0.50358235664E+03  0.50358235664E+03  0.00000000000E+00 0.  1.
         25    2    1    2    0    0  0.42694879032E+02 -0.78294638544E+02  0.70809021378E+03  0.72454838005E+03  0.12500280422E+03 0.  0.
          4    1    3    3  501    0  0.80459698847E+02 -0.22154197531E+02  0.32619338683E+03  0.33670210887E+03  0.12700000000E+01 0.  1.
         -4    1    3    3    0  501 -0.37764819815E+02 -0.56140441013E+02  0.38189682695E+03  0.38784627118E+03  0.12700000000E+01 0.  1.
          2    1    1    2  502    0  0.39256600700E+02  0.37444460129E+02  0.61339082148E+03  0.61578524517E+03  0.00000000000E+00 0. -1.
          2    1    1    2  503    0 -0.81951479732E+02  0.40850178416E+02 -0.48991409097E+03  0.49839803234E+03  0.00000000000E+00 0.  1.
<mgrwt>
<rscale>  0 0.70440180E+02</rscale>
<asrwt>0</asrwt>
<pdfrwt beam="1">  1        2 0.20540758E+00 0.54250975E+02</pdfrwt>
<pdfrwt beam="2">  1        2 0.77474209E-01 0.91460456E+02</pdfrwt>
<totfact> 0.18410416E+02</totfact>
</mgrwt>
</event>
<event>
 7    1  0.3113530E-004  0.4414375E+02  0.7546771E-02  0.1564273E+00
         -3   -1    0    0    0  501  0.00000000000E+00  0.00000000000E+00  0.48275520515E+02  0.48275520515E+02  0.00000000000E+00 0.  1.
         -3   -1    0    0    0  502 -0.00000000000E+00 -0.00000000000E+00 -0.21666050678E+03  0.21666050678E+03  0.00000000000E+00 0.  1.
         25    2    1    2    0    0 -0.42403894439E+02  0.16221506477E+02 -0.12018778951E+03  0.17924143855E+03  0.12498464309E+03 0.  0.
          4    1    3    3  503    0 -0.36763730481E+02  0.61787996858E+02 -0.11122091904E+03  0.13244256932E+03  0.12700000000E+01 0.  1.
         -4    1    3    3    0  503 -0.56401639583E+01 -0.45566490382E+02 -0.89668704734E+01  0.46798869231E+02  0.12700000000E+01 0.  1.
         -3    1    1    2    0  502  0.44845263719E+02  0.87737868928E+01 -0.29609938433E+02  0.54450210913E+02  0.00000000000E+00 0.  1.
         -3    1    1    2    0  501 -0.24413692802E+01 -0.24995293370E+02 -0.18587258318E+02  0.31244377836E+02  0.00000000000E+00 0.  1.
<mgrwt>
<rscale>  0 0.33296196E+02</rscale>
<asrwt>0</asrwt>
<pdfrwt beam="1">  1       -3 0.74270034E-02 0.25114238E+02</pdfrwt>
<pdfrwt beam="2">  1       -3 0.33332384E-01 0.44143749E+02</pdfrwt>
<totfact> 0.17017398E+03</totfact>
</mgrwt>
</event>
<event>
 7    1  0.3113530E-004  0.1055302E+03  0.7546771E-02  0.1348936E+00
          1   -1    0    0  502    0  0.00000000000E+00  0.00000000000E+00  0.10984721658E+03  0.10984721658E+03  0.00000000000E+00 0. -1.
          1   -1    0    0  503    0 -0.00000000000E+00 -0.00000000000E+00 -0.18984331209E+04  0.18984331209E+04  0.00000000000E+00 0. -1.
         25    2    1    2    0    0 -0.12410235614E+02  0.57626915179E+02 -0.40242435964E+03  0.42549652663E+03  0.12500821430E+03 0.  0.
          4    1    3    3  501    0 -0.58033786722E+01  0.85930126363E+02 -0.16344234664E+03  0.18475031636E+03  0.12700000000E+01 0.  1.
         -4    1    3    3    0  501 -0.66068569416E+01 -0.28303211184E+02 -0.23898201300E+03  0.24074621027E+03  0.12700000000E+01 0.  1.
          1    1    1    2  502    0  0.36143442331E+02 -0.10280875813E+03  0.67525129755E+02  0.12820153010E+03  0.00000000000E+00 0. -1.
          1    1    1    2  503    0 -0.23733206717E+02  0.45181842955E+02 -0.14536866745E+04  0.14545822808E+04  0.00000000000E+00 0. -1.
<mgrwt>
<rscale>  0 0.73388211E+02</rscale>
<asrwt>0</asrwt>
<pdfrwt beam="1">  1        1 0.16899573E-01 0.10553020E+03</pdfrwt>
<pdfrwt beam="2">  1        1 0.29206661E+00 0.51035909E+02</pdfrwt>
<totfact> 0.17544050E+02</totfact>
</mgrwt>
</event>
<event>
 7    1  0.3113530E-004  0.5453257E+02  0.7546771E-02  0.1523090E+00
          2   -1    0    0  502    0  0.00000000000E+00  0.00000000000E+00  0.78662196436E+02  0.78662196436E+02  0.00000000000E+00 0. -1.
          1   -1    0    0  503    0 -0.00000000000E+00 -0.00000000000E+00 -0.85624220953E+03  0.85624220953E+03  0.00000000000E+00 0.  1.
         25    2    1    2    0    0 -0.34834478044E+02 -0.18709132414E+02 -0.15273495128E+03  0.20129118565E+03  0.12500681414E+03 0.  0.
          4    1    3    3  501    0 -0.21380950791E+02 -0.72074021766E+02 -0.99476306429E+02  0.12469546147E+03  0.12700000000E+01 0. -1.
         -4    1    3    3    0  501 -0.13453527253E+02  0.53364889352E+02 -0.53258644853E+02  0.76595724180E+02  0.12700000000E+01 0. -1.
          2    1    1    2  502    0  0.26581908834E+01 -0.26412652917E+02  0.49939573400E+02  0.56556654819E+02  0.00000000000E+00 0. -1.
          1    1    1    2  503    0  0.32176287161E+02  0.45121785331E+02 -0.67478463521E+03  0.67705656550E+03  0.00000000000E+00 0.  1.
<mgrwt>
<rscale>  0 0.38047679E+02</rscale>
<asrwt>0</asrwt>
<pdfrwt beam="1">  1        2 0.12101876E-01 0.26546077E+02</pdfrwt>
<pdfrwt beam="2">  1        1 0.13172957E+00 0.54532573E+02</pdfrwt>
<totfact> 0.13474361E+03</totfact>
</mgrwt>
</event>
<event>
 7    1  0.3113530E-004  0.4005448E+02  0.7546771E-02  0.1508128E+00
          2   -1    0    0  503    0  0.00000000000E+00  0.00000000000E+00  0.13452020304E+04  0.13452020304E+04  0.00000000000E+00 0. -1.
         -3   -1    0    0    0  501 -0.00000000000E+00 -0.00000000000E+00 -0.15292097602E+02  0.15292097602E+02  0.00000000000E+00 0.  1.
         25    2    1    2    0    0 -0.33592450358E+02 -0.35538594004E+02  0.60308895587E+03  0.61784556999E+03  0.12500166112E+03 0.  0.
          4    1    3    3  502    0  0.22384104858E+02 -0.77216675305E+00  0.17218089844E+02  0.28279319470E+02  0.12700000000E+01 0.  1.
         -4    1    3    3    0  502 -0.55976555216E+02 -0.34766427251E+02  0.58587086602E+03  0.58956625052E+03  0.12700000000E+01 0.  1.
          2    1    1    2  503    0  0.40580599532E+02 -0.38141316253E+01  0.67943896497E+03  0.68066044381E+03  0.00000000000E+00 0. -1.
         -3    1    1    2    0  501 -0.69881491733E+01  0.39352725629E+02  0.47382011937E+02  0.61988114171E+02  0.00000000000E+00 0.  1.
<mgrwt>
<rscale>  0 0.40011406E+02</rscale>
<asrwt>0</asrwt>
<pdfrwt beam="1">  1        2 0.20695407E+00 0.40054481E+02</pdfrwt>
<pdfrwt beam="2">  1       -3 0.23526315E-02 0.39968378E+02</pdfrwt>
<totfact> 0.65413217E+03</totfact>
</mgrwt>
</event>
<event>
 7    1  0.3113530E-004  0.9017236E+02  0.7546771E-02  0.1354570E+00
          2   -1    0    0  502    0  0.00000000000E+00  0.00000000000E+00  0.29761197646E+03  0.29761197646E+03  0.00000000000E+00 0.  1.
          3   -1    0    0  503    0 -0.00000000000E+00 -0.00000000000E+00 -0.84619186431E+03  0.84619186431E+03  0.00000000000E+00 0. -1.
         25    2    1    2    0    0  0.52506233340E+02  0.35568331002E+02 -0.25209689819E+03  0.28844365034E+03  0.12499953052E+03 0.  0.
          4    1    3    3  501    0 -0.36738976102E+02  0.16880861116E+02 -0.12937051749E+03  0.13554725940E+03  0.12700000000E+01 0.  1.
         -4    1    3    3    0  501  0.89245209442E+02  0.18687469886E+02 -0.12272638071E+03  0.15289639093E+03  0.12700000000E+01 0.  1.
          2    1    1    2  502    0 -0.91062927453E+02  0.63206096485E+01  0.27052022712E+03  0.28550586709E+03  0.00000000000E+00 0.  1.
          3    1    1    2  503    0  0.38556694113E+02 -0.41888940651E+02 -0.56700321677E+03  0.56985432334E+03  0.00000000000E+00 0. -1.
<mgrwt>
<rscale>  0 0.71650065E+02</rscale>
<asrwt>0</asrwt>
<pdfrwt beam="1">  1        2 0.45786458E-01 0.90172358E+02</pdfrwt>
<pdfrwt beam="2">  1        3 0.13018336E+00 0.56932434E+02</pdfrwt>
<totfact> 0.32845825E+01</totfact>
</mgrwt>
</event>
<event>
 7    1  0.3113530E-004  0.1064196E+03  0.7546771E-02  0.1286410E+00
         -3   -1    0    0    0  501 -0.00000000000E+00  0.00000000000E+00  0.82303096494E+02  0.82303096494E+02  0.00000000000E+00 0.  1.
          2   -1    0    0  503    0  0.00000000000E+00 -0.00000000000E+00 -0.17500769554E+04  0.17500769554E+04  0.00000000000E+00 0. -1.
         25    2    1    2    0    0  0.14191394916E+03  0.94431920562E+02 -0.83852066125E+03  0.86475292457E+03  0.12499505839E+03 0.  0.
          4    1    3    3  502    0  0.93237827899E+02  0.10913091823E+03 -0.74089484322E+03  0.75467187007E+03  0.12700000000E+01 0. -1.
         -4    1    3    3    0  502  0.48676121266E+02 -0.14698997667E+02 -0.97625818024E+02  0.11008105450E+03  0.12700000000E+01 0. -1.
          2    1    1    2  503    0 -0.54748597297E+02 -0.78090055455E+02 -0.86628720555E+03  0.87152107729E+03  0.00000000000E+00 0. -1.
         -3    1    1    2    0  501 -0.87165351868E+02 -0.16341865107E+02  0.37034007857E+02  0.96106050067E+02  0.00000000000E+00 0.  1.
<mgrwt>
<rscale>  0 0.97147929E+02</rscale>
<asrwt>0</asrwt>
<pdfrwt beam="2">  1        2 0.26924260E+00 0.10641963E+03</pdfrwt>
<pdfrwt beam="1">  1       -3 0.12662015E-01 0.88684018E+02</pdfrwt>
<totfact> 0.31002408E+02</totfact>
</mgrwt>
</event>
<event>
 7    1  0.3113530E-004  0.1377995E+03  0.7546771E-02  0.1400178E+00
          1   -1    0    0  503    0  0.00000000000E+00  0.00000000000E+00  0.91557571517E+02  0.91557571517E+02  0.00000000000E+00 0. -1.
         -1   -1    0    0    0  501 -0.00000000000E+00 -0.00000000000E+00 -0.41422212080E+03  0.41422212080E+03  0.00000000000E+00 0.  1.
         25    2    1    2    0    0 -0.81869629176E+00 -0.15110612459E+03 -0.96639573978E+02  0.21862627396E+03  0.12499803700E+03 0.  0.
          4    1    3    3  502    0 -0.27025669005E+02 -0.16244297955E+03 -0.68010224060E+02  0.17817157985E+03  0.12700000000E+01 0. -1.
         -4    1    3    3    0  502  0.26206972713E+02  0.11336854954E+02 -0.28629349918E+02  0.40454694113E+02  0.12700000000E+01 0. -1.
          1    1    1    2  503    0  0.18112708339E+02  0.18152594097E+02 -0.15542042136E+01  0.25690512384E+02  0.00000000000E+00 0. -1.
         -1    1    1    2    0  501 -0.17294012047E+02  0.13295353050E+03 -0.22447077109E+03  0.26146290597E+03  0.00000000000E+00 0.  1.
<mgrwt>
<rscale>  0 0.59444562E+02</rscale>
<asrwt>0</asrwt>
<pdfrwt beam="1">  1        1 0.14085780E-01 0.25643457E+02</pdfrwt>
<pdfrwt beam="2">  1       -1 0.63726480E-01 0.13779951E+03</pdfrwt>
<totfact> 0.93804760E+02</totfact>
</mgrwt>
</event>
<event>
 7    1  0.3113530E-004  0.3039945E+02  0.7546771E-02  0.1628980E+00
         -3   -1    0    0    0  501 -0.00000000000E+00  0.00000000000E+00  0.24620062126E+02  0.24620062126E+02  0.00000000000E+00 0.  1.
          2   -1    0    0  503    0  0.00000000000E+00 -0.00000000000E+00 -0.16744554834E+04  0.16744554834E+04  0.00000000000E+00 0. -1.
         25    2    1    2    0    0 -0.41369822788E+02  0.34670566881E+02 -0.63849622892E+03  0.65285241146E+03  0.12500130542E+03 0.  0.
          4    1    3    3  502    0 -0.71451349018E+02 -0.44413092926E+01 -0.21772300550E+03  0.22919411103E+03  0.12700000000E+01 0.  1.
         -4    1    3    3    0  502  0.30081526230E+02  0.39111876174E+02 -0.42077322342E+03  0.42365830043E+03  0.12700000000E+01 0.  1.
          2    1    1    2  503    0  0.20565261288E+02 -0.21425801272E+02 -0.10197373171E+04  0.10201696872E+04  0.00000000000E+00 0. -1.
         -3    1    1    2    0  501  0.20804561500E+02 -0.13244765609E+02  0.83981246839E+01  0.26053446863E+02  0.00000000000E+00 0.  1.
<mgrwt>
<rscale>  0 0.27381298E+02</rscale>
<asrwt>0</asrwt>
<pdfrwt beam="2">  1        2 0.25760855E+00 0.30399449E+02</pdfrwt>
<pdfrwt beam="1">  1       -3 0.37877016E-02 0.24662798E+02</pdfrwt>
<totfact> 0.20352108E+03</totfact>
</mgrwt>
</event>
<event>
 7    1  0.3113530E-004  0.9398248E+02  0.7546771E-02  0.1461560E+00
          2   -1    0    0  503    0  0.00000000000E+00  0.00000000000E+00  0.60989258255E+03  0.60989258255E+03  0.00000000000E+00 0. -1.
         -1   -1    0    0    0  501 -0.00000000000E+00 -0.00000000000E+00 -0.33112713014E+02  0.33112713014E+02  0.00000000000E+00 0.  1.
         25    2    1    2    0    0  0.67275231745E+02  0.70429293904E+02  0.32070402245E+03  0.35772141868E+03  0.12500920417E+03 0.  0.
          4    1    3    3  502    0  0.42914364728E+02  0.35507769073E+02  0.30838596097E+03  0.31337829885E+03  0.12700000000E+01 0.  1.
         -4    1    3    3    0  502  0.24360867017E+02  0.34921524831E+02  0.12318061474E+02  0.44343119837E+02  0.12700000000E+01 0.  1.
          2    1    1    2  503    0 -0.46178444679E+02 -0.81048140920E+02  0.23773464417E+03  0.25538013027E+03  0.00000000000E+00 0. -1.
         -1    1    1    2    0  501 -0.21096787066E+02  0.10618847016E+02  0.18341202915E+02  0.29903746602E+02  0.00000000000E+00 0.  1.
<mgrwt>
<rscale>  0 0.47113976E+02</rscale>
<asrwt>0</asrwt>
<pdfrwt beam="1">  1        2 0.93829620E-01 0.93982477E+02</pdfrwt>
<pdfrwt beam="2">  1       -1 0.50942640E-02 0.23618517E+02</pdfrwt>
<totfact> 0.76772422E+03</totfact>
</mgrwt>
</event>
<event>
 7    1  0.3113530E-004  0.1107492E+03  0.7546771E-02  0.1293150E+00
          2   -1    0    0  502    0  0.00000000000E+00  0.00000000000E+00  0.61601316443E+03  0.61601316443E+03  0.00000000000E+00 0. -1.
          1   -1    0    0  503    0 -0.00000000000E+00 -0.00000000000E+00 -0.12472492953E+04  0.12472492953E+04  0.00000000000E+00 0. -1.
         25    2    1    2    0    0 -0.11991658336E+03 -0.14354055678E+03  0.24427379603E+03  0.33208190045E+03  0.12499929108E+03 0.  0.
          4    1    3    3  501    0 -0.11917386561E+03 -0.14043468164E+03  0.14944632368E+03  0.23719217233E+03  0.12700000000E+01 0.  1.
         -4    1    3    3    0  501 -0.74271775395E+00 -0.31058751345E+01  0.94827472350E+02  0.94889728118E+02  0.12700000000E+01 0.  1.
          2    1    1    2  502    0  0.37284087046E+02  0.70783593464E+02  0.32038788597E+03  0.33022540442E+03  0.00000000000E+00 0. -1.
          1    1    1    2  503    0  0.82632496318E+02  0.72756963312E+02 -0.11958978129E+04  0.12009551549E+04  0.00000000000E+00 0. -1.
<mgrwt>
<rscale>  0 0.94128768E+02</rscale>
<asrwt>0</asrwt>
<pdfrwt beam="1">  1        2 0.94771258E-01 0.80002627E+02</pdfrwt>
<pdfrwt beam="2">  1        1 0.19188450E+00 0.11074917E+03</pdfrwt>
<totfact> 0.78660683E+01</totfact>
</mgrwt>
</event>
<event>
 7    1  0.3113530E-004  0.7355629E+02  0.7546771E-02  0.1357708E+00
          2   -1    0    0  502    0  0.00000000000E+00  0.00000000000E+00  0.80004373063E+03  0.80004373063E+03  0.00000000000E+00 0.  1.
          3   -1    0    0  503    0 -0.00000000000E+00 -0.00000000000E+00 -0.68460581379E+02  0.68460581379E+02  0.00000000000E+00 0. -1.
         25    2    1    2    0    0 -0.26289349059E+02  0.82957891382E+02  0.40634291458E+03  0.43395305984E+03  0.12501020880E+03 0.  0.
          4    1    3    3  501    0 -0.28693330512E+02 -0.25587878881E+02  0.62648815513E+02  0.73515534050E+02  0.12700000000E+01 0.  1.
         -4    1    3    3    0  501  0.24039814525E+01  0.10854577026E+03  0.34369409906E+03  0.36043752579E+03  0.12700000000E+01 0.  1.
          2    1    1    2  502    0 -0.42084966976E+02 -0.53369623802E+02  0.34961751914E+03  0.35616270281E+03  0.00000000000E+00 0.  1.
          3    1    1    2  503    0  0.68374316035E+02 -0.29588267580E+02 -0.24377284460E+02  0.78388549351E+02  0.00000000000E+00 0. -1.
<mgrwt>
<rscale>  0 0.70706239E+02</rscale>
<asrwt>0</asrwt>
<pdfrwt beam="1">  1        2 0.12308364E+00 0.67966618E+02</pdfrwt>
<pdfrwt beam="2">  1        3 0.10532398E-01 0.73556289E+02</pdfrwt>
<totfact> 0.13970350E+03</totfact>
</mgrwt>
</event>
<event>
 7    1  0.3113530E-004  0.3779239E+02  0.7546771E-02  0.1622700E+00
         -1   -1    0    0    0  501 -0.00000000000E+00  0.00000000000E+00  0.89523233742E+01  0.89523233742E+01  0.00000000000E+00 0.  1.
          2   -1    0    0  503    0  0.00000000000E+00 -0.00000000000E+00 -0.13218184225E+04  0.13218184225E+04  0.00000000000E+00 0. -1.
         25    2    1    2    0    0  0.18170029733E+02  0.62972526122E+01 -0.60099139017E+03  0.61415389251E+03  0.12499818900E+03 0.  0.
          4    1    3    3  502    0  0.25492917987E+02  0.12138164665E+02 -0.60366818909E+03  0.60432947912E+03  0.12700000000E+01 0. -1.
         -4    1    3    3    0  502 -0.73228882545E+01 -0.58409120526E+01  0.26767989224E+01  0.98244133904E+01  0.12700000000E+01 0. -1.
          2    1    1    2  503    0 -0.35291410858E+02 -0.17710830698E+02 -0.65403640490E+03  0.65522727060E+03  0.00000000000E+00 0. -1.
         -1    1    1    2    0  501  0.17121381125E+02  0.11413578086E+02 -0.57838304102E+02  0.61389582811E+02  0.00000000000E+00 0.  1.
<mgrwt>
<rscale>  0 0.27886423E+02</rscale>
<asrwt>0</asrwt>
<pdfrwt beam="2">  1        2 0.20335672E+00 0.37792388E+02</pdfrwt>
<pdfrwt beam="1">  1       -1 0.13772802E-02 0.20576964E+02</pdfrwt>
<totfact> 0.17451896E+04</totfact>
</mgrwt>
</event>
<event>
 7    1  0.3113530E-004  0.8160781E+02  0.7546771E-02  0.1398581E+00
          2   -1    0    0  503    0  0.00000000000E+00  0.00000000000E+00  0.87047227362E+03  0.87047227362E+03  0.00000000000E+00 0. -1.
         -2   -1    0    0    0  501 -0.00000000000E+00 -0.00000000000E+00 -0.41055457960E+03  0.41055457960E+03  0.00000000000E+00 0. -1.
         25    2    1    2    0    0 -0.10789253046E+02 -0.93686528717E+02  0.43736490519E+03  0.46454993445E+03  0.12500003063E+03 0.  0.
          4    1    3    3  502    0  0.48313086753E+02 -0.73410631599E+02  0.31658327738E+03  0.32855723946E+03  0.12700000000E+01 0. -1.
         -4    1    3    3    0  502 -0.59102339800E+02 -0.20275897117E+02  0.12078162782E+03  0.13599269499E+03  0.12700000000E+01 0. -1.
          2    1    1    2  503    0  0.40176492272E+02  0.17573707103E+02  0.41415271120E+03  0.41646783058E+03  0.00000000000E+00 0. -1.
         -2    1    1    2    0  501 -0.29387239225E+02  0.76112821613E+02 -0.39159992237E+03  0.40000908820E+03  0.00000000000E+00 0. -1.
<mgrwt>
<rscale>  0 0.59821855E+02</rscale>
<asrwt>0</asrwt>
<pdfrwt beam="1">  1        2 0.13391881E+00 0.43851861E+02</pdfrwt>
<pdfrwt beam="2">  1       -2 0.63162243E-01 0.81607809E+02</pdfrwt>
<totfact> 0.83603761E+01</totfact>
</mgrwt>
</event>
<event>
 7    1  0.3113530E-004  0.1598274E+03  0.7546771E-02  0.1249681E+00
          2   -1    0    0  503    0  0.00000000000E+00  0.00000000000E+00  0.16031391799E+04  0.16031391799E+04  0.00000000000E+00 0. -1.
          2   -1    0    0  502    0 -0.00000000000E+00 -0.00000000000E+00 -0.11678652754E+04  0.11678652754E+04  0.00000000000E+00 0.  1.
         25    2    1    2    0    0 -0.84394973186E+02 -0.13251037388E+03 -0.12013630617E+03  0.23396724902E+03  0.12500572335E+03 0.  0.
          4    1    3    3  501    0 -0.92792372194E+02 -0.36574480244E+02 -0.35888137339E+02  0.10600796312E+03  0.12700000000E+01 0.  1.
         -4    1    3    3    0  501  0.83973990081E+01 -0.95935893640E+02 -0.84248168830E+02  0.12795928591E+03  0.12700000000E+01 0.  1.
          2    1    1    2  502    0  0.55251150119E+01  0.16236094080E+03 -0.98299185514E+03  0.99632554382E+03  0.00000000000E+00 0.  1.
          2    1    1    2  503    0  0.78869858174E+02 -0.29850566920E+02  0.15384020658E+04  0.15407116625E+04  0.00000000000E+00 0. -1.
<mgrwt>
<rscale>  0 0.11609570E+03</rscale>
<asrwt>0</asrwt>
<pdfrwt beam="1">  1        2 0.24663680E+00 0.84329775E+02</pdfrwt>
<pdfrwt beam="2">  1        2 0.17967158E+00 0.15982744E+03</pdfrwt>
<totfact> 0.44723369E+01</totfact>
</mgrwt>
</event>
<event>
 7    1  0.3113530E-004  0.3159010E+02  0.7546771E-02  0.1610865E+00
         -1   -1    0    0    0  501 -0.00000000000E+00  0.00000000000E+00  0.82896322736E+03  0.82896322736E+03  0.00000000000E+00 0.  1.
          2   -1    0    0  503    0  0.00000000000E+00 -0.00000000000E+00 -0.16804327005E+02  0.16804327005E+02  0.00000000000E+00 0. -1.
         25    2    1    2    0    0  0.17022912907E+02 -0.51797509231E+02  0.42499824404E+03  0.44633713259E+03  0.12498226660E+03 0.  0.
          4    1    3    3  502    0  0.51510515285E+01 -0.56364731644E+02  0.65352686916E+02  0.86464460284E+02  0.12700000000E+01 0. -1.
         -4    1    3    3    0  502  0.11871861378E+02  0.45672224130E+01  0.35964555713E+03  0.35987267231E+03  0.12700000000E+01 0. -1.
          2    1    1    2  503    0 -0.29013220451E+01  0.29499434311E+02  0.33279419758E+02  0.44566288534E+02  0.00000000000E+00 0. -1.
         -1    1    1    2    0  501 -0.14121590862E+02  0.22298074920E+02  0.35388123656E+03  0.35486413324E+03  0.00000000000E+00 0.  1.
<mgrwt>
<rscale>  0 0.28875200E+02</rscale>
<asrwt>0</asrwt>
<pdfrwt beam="2">  1        2 0.25852817E-02 0.31590096E+02</pdfrwt>
<pdfrwt beam="1">  1       -1 0.12753277E+00 0.26393626E+02</pdfrwt>
<totfact> 0.21964401E+03</totfact>
</mgrwt>
</event>
<event>
 7    1  0.3113530E-004  0.5469565E+02  0.7546771E-02  0.1490290E+00
          1   -1    0    0  502    0  0.00000000000E+00  0.00000000000E+00  0.41265978584E+03  0.41265978584E+03  0.00000000000E+00 0. -1.
          3   -1    0    0  503    0 -0.00000000000E+00 -0.00000000000E+00 -0.25702253874E+03  0.25702253874E+03  0.00000000000E+00 0. -1.
         25    2    1    2    0    0  0.83448032052E+02  0.12541764800E+02  0.16880076074E+03  0.22636245370E+03  0.12500157480E+03 0.  0.
          4    1    3    3  501    0  0.22803813644E+02 -0.45573367638E+02  0.11712279329E+03  0.12773530194E+03  0.12700000000E+01 0.  1.
         -4    1    3    3    0  501  0.60644218408E+02  0.58115132438E+02  0.51677967458E+02  0.98627151765E+02  0.12700000000E+01 0.  1.
          1    1    1    2  502    0 -0.51290258670E+02 -0.47399461680E+01  0.21076080064E+03  0.21696375921E+03  0.00000000000E+00 0. -1.
          3    1    1    2  503    0 -0.32157773383E+02 -0.78018186323E+01 -0.22392431428E+03  0.22635611167E+03  0.00000000000E+00 0. -1.
<mgrwt>
<rscale>  0 0.42543090E+02</rscale>
<asrwt>0</asrwt>
<pdfrwt beam="1">  1        1 0.63486121E-01 0.54695655E+02</pdfrwt>
<pdfrwt beam="2">  1        3 0.39541929E-01 0.33090645E+02</pdfrwt>
<totfact> 0.18060485E+02</totfact>
</mgrwt>
</event>
<event>
 7    1  0.3113530E-004  0.1083123E+03  0.7546771E-02  0.1310376E+00
         -3   -1    0    0    0  501 -0.00000000000E+00  0.00000000000E+00  0.10432621507E+04  0.10432621507E+04  0.00000000000E+00 0.  1.
          2   -1    0    0  503    0  0.00000000000E+00 -0.00000000000E+00 -0.10560026165E+04  0.10560026165E+04  0.00000000000E+00 0.  1.
         25    2    1    2    0    0 -0.15601252449E+03 -0.35213921250E+00 -0.39226515210E+03  0.44026911742E+03  0.12499965763E+03 0.  0.
          4    1    3    3  502    0 -0.83797582740E+02 -0.60103324177E+02 -0.24342881590E+03  0.26437406409E+03  0.12700000000E+01 0.  1.
         -4    1    3    3    0  502 -0.72214941749E+02  0.59751184965E+02 -0.14883633619E+03  0.17589505334E+03  0.12700000000E+01 0.  1.
          2    1    1    2  503    0  0.95510587567E+02 -0.34500953993E+02 -0.63449735386E+03  0.64257254860E+03  0.00000000000E+00 0.  1.
         -3    1    1    2    0  501  0.60501936923E+02  0.34853093206E+02  0.10140220402E+04  0.10164231012E+04  0.00000000000E+00 0.  1.
<mgrwt>
<rscale>  0 0.86963612E+02</rscale>
<asrwt>0</asrwt>
<pdfrwt beam="2">  1        2 0.16246194E+00 0.10831234E+03</pdfrwt>
<pdfrwt beam="1">  1       -3 0.16050187E+00 0.69822793E+02</pdfrwt>
<totfact> 0.46238229E+00</totfact>
</mgrwt>
</event>
<event>
 7    1  0.3113530E-004  0.5168892E+02  0.7546771E-02  0.1448564E+00
          2   -1    0    0  502    0  0.00000000000E+00  0.00000000000E+00  0.29411945176E+04  0.29411945176E+04  0.00000000000E+00 0. -1.
          3   -1    0    0  503    0 -0.00000000000E+00 -0.00000000000E+00 -0.11531696330E+03  0.11531696330E+03  0.00000000000E+00 0. -1.
         25    2    1    2    0    0 -0.43053683399E+02 -0.88191805042E+02  0.22003488944E+03  0.27142623976E+03  0.12500174770E+03 0.  0.
          4    1    3    3  501    0 -0.35121526598E+02 -0.10822466783E+03  0.22229431223E+03  0.24972479754E+03  0.12700000000E+01 0.  1.
         -4    1    3    3    0  501 -0.79321568004E+01  0.20032862785E+02 -0.22594227912E+01  0.21701442215E+02  0.12700000000E+01 0.  1.
          2    1    1    2  502    0  0.18756763012E+02  0.47694732580E+02  0.26889811715E+04  0.26894695284E+04  0.00000000000E+00 0. -1.
          3    1    1    2  503    0  0.24296920386E+02  0.40497072462E+02 -0.83138506678E+02  0.95615712678E+02  0.00000000000E+00 0. -1.
<mgrwt>
<rscale>  0 0.49407416E+02</rscale>
<asrwt>0</asrwt>
<pdfrwt beam="1">  1        2 0.45249141E+00 0.51688920E+02</pdfrwt>
<pdfrwt beam="2">  1        3 0.17741073E-01 0.47226616E+02</pdfrwt>
<totfact> 0.43555611E+01</totfact>
</mgrwt>
</event>
<event>
 7    1  0.3113530E-004  0.7700187E+02  0.7546771E-02  0.1378838E+00
         -3   -1    0    0    0  502 -0.00000000000E+00  0.00000000000E+00  0.82048431983E+03  0.82048431983E+03  0.00000000000E+00 0. -1.
         -1   -1    0    0    0  501  0.00000000000E+00 -0.00000000000E+00 -0.25091645878E+03  0.25091645878E+03  0.00000000000E+00 0.  1.
         25    2    1    2    0    0 -0.92753931288E+02  0.87118927878E+02  0.16880546655E+03  0.24558680766E+03  0.12499838078E+03 0.  0.
          4    1    3    3  503    0  0.30315943449E+02  0.28013954030E+02  0.47586987462E+02  0.63007716379E+02  0.12700000000E+01 0.  1.
         -4    1    3    3    0  503 -0.12306987474E+03  0.59104973848E+02  0.12121847908E+03  0.18257909128E+03  0.12700000000E+01 0.  1.
         -1    1    1    2    0  501  0.32895852286E+02 -0.43429399821E+02 -0.20674515279E+03  0.21380319939E+03  0.00000000000E+00 0.  1.
         -3    1    1    2    0  502  0.59858079002E+02 -0.43689528057E+02  0.60750754730E+03  0.61201077156E+03  0.00000000000E+00 0. -1.
<mgrwt>
<rscale>  0 0.64770276E+02</rscale>
<asrwt>0</asrwt>
<pdfrwt beam="2">  1       -1 0.38602533E-01 0.54481647E+02</pdfrwt>
<pdfrwt beam="1">  1       -3 0.12622836E+00 0.77001869E+02</pdfrwt>
<totfact> 0.15552533E+01</totfact>
</mgrwt>
</event>
<event>
 7    1  0.3113530E-004  0.8905858E+02  0.7546771E-02  0.1322321E+00
          2   -1    0    0  502    0  0.00000000000E+00  0.00000000000E+00  0.38510539726E+03  0.38510539726E+03  0.00000000000E+00 0. -1.
          1   -1    0    0  503    0 -0.00000000000E+00 -0.00000000000E+00 -0.30827758896E+04  0.30827758896E+04  0.00000000000E+00 0. -1.
         25    2    1    2    0    0  0.20984348278E+02  0.46628380870E+02  0.10505296343E+03  0.17108146845E+03  0.12497277682E+03 0.  0.
          4    1    3    3  501    0 -0.29359406275E+02 -0.26351380094E+02  0.92458954963E+01  0.40539726851E+02  0.12700000000E+01 0. -1.
         -4    1    3    3    0  501  0.50343754553E+02  0.72979760963E+02  0.95807067937E+02  0.13054174160E+03  0.12700000000E+01 0. -1.
          2    1    1    2  502    0 -0.97161250408E+02 -0.42739471084E+02  0.23513526950E+03  0.25798365439E+03  0.00000000000E+00 0. -1.
          1    1    1    2  503    0  0.76176902130E+02 -0.38889097857E+01 -0.30378587253E+04  0.30388161640E+04  0.00000000000E+00 0. -1.
<mgrwt>
<rscale>  0 0.82419908E+02</rscale>
<asrwt>0</asrwt>
<pdfrwt beam="1">  1        2 0.59246982E-01 0.89058576E+02</pdfrwt>
<pdfrwt beam="2">  1        1 0.47427323E+00 0.76276104E+02</pdfrwt>
<totfact> 0.89776861E+00</totfact>
</mgrwt>
</event>
<event>
 7    1  0.3113530E-004  0.1194812E+03  0.7546771E-02  0.1408110E+00
          2   -1    0    0  503    0  0.00000000000E+00  0.00000000000E+00  0.23567979328E+04  0.23567979328E+04  0.00000000000E+00 0. -1.
         -2   -1    0    0    0  501 -0.00000000000E+00 -0.00000000000E+00 -0.96964634051E+02  0.96964634051E+02  0.00000000000E+00 0.  1.
         25    2    1    2    0    0  0.14902751708E+01  0.10442646001E+03  0.16826754471E+03  0.23419507511E+03  0.12500504043E+03 0.  0.
          4    1    3    3  502    0 -0.48315898389E+02  0.18431453993E+02  0.10310239786E+03  0.11535103761E+03  0.12700000000E+01 0. -1.
         -4    1    3    3    0  502  0.49806173560E+02  0.85995006019E+02  0.65165146844E+02  0.11884403749E+03  0.12700000000E+01 0. -1.
          2    1    1    2  503    0  0.22637082777E+02 -0.11820636344E+03  0.21507871764E+04  0.21541519584E+04  0.00000000000E+00 0. -1.
         -2    1    1    2    0  501 -0.24127357948E+02  0.13779903428E+02 -0.59221422324E+02  0.65415533339E+02  0.00000000000E+00 0.  1.
<mgrwt>
<rscale>  0 0.57617751E+02</rscale>
<asrwt>0</asrwt>
<pdfrwt beam="1">  1        2 0.36258425E+00 0.11948123E+03</pdfrwt>
<pdfrwt beam="2">  1       -2 0.14917638E-01 0.27785160E+02</pdfrwt>
<totfact> 0.16236588E+02</totfact>
</mgrwt>
</event>
<event>
 7    1  0.3113530E-004  0.3586404E+02  0.7546771E-02  0.1618644E+00
         -3   -1    0    0    0  501 -0.00000000000E+00  0.00000000000E+00  0.13002983800E+03  0.13002983800E+03  0.00000000000E+00 0.  1.
          2   -1    0    0  503    0  0.00000000000E+00 -0.00000000000E+00 -0.99250781789E+03  0.99250781789E+03  0.00000000000E+00 0. -1.
         25    2    1    2    0    0  0.51845435682E+02 -0.61613898535E+00 -0.47731490611E+03  0.49612795051E+03  0.12500037941E+03 0.  0.
          4    1    3    3  502    0  0.47956200782E+02 -0.20399143272E+01 -0.48496511710E+03  0.48733636859E+03  0.12700000000E+01 0. -1.
         -4    1    3    3    0  502  0.38892349003E+01  0.14237753419E+01  0.76502109954E+01  0.87915819172E+01  0.12700000000E+01 0. -1.
          2    1    1    2  503    0 -0.33126067285E+02 -0.11326934941E+02 -0.50415229803E+03  0.50536637739E+03  0.00000000000E+00 0. -1.
         -3    1    1    2    0  501 -0.18719368398E+02  0.11943073927E+02  0.11898922424E+03  0.12104332800E+03  0.00000000000E+00 0.  1.
<mgrwt>
<rscale>  0 0.28219721E+02</rscale>
<asrwt>0</asrwt>
<pdfrwt beam="2">  1        2 0.15269351E+00 0.35864036E+02</pdfrwt>
<pdfrwt beam="1">  1       -3 0.20004590E-01 0.22204769E+02</pdfrwt>
<totfact> 0.31965982E+02</totfact>
</mgrwt>
</event>
<event>
 7    1  0.3113530E-004  0.9503195E+02  0.7546771E-02  0.1293307E+00
          2   -1    0    0  502    0  0.00000000000E+00  0.00000000000E+00  0.86736549401E+03  0.86736549401E+03  0.00000000000E+00 0. -1.
          2   -1    0    0  503    0 -0.00000000000E+00 -0.00000000000E+00 -0.89401502810E+03  0.89401502810E+03  0.00000000000E+00 0.  1.
         25    2    1    2    0    0  0.54681331122E+02  0.56868957274E+02 -0.38303232536E+03  0.41056336421E+03  0.12499754994E+03 0.  0.
          4    1    3    3  501    0  0.28158609825E+02  0.73508740424E+02 -0.36702850027E+03  0.37537711057E+03  0.12700000000E+01 0.  1.
         -4    1    3    3    0  501  0.26522721297E+02 -0.16639783150E+02 -0.16003825086E+02  0.35186253647E+02  0.12700000000E+01 0.  1.
          2    1    1    2  502    0 -0.90966434251E+02  0.28867328770E+02  0.84653707968E+03  0.85189978408E+03  0.00000000000E+00 0. -1.
          2    1    1    2  503    0  0.36285103129E+02 -0.85736286044E+02 -0.49015428841E+03  0.49891737382E+03  0.00000000000E+00 0.  1.
<mgrwt>
<rscale>  0 0.94060225E+02</rscale>
<asrwt>0</asrwt>
<pdfrwt beam="1">  1        2 0.13344085E+00 0.95031947E+02</pdfrwt>
<pdfrwt beam="2">  1        2 0.13754077E+00 0.93098440E+02</pdfrwt>
<totfact> 0.16710240E+02</totfact>
</mgrwt>
</event>
<event>
 7    1  0.3113530E-004  0.8236276E+02  0.7546771E-02  0.1436442E+00
         -2   -1    0    0    0  501 -0.00000000000E+00  0.00000000000E+00  0.28704301863E+03  0.28704301863E+03  0.00000000000E+00 0.  1.
          2   -1    0    0  503    0  0.00000000000E+00 -0.00000000000E+00 -0.19988631604E+04  0.19988631604E+04  0.00000000000E+00 0.  1.
         25    2    1    2    0    0  0.77595931470E+02  0.22190601474E+02 -0.10238876187E+03  0.18061832692E+03  0.12500388029E+03 0.  0.
          4    1    3    3  502    0  0.36018652033E+01 -0.17476445213E+02 -0.94617730582E+02  0.96293963522E+02  0.12700000000E+01 0.  1.
         -4    1    3    3    0  502  0.73994066266E+02  0.39667046687E+02 -0.77710312925E+01  0.84324363400E+02  0.12700000000E+01 0.  1.
          2    1    1    2  503    0 -0.81945024555E+02  0.99546466125E+01 -0.18553769503E+04  0.18572123492E+04  0.00000000000E+00 0.  1.
         -2    1    1    2    0  501  0.43490930848E+01 -0.32145248086E+02  0.24594557039E+03  0.24807550299E+03  0.00000000000E+00 0.  1.
<mgrwt>
<rscale>  0 0.51688423E+02</rscale>
<asrwt>0</asrwt>
<pdfrwt beam="2">  1        2 0.30751739E+00 0.82362761E+02</pdfrwt>
<pdfrwt beam="1">  1       -2 0.44160467E-01 0.32438119E+02</pdfrwt>
<totfact> 0.41322206E+01</totfact>
</mgrwt>
</event>
<event>
 7    1  0.3113530E-004  0.8336487E+02  0.7546771E-02  0.1344416E+00
          2   -1    0    0  502    0  0.00000000000E+00  0.00000000000E+00  0.40000063117E+03  0.40000063117E+03  0.00000000000E+00 0. -1.
          2   -1    0    0  503    0 -0.00000000000E+00 -0.00000000000E+00 -0.65907231513E+03  0.65907231513E+03  0.00000000000E+00 0. -1.
         25    2    1    2    0    0 -0.62643933400E+02  0.11621139847E+03  0.10844579857E+03  0.21169803652E+03  0.12500486355E+03 0.  0.
          4    1    3    3  501    0 -0.82382105860E+02  0.94988982485E+02  0.12582075831E+03  0.17788252944E+03  0.12700000000E+01 0. -1.
         -4    1    3    3    0  501  0.19738172460E+02  0.21222415987E+02 -0.17374959745E+02  0.33815507072E+02  0.12700000000E+01 0. -1.
          2    1    1    2  502    0  0.74043613970E+01 -0.78016360785E+02  0.23160294793E+03  0.24450215256E+03  0.00000000000E+00 0. -1.
          2    1    1    2  503    0  0.55239572003E+02 -0.38195037688E+02 -0.59912043045E+03  0.60287275722E+03  0.00000000000E+00 0. -1.
<mgrwt>
<rscale>  0 0.74824221E+02</rscale>
<asrwt>0</asrwt>
<pdfrwt beam="1">  1        2 0.61538559E-01 0.83364870E+02</pdfrwt>
<pdfrwt beam="2">  1        2 0.10139574E+00 0.67158553E+02</pdfrwt>
<totfact> 0.58484025E+02</totfact>
</mgrwt>
</event>
<event>
 7    1  0.3113530E-004  0.1127754E+03  0.7546771E-02  0.1367252E+00
          2   -1    0    0  502    0  0.00000000000E+00  0.00000000000E+00  0.71658070937E+03  0.71658070937E+03  0.00000000000E+00 0. -1.
          2   -1    0    0  503    0 -0.00000000000E+00 -0.00000000000E+00 -0.13765828702E+04  0.13765828702E+04  0.00000000000E+00 0. -1.
         25    2    1    2    0    0  0.43409052933E+02 -0.88384328586E+02 -0.13841211492E+03  0.21090009729E+03  0.12499920826E+03 0.  0.
          4    1    3    3  501    0 -0.21520994383E+02 -0.91493138345E+02 -0.77947665845E+02  0.12211305857E+03  0.12700000000E+01 0. -1.
         -4    1    3    3    0  501  0.64930047316E+02  0.31088097597E+01 -0.60464449073E+02  0.88787038718E+02  0.12700000000E+01 0. -1.
          2    1    1    2  502    0 -0.82822238921E+02  0.77360060733E+02  0.67526477191E+03  0.68470914587E+03  0.00000000000E+00 0. -1.
          2    1    1    2  503    0  0.39413185988E+02  0.11024267852E+02 -0.11968548178E+04  0.11975543364E+04  0.00000000000E+00 0. -1.
<mgrwt>
<rscale>  0 0.67937046E+02</rscale>
<asrwt>0</asrwt>
<pdfrwt beam="1">  1        2 0.11024319E+00 0.11277543E+03</pdfrwt>
<pdfrwt beam="2">  1        2 0.21178198E+00 0.40925954E+02</pdfrwt>
<totfact> 0.11991468E+02</totfact>
</mgrwt>
</event>
<event>
 7    1  0.3113530E-004  0.1160735E+03  0.7546771E-02  0.1357084E+00
         -2   -1    0    0    0  501 -0.00000000000E+00  0.00000000000E+00  0.10801174805E+03  0.10801174805E+03  0.00000000000E+00 0.  1.
          2   -1    0    0  503    0  0.00000000000E+00 -0.00000000000E+00 -0.38763229429E+03  0.38763229429E+03  0.00000000000E+00 0. -1.
         25    2    1    2    0    0 -0.73870196796E+02  0.56011419053E+02 -0.28104244988E+02  0.15814096581E+03  0.12499852575E+03 0.  0.
          4    1    3    3  502    0 -0.48978465226E+01  0.55805944596E+02  0.33811666150E+02  0.65445657004E+02  0.12700000000E+01 0.  1.
         -4    1    3    3    0  502 -0.68972350273E+02  0.20547445667E+00 -0.61915911138E+02  0.92695308803E+02  0.12700000000E+01 0.  1.
          2    1    1    2  503    0  0.70367367843E+02 -0.99167360096E+02 -0.26548567273E+03  0.29200748995E+03  0.00000000000E+00 0. -1.
         -2    1    1    2    0  501  0.35028289525E+01  0.43155941044E+02  0.13969371476E+02  0.45495586571E+02  0.00000000000E+00 0.  1.
<mgrwt>
<rscale>  0 0.70892408E+02</rscale>
<asrwt>0</asrwt>
<pdfrwt beam="2">  1        2 0.59635737E-01 0.11607347E+03</pdfrwt>
<pdfrwt beam="1">  1       -2 0.16617192E-01 0.43297864E+02</pdfrwt>
<totfact> 0.21967943E+03</totfact>
</mgrwt>
</event>
<event>
 7    1  0.3113530E-004  0.7697878E+02  0.7546771E-02  0.1479407E+00
          1   -1    0    0  503    0  0.00000000000E+00  0.00000000000E+00  0.44531554141E+03  0.44531554141E+03  0.00000000000E+00 0. -1.
          1   -1    0    0  502    0 -0.00000000000E+00 -0.00000000000E+00 -0.24140866162E+03  0.24140866162E+03  0.00000000000E+00 0. -1.
         25    2    1    2    0    0 -0.42393334342E+02  0.70373354973E+02 -0.92658186000E+02  0.17595428634E+03  0.12499907025E+03 0.  0.
          4    1    3    3  501    0  0.10440172455E+02  0.40773219044E+02  0.21081656784E+02  0.47090357239E+02  0.12700000000E+01 0.  1.
         -4    1    3    3    0  501 -0.52833506796E+02  0.29600135929E+02 -0.11373984278E+03  0.12886392910E+03  0.12700000000E+01 0.  1.
          1    1    1    2  502    0  0.57555420662E+02 -0.50023226235E+02 -0.93063784673E+02  0.12031549205E+03  0.00000000000E+00 0. -1.
          1    1    1    2  503    0 -0.15162086320E+02 -0.20350128738E+02  0.38962885047E+03  0.39045442464E+03  0.00000000000E+00 0. -1.
<mgrwt>
<rscale>  0 0.44198729E+02</rscale>
<asrwt>0</asrwt>
<pdfrwt beam="1">  1        1 0.68510083E-01 0.25377482E+02</pdfrwt>
<pdfrwt beam="2">  1        1 0.37139794E-01 0.76978782E+02</pdfrwt>
<totfact> 0.74886249E+02</totfact>
</mgrwt>
</event>
<event>
 7    1  0.3113530E-004  0.3684976E+02  0.7546771E-02  0.1588852E+00
          2   -1    0    0  502    0  0.00000000000E+00  0.00000000000E+00  0.43089218229E+03  0.43089218229E+03  0.00000000000E+00 0. -1.
          1   -1    0    0  503    0 -0.00000000000E+00 -0.00000000000E+00 -0.18905604588E+03  0.18905604588E+03  0.00000000000E+00 0. -1.
         25    2    1    2    0    0 -0.34761449752E+02  0.40038869394E+02  0.24407005145E+03  0.27930036198E+03  0.12500813067E+03 0.  0.
          4    1    3    3  501    0 -0.38601140349E+02  0.79727336190E+02  0.12126288566E+03  0.15017588525E+03  0.12700000000E+01 0.  1.
         -4    1    3    3    0  501  0.38396905978E+01 -0.39688466796E+02  0.12280716579E+03  0.12912447673E+03  0.12700000000E+01 0.  1.
          2    1    1    2  502    0  0.25441445079E+02 -0.44713856930E+01  0.16622649168E+03  0.16822160074E+03  0.00000000000E+00 0. -1.
          1    1    1    2  503    0  0.93200046725E+01 -0.35567483701E+02 -0.16846040673E+03  0.17242626546E+03  0.00000000000E+00 0. -1.
<mgrwt>
<rscale>  0 0.30852557E+02</rscale>
<asrwt>0</asrwt>
<pdfrwt beam="1">  1        2 0.66291105E-01 0.25831384E+02</pdfrwt>
<pdfrwt beam="2">  1        1 0.29085546E-01 0.36849758E+02</pdfrwt>
<totfact> 0.15317736E+03</totfact>
</mgrwt>
</event>
<event>
 7    1  0.3113530E-004  0.9771759E+02  0.7546771E-02  0.1297726E+00
          3   -1    0    0  503    0 -0.00000000000E+00  0.00000000000E+00  0.25065581900E+03  0.25065581900E+03  0.00000000000E+00 0. -1.
          2   -1    0    0  502    0  0.00000000000E+00 -0.00000000000E+00 -0.99537800848E+03  0.99537800848E+03  0.00000000000E+00 0. -1.
         25    2    1    2    0    0  0.33323286404E+02  0.19382716862E+02 -0.14240325209E+02  0.13158144711E+03  0.12499903693E+03 0.  0.
          4    1    3    3  501    0  0.17884245306E+02 -0.30707796990E+02  0.41772748665E+02  0.54857911527E+02  0.12700000000E+01 0.  1.
         -4    1    3    3    0  501  0.15439041098E+02  0.50090513852E+02 -0.56013073873E+02  0.76723535585E+02  0.12700000000E+01 0.  1.
          2    1    1    2  502    0 -0.90202980626E+02  0.46316687045E+02 -0.90966999705E+03  0.91530394774E+03  0.00000000000E+00 0. -1.
          3    1    1    2  503    0  0.56879694222E+02 -0.65699403908E+02  0.17918813278E+03  0.19914843263E+03  0.00000000000E+00 0. -1.
<mgrwt>
<rscale>  0 0.92150506E+02</rscale>
<asrwt>0</asrwt>
<pdfrwt beam="2">  1        2 0.15313508E+00 0.97717593E+02</pdfrwt>
<pdfrwt beam="1">  1        3 0.38562433E-01 0.86900583E+02</pdfrwt>
<totfact> 0.10939949E+02</totfact>
</mgrwt>
</event>
<event>
 7    1  0.3113530E-004  0.2155065E+03  0.7546771E-02  0.1241772E+00
          2   -1    0    0  502    0  0.00000000000E+00  0.00000000000E+00  0.17219499157E+04  0.17219499157E+04  0.00000000000E+00 0. -1.
          2   -1    0    0  503    0 -0.00000000000E+00 -0.00000000000E+00 -0.21416899763E+04  0.21416899763E+04  0.00000000000E+00 0. -1.
         25    2    1    2    0    0  0.89046434885E+00 -0.23658171112E+03  0.60659916240E+02  0.27435910706E+03  0.12498638017E+03 0.  0.
          4    1    3    3  501    0  0.30072654918E+02 -0.27359023190E+02  0.47731585502E+02  0.62712023395E+02  0.12700000000E+01 0. -1.
         -4    1    3    3    0  501 -0.29182190569E+02 -0.20922268793E+03  0.12928330738E+02  0.21164708367E+03  0.12700000000E+01 0. -1.
          2    1    1    2  502    0 -0.61188731290E+02  0.20575575325E+03  0.15464612517E+04  0.15612885363E+04  0.00000000000E+00 0. -1.
          2    1    1    2  503    0  0.60298266942E+02  0.30825957870E+02 -0.20268612286E+04  0.20279922486E+04  0.00000000000E+00 0. -1.
<mgrwt>
<rscale>  0 0.12080686E+03</rscale>
<asrwt>0</asrwt>
<pdfrwt beam="1">  1        2 0.26491537E+00 0.21550654E+03</pdfrwt>
<pdfrwt beam="2">  1        2 0.32949076E+00 0.67720903E+02</pdfrwt>
<totfact> 0.12189579E+01</totfact>
</mgrwt>
</event>
<event>
 7    1  0.3113530E-004  0.9644398E+02  0.7546771E-02  0.1426923E+00
          1   -1    0    0  503    0  0.00000000000E+00  0.00000000000E+00  0.25287720358E+03  0.25287720358E+03  0.00000000000E+00 0. -1.
         -2   -1    0    0    0  501 -0.00000000000E+00 -0.00000000000E+00 -0.31796158593E+03  0.31796158593E+03  0.00000000000E+00 0.  1.
         25    2    1    2    0    0  0.66590837402E+02 -0.48137952257E+02 -0.46187585595E+02  0.15655575566E+03  0.12499923797E+03 0.  0.
          4    1    3    3  502    0  0.60602010222E+02  0.29972584933E+02 -0.44128533231E+01  0.67764634323E+02  0.12700000000E+01 0.  1.
         -4    1    3    3    0  502  0.59888271805E+01 -0.78110537190E+02 -0.41774732272E+02  0.88791121333E+02  0.12700000000E+01 0.  1.
          1    1    1    2  503    0  0.26895358013E+02  0.12761818312E+02  0.18490651428E+03  0.18728759519E+03  0.00000000000E+00 0. -1.
         -2    1    1    2    0  501 -0.93486195416E+02  0.35376133945E+02 -0.20380331104E+03  0.22699543867E+03  0.00000000000E+00 0.  1.
<mgrwt>
<rscale>  0 0.53582563E+02</rscale>
<asrwt>0</asrwt>
<pdfrwt beam="1">  1        1 0.38904185E-01 0.29769519E+02</pdfrwt>
<pdfrwt beam="2">  1       -2 0.48917167E-01 0.96443985E+02</pdfrwt>
<totfact> 0.37899555E+02</totfact>
</mgrwt>
</event>
<event>
 7    1  0.3113530E-004  0.6052939E+02  0.7546771E-02  0.1416656E+00
          2   -1    0    0  503    0  0.00000000000E+00  0.00000000000E+00  0.36564629987E+02  0.36564629987E+02  0.00000000000E+00 0. -1.
          2   -1    0    0  502    0 -0.00000000000E+00 -0.00000000000E+00 -0.19636655171E+04  0.19636655171E+04  0.00000000000E+00 0. -1.
         25    2    1    2    0    0  0.29548852683E+01  0.22713065149E+02 -0.76383145412E+03  0.77433123300E+03  0.12500301368E+03 0.  0.
          4    1    3    3  501    0  0.59487507614E+02 -0.28363299972E+01 -0.48706610908E+03  0.49069523723E+03  0.12700000000E+01 0.  1.
         -4    1    3    3    0  501 -0.56532622346E+02  0.25549395146E+02 -0.27676534504E+03  0.28363599577E+03  0.12700000000E+01 0.  1.
          2    1    1    2  502    0 -0.46016248588E+02 -0.50631569893E+02 -0.11718681542E+04  0.11738637152E+04  0.00000000000E+00 0. -1.
          2    1    1    2  503    0  0.43061363320E+02  0.27918504744E+02  0.85987212041E+01  0.52035198899E+02  0.00000000000E+00 0. -1.
<mgrwt>
<rscale>  0 0.55734705E+02</rscale>
<asrwt>0</asrwt>
<pdfrwt beam="1">  1        2 0.56253275E-02 0.51319820E+02</pdfrwt>
<pdfrwt beam="2">  1        2 0.30210240E+00 0.60529388E+02</pdfrwt>
<totfact> 0.16413405E+03</totfact>
</mgrwt>
</event>
<event>
 7    1  0.3113530E-004  0.1230197E+03  0.7546771E-02  0.1329831E+00
          1   -1    0    0  503    0 -0.00000000000E+00  0.00000000000E+00  0.67123841198E+03  0.67123841198E+03  0.00000000000E+00 0. -1.
          2   -1    0    0  502    0  0.00000000000E+00 -0.00000000000E+00 -0.64513236655E+03  0.64513236655E+03  0.00000000000E+00 0. -1.
         25    2    1    2    0    0  0.20096730972E+02  0.13122427754E+03  0.68189500726E+02  0.19467320306E+03  0.12499663343E+03 0.  0.
          4    1    3    3  501    0  0.47006375842E+02  0.62827655407E+01 -0.44691449475E+01  0.47651428826E+02  0.12700000000E+01 0.  1.
         -4    1    3    3    0  501 -0.26909644870E+02  0.12494151199E+03  0.72658645674E+02  0.14702177423E+03  0.12700000000E+01 0.  1.
          2    1    1    2  502    0 -0.64483737047E+02 -0.10477764748E+03 -0.57412184772E+03  0.58715620050E+03  0.00000000000E+00 0. -1.
          1    1    1    2  503    0  0.44387006075E+02 -0.26446630060E+02  0.53203839243E+03  0.53454137498E+03  0.00000000000E+00 0. -1.
<mgrwt>
<rscale>  0 0.79726027E+02</rscale>
<asrwt>0</asrwt>
<pdfrwt beam="2">  1        2 0.99251133E-01 0.12301970E+03</pdfrwt>
<pdfrwt beam="1">  1        1 0.10326745E+00 0.51668468E+02</pdfrwt>
<totfact> 0.20703750E+02</totfact>
</mgrwt>
</event>
<event>
 7    1  0.3113530E-004  0.4447981E+02  0.7546771E-02  0.1485726E+00
          2   -1    0    0  502    0  0.00000000000E+00  0.00000000000E+00  0.41463376894E+03  0.41463376894E+03  0.00000000000E+00 0.  1.
          1   -1    0    0  503    0 -0.00000000000E+00 -0.00000000000E+00 -0.26183249012E+03  0.26183249012E+03  0.00000000000E+00 0. -1.
         25    2    1    2    0    0 -0.33454489026E+01  0.12611316428E+02  0.98020227892E+02  0.15938009329E+03  0.12499524683E+03 0.  0.
          4    1    3    3  501    0  0.50481446320E+02  0.40630023822E+02  0.54693318507E+02  0.84806528332E+02  0.12700000000E+01 0. -1.
         -4    1    3    3    0  501 -0.53826895223E+02 -0.28018707393E+02  0.43326909384E+02  0.74573564955E+02  0.12700000000E+01 0. -1.
          2    1    1    2  502    0  0.45347578888E+02 -0.11861099980E+02  0.28207487493E+03  0.28594286784E+03  0.00000000000E+00 0.  1.
          1    1    1    2  503    0 -0.42002129986E+02 -0.75021644844E+00 -0.22729382400E+03  0.23114329793E+03  0.00000000000E+00 0. -1.
<mgrwt>
<rscale>  0 0.43226669E+02</rscale>
<asrwt>0</asrwt>
<pdfrwt beam="1">  1        2 0.63789811E-01 0.44479814E+02</pdfrwt>
<pdfrwt beam="2">  1        1 0.40281922E-01 0.42008829E+02</pdfrwt>
<totfact> 0.10848411E+03</totfact>
</mgrwt>
</event>
<event>
 7    1  0.3113530E-004  0.9823858E+02  0.7546771E-02  0.1301093E+00
          2   -1    0    0  502    0  0.00000000000E+00  0.00000000000E+00  0.98509989329E+03  0.98509989329E+03  0.00000000000E+00 0. -1.
          1   -1    0    0  503    0 -0.00000000000E+00 -0.00000000000E+00 -0.56345969970E+03  0.56345969970E+03  0.00000000000E+00 0. -1.
         25    2    1    2    0    0  0.15756498983E+03 -0.26385888367E+02  0.31070084946E+03  0.37105726290E+03  0.12500213346E+03 0.  0.
          4    1    3    3  501    0  0.36051319795E+02  0.41126364156E+02  0.14374693545E+03  0.15380464830E+03  0.12700000000E+01 0.  1.
         -4    1    3    3    0  501  0.12151367003E+03 -0.67512252523E+02  0.16695391401E+03  0.21725261460E+03  0.12700000000E+01 0.  1.
          2    1    1    2  502    0 -0.77441819653E+02  0.50921259523E+02  0.63755748267E+03  0.64425907352E+03  0.00000000000E+00 0. -1.
          1    1    1    2  503    0 -0.80123170175E+02 -0.24535371156E+02 -0.52661813855E+03  0.53324325658E+03  0.00000000000E+00 0. -1.
<mgrwt>
<rscale>  0 0.90730169E+02</rscale>
<asrwt>0</asrwt>
<pdfrwt beam="1">  1        2 0.15155383E+00 0.98238584E+02</pdfrwt>
<pdfrwt beam="2">  1        1 0.86686108E-01 0.83795625E+02</pdfrwt>
<totfact> 0.15358549E+02</totfact>
</mgrwt>
</event>
<event>
 7    1  0.3113530E-004  0.6330001E+02  0.7546771E-02  0.1459158E+00
          2   -1    0    0  503    0  0.00000000000E+00  0.00000000000E+00  0.23236879284E+04  0.23236879284E+04  0.00000000000E+00 0. -1.
          2   -1    0    0  502    0 -0.00000000000E+00 -0.00000000000E+00 -0.77474799817E+03  0.77474799817E+03  0.00000000000E+00 0. -1.
         25    2    1    2    0    0 -0.42713390082E+02 -0.27474393895E+02 -0.50185736620E+03  0.51967739497E+03  0.12499801126E+03 0.  0.
          4    1    3    3  501    0  0.45882855757E-01  0.35941098626E+02 -0.51167485722E+02  0.62541899322E+02  0.12700000000E+01 0.  1.
         -4    1    3    3    0  501 -0.42759272938E+02 -0.63415492521E+02 -0.45068988048E+03  0.45713549565E+03  0.12700000000E+01 0.  1.
          2    1    1    2  502    0  0.36607046539E+02  0.62631708858E+02 -0.25885611154E+03  0.26882948740E+03  0.00000000000E+00 0. -1.
          2    1    1    2  503    0  0.61063435429E+01 -0.35157314963E+02  0.23096534080E+04  0.23099290442E+04  0.00000000000E+00 0. -1.
<mgrwt>
<rscale>  0 0.47526588E+02</rscale>
<asrwt>0</asrwt>
<pdfrwt beam="1">  1        2 0.35749045E+00 0.35683669E+02</pdfrwt>
<pdfrwt beam="2">  1        2 0.11919200E+00 0.63300008E+02</pdfrwt>
<totfact> 0.39395443E+01</totfact>
</mgrwt>
</event>
<event>
 7    1  0.3113530E-004  0.1820859E+03  0.7546771E-02  0.1326360E+00
          2   -1    0    0  503    0  0.00000000000E+00  0.00000000000E+00  0.19512358775E+03  0.19512358775E+03  0.00000000000E+00 0. -1.
          2   -1    0    0  502    0 -0.00000000000E+00 -0.00000000000E+00 -0.10432602491E+04  0.10432602491E+04  0.00000000000E+00 0. -1.
         25    2    1    2    0    0  0.19359194880E+03  0.10471706271E+02 -0.30231648106E+03  0.38026983987E+03  0.12498958806E+03 0.  0.
          4    1    3    3  501    0  0.10941775220E+03  0.16005823915E+01 -0.26698282294E+03  0.28854158627E+03  0.12700000000E+01 0. -1.
         -4    1    3    3    0  501  0.84174196608E+02  0.88711238796E+01 -0.35333658115E+02  0.91728253604E+02  0.12700000000E+01 0. -1.
          2    1    1    2  502    0 -0.14320292125E+02 -0.33022083906E+02 -0.64903155456E+03  0.65002883599E+03  0.00000000000E+00 0. -1.
          2    1    1    2  503    0 -0.17927165668E+03  0.22550377634E+02  0.10321137432E+03  0.20808516095E+03  0.00000000000E+00 0. -1.
<mgrwt>
<rscale>  0 0.80956169E+02</rscale>
<asrwt>0</asrwt>
<pdfrwt beam="1">  1        2 0.30019013E-01 0.18208592E+03</pdfrwt>
<pdfrwt beam="2">  1        2 0.16050158E+00 0.35993455E+02</pdfrwt>
<totfact> 0.74264453E+02</totfact>
</mgrwt>
</event>
<event>
 7    1  0.3113530E-004  0.1011701E+03  0.7546771E-02  0.1406095E+00
         -1   -1    0    0    0  501  0.00000000000E+00  0.00000000000E+00  0.22541980282E+04  0.22541980282E+04  0.00000000000E+00 0.  1.
         -3   -1    0    0    0  502 -0.00000000000E+00 -0.00000000000E+00 -0.88886568803E+02  0.88886568803E+02  0.00000000000E+00 0.  1.
         25    2    1    2    0    0 -0.85676892032E+02  0.10266716269E+03  0.21222003817E+04  0.21300800541E+04  0.12500200298E+03 0.  0.
          4    1    3    3  503    0  0.30680025619E+02  0.40391371347E+02  0.53374344528E+03  0.53614961077E+03  0.12700000000E+01 0. -1.
         -4    1    3    3    0  503 -0.11635691765E+03  0.62275791346E+02  0.15884569364E+04  0.15939304433E+04  0.12700000000E+01 0. -1.
         -1    1    1    2    0  501  0.18162163726E+02 -0.27954272691E+02  0.94316415877E+02  0.10003445335E+03  0.00000000000E+00 0.  1.
         -3    1    1    2    0  502  0.67514728307E+02 -0.74712890002E+02 -0.51205338181E+02  0.11297008953E+03  0.00000000000E+00 0.  1.
<mgrwt>
<rscale>  0 0.58074376E+02</rscale>
<asrwt>0</asrwt>
<pdfrwt beam="1">  1       -1 0.34679966E+00 0.33336250E+02</pdfrwt>
<pdfrwt beam="2">  1       -3 0.13674858E-01 0.10117014E+03</pdfrwt>
<totfact> 0.49650230E+00</totfact>
</mgrwt>
</event>
<event>
 7    1  0.3113530E-004  0.1141548E+03  0.7546771E-02  0.1305885E+00
         -3   -1    0    0    0  501 -0.00000000000E+00  0.00000000000E+00  0.66065299588E+03  0.66065299588E+03  0.00000000000E+00 0.  1.
          2   -1    0    0  503    0  0.00000000000E+00 -0.00000000000E+00 -0.18085008376E+04  0.18085008376E+04  0.00000000000E+00 0. -1.
         25    2    1    2    0    0  0.93249108999E+02 -0.79759409243E+02 -0.24161158453E+03  0.29842776745E+03  0.12500405958E+03 0.  0.
          4    1    3    3  502    0 -0.28863763182E+02 -0.29116861309E+02 -0.77540564784E+02  0.87721494085E+02  0.12700000000E+01 0. -1.
         -4    1    3    3    0  502  0.12211287218E+03 -0.50642547934E+02 -0.16407101975E+03  0.21070627336E+03  0.12700000000E+01 0. -1.
          2    1    1    2  503    0 -0.62019715437E+02 -0.30271616655E+02 -0.15325253607E+04  0.15340784847E+04  0.00000000000E+00 0. -1.
         -3    1    1    2    0  501 -0.31229393562E+02  0.11003102590E+03  0.62628910352E+03  0.63664758137E+03  0.00000000000E+00 0.  1.
<mgrwt>
<rscale>  0 0.88759132E+02</rscale>
<asrwt>0</asrwt>
<pdfrwt beam="2">  1        2 0.27823089E+00 0.69013157E+02</pdfrwt>
<pdfrwt beam="1">  1       -3 0.10163892E+00 0.11415480E+03</pdfrwt>
<totfact> 0.57400889E+00</totfact>
</mgrwt>
</event>
<event>
 7    1  0.3113530E-004  0.1692509E+03  0.7546771E-02  0.1326831E+00
         -3   -1    0    0    0  502 -0.00000000000E+00  0.00000000000E+00  0.17575579966E+03  0.17575579966E+03  0.00000000000E+00 0.  1.
         -1   -1    0    0    0  501  0.00000000000E+00 -0.00000000000E+00 -0.84731374498E+03  0.84731374498E+03  0.00000000000E+00 0.  1.
         25    2    1    2    0    0  0.14192384253E+03 -0.59062324030E+02 -0.49270477727E+03  0.53104989387E+03  0.12500102814E+03 0.  0.
          4    1    3    3  503    0  0.15291480188E+03 -0.77181097983E+02 -0.38669984805E+03  0.42294000035E+03  0.12700000000E+01 0.  1.
         -4    1    3    3    0  503 -0.10990959344E+02  0.18118773953E+02 -0.10600492922E+03  0.10810989352E+03  0.12700000000E+01 0.  1.
         -1    1    1    2    0  501 -0.17399616258E+03  0.80472239181E+02 -0.30492614276E+03  0.36018106336E+03  0.00000000000E+00 0.  1.
         -3    1    1    2    0  502  0.32072320044E+02 -0.21409915152E+02  0.12607297470E+03  0.13183858741E+03  0.00000000000E+00 0.  1.
<mgrwt>
<rscale>  0 0.80787571E+02</rscale>
<asrwt>0</asrwt>
<pdfrwt beam="2">  1       -1 0.13035596E+00 0.16925089E+03</pdfrwt>
<pdfrwt beam="1">  1       -3 0.27039355E-01 0.38561875E+02</pdfrwt>
<totfact> 0.28805937E+01</totfact>
</mgrwt>
</event>
<event>
 7    1  0.3113530E-004  0.1850707E+03  0.7546771E-02  0.1238002E+00
          2   -1    0    0  502    0  0.00000000000E+00  0.00000000000E+00  0.10281888674E+04  0.10281888674E+04  0.00000000000E+00 0. -1.
          1   -1    0    0  503    0 -0.00000000000E+00 -0.00000000000E+00 -0.50519498196E+03  0.50519498196E+03  0.00000000000E+00 0. -1.
         25    2    1    2    0    0  0.14582834460E+03 -0.16133060316E+03  0.26710363299E+03  0.36641908296E+03  0.12500049599E+03 0.  0.
          4    1    3    3  501    0  0.45738850960E+02 -0.11765625566E+03  0.20509262223E+03  0.24083113083E+03  0.12700000000E+01 0. -1.
         -4    1    3    3    0  501  0.10008949363E+03 -0.43674347494E+02  0.62011010765E+02  0.12558795213E+03  0.12700000000E+01 0. -1.
          2    1    1    2  502    0 -0.16112748271E+03  0.80836041913E+02  0.69616743057E+03  0.71912837709E+03  0.00000000000E+00 0. -1.
          1    1    1    2  503    0  0.15299138112E+02  0.80494561244E+02 -0.44027717812E+03  0.44783638931E+03  0.00000000000E+00 0. -1.
<mgrwt>
<rscale>  0 0.12314168E+03</rscale>
<asrwt>0</asrwt>
<pdfrwt beam="1">  1        2 0.15818290E+00 0.18507070E+03</pdfrwt>
<pdfrwt beam="2">  1        1 0.77722305E-01 0.81935572E+02</pdfrwt>
<totfact> 0.16167976E+02</totfact>
</mgrwt>
</event>
<event>
 7    1  0.3113530E-004  0.5169516E+02  0.7546771E-02  0.1542585E+00
         -3   -1    0    0    0  501 -0.00000000000E+00  0.00000000000E+00  0.26914767502E+02  0.26914767502E+02  0.00000000000E+00 0.  1.
          1   -1    0    0  503    0  0.00000000000E+00 -0.00000000000E+00 -0.10006695125E+04  0.10006695125E+04  0.00000000000E+00 0. -1.
         25    2    1    2    0    0  0.73544142696E+02 -0.13028462173E+02 -0.32690140245E+03  0.35786527714E+03  0.12499819162E+03 0.  0.
          4    1    3    3  502    0  0.58504410267E+02  0.15846121623E+02 -0.31849927759E+03  0.32421793337E+03  0.12700000000E+01 0. -1.
         -4    1    3    3    0  502  0.15039732429E+02 -0.28874583796E+02 -0.84021248617E+01  0.33647343775E+02  0.12700000000E+01 0. -1.
          1    1    1    2  503    0 -0.49850217541E+02  0.62821900880E+01 -0.64278975982E+03  0.64475048308E+03  0.00000000000E+00 0. -1.
         -3    1    1    2    0  501 -0.23693925155E+02  0.67462720847E+01 -0.40635827454E+01  0.24968519801E+02  0.00000000000E+00 0.  1.
<mgrwt>
<rscale>  0 0.35686732E+02</rscale>
<asrwt>0</asrwt>
<pdfrwt beam="2">  1        1 0.15394917E+00 0.51695159E+02</pdfrwt>
<pdfrwt beam="1">  1       -3 0.41407331E-02 0.24635630E+02</pdfrwt>
<totfact> 0.20574144E+03</totfact>
</mgrwt>
</event>
<event>
 7    1  0.3113530E-004  0.8181013E+02  0.7546771E-02  0.1340780E+00
          2   -1    0    0  503    0  0.00000000000E+00  0.00000000000E+00  0.20464496922E+04  0.20464496922E+04  0.00000000000E+00 0. -1.
          2   -1    0    0  502    0 -0.00000000000E+00 -0.00000000000E+00 -0.88291640218E+03  0.88291640218E+03  0.00000000000E+00 0. -1.
         25    2    1    2    0    0  0.11656950110E+03  0.88289844541E+02  0.45090132312E+03  0.49022229524E+03  0.12498940086E+03 0.  0.
          4    1    3    3  501    0  0.79051330077E+02 -0.20912734141E+01  0.30088096261E+03  0.31110199738E+03  0.12700000000E+01 0.  1.
         -4    1    3    3    0  501  0.37518171021E+02  0.90381117955E+02  0.15002036051E+03  0.17912029787E+03  0.12700000000E+01 0.  1.
          2    1    1    2  502    0 -0.45872178784E+02 -0.53687345901E+02 -0.86082639409E+03  0.86371793351E+03  0.00000000000E+00 0. -1.
          2    1    1    2  503    0 -0.70697322314E+02 -0.34602498640E+02  0.15734583610E+04  0.15754258656E+04  0.00000000000E+00 0. -1.
<mgrwt>
<rscale>  0 0.76007141E+02</rscale>
<asrwt>0</asrwt>
<pdfrwt beam="1">  1        2 0.31483841E+00 0.81810126E+02</pdfrwt>
<pdfrwt beam="2">  1        2 0.13583329E+00 0.70615777E+02</pdfrwt>
<totfact> 0.41259736E+01</totfact>
</mgrwt>
</event>
<event>
 7    1  0.3113530E-004  0.5431067E+02  0.7546771E-02  0.1433598E+00
          2   -1    0    0  502    0  0.00000000000E+00  0.00000000000E+00  0.12999326835E+04  0.12999326835E+04  0.00000000000E+00 0. -1.
          2   -1    0    0  503    0 -0.00000000000E+00 -0.00000000000E+00 -0.12111535528E+04  0.12111535528E+04  0.00000000000E+00 0. -1.
         25    2    1    2    0    0 -0.22579379924E+02  0.10064314521E+03  0.36993263622E+03  0.40387180685E+03  0.12499363964E+03 0.  0.
          4    1    3    3  501    0  0.18004934557E+02 -0.17976217668E+02  0.20727467275E+02  0.32841480930E+02  0.12700000000E+01 0. -1.
         -4    1    3    3    0  501 -0.40584314481E+02  0.11861936288E+03  0.34920516894E+03  0.37103032591E+03  0.12700000000E+01 0. -1.
          2    1    1    2  502    0  0.19001596738E+02 -0.46526422094E+02  0.91172226817E+03  0.91310638094E+03  0.00000000000E+00 0. -1.
          2    1    1    2  503    0  0.35777831854E+01 -0.54116723119E+02 -0.11928757736E+04  0.11941080485E+04  0.00000000000E+00 0. -1.
<mgrwt>
<rscale>  0 0.52244550E+02</rscale>
<asrwt>0</asrwt>
<pdfrwt beam="1">  1        2 0.19998964E+00 0.50257026E+02</pdfrwt>
<pdfrwt beam="2">  1        2 0.18633132E+00 0.54310675E+02</pdfrwt>
<totfact> 0.67356108E+01</totfact>
</mgrwt>
</event>
<event>
 7    1  0.3113530E-004  0.8294937E+02  0.7546771E-02  0.1402304E+00
         -2   -1    0    0    0  501 -0.00000000000E+00  0.00000000000E+00  0.26381741583E+03  0.26381741583E+03  0.00000000000E+00 0.  1.
          2   -1    0    0  503    0  0.00000000000E+00 -0.00000000000E+00 -0.84032278387E+03  0.84032278387E+03  0.00000000000E+00 0. -1.
         25    2    1    2    0    0  0.47341171580E+02 -0.28438653323E+02  0.45879961126E+02  0.14415376688E+03  0.12500157656E+03 0.  0.
          4    1    3    3  502    0 -0.18166500261E+02 -0.44435862768E+02  0.58345274013E+02  0.75566867947E+02  0.12700000000E+01 0.  1.
         -4    1    3    3    0  502  0.65507671841E+02  0.15997209445E+02 -0.12465312887E+02  0.68586898934E+02  0.12700000000E+01 0.  1.
          2    1    1    2  503    0 -0.45495780857E+02  0.70288275983E+02 -0.78632976105E+03  0.79077481050E+03  0.00000000000E+00 0. -1.
         -2    1    1    2    0  501 -0.18453907236E+01 -0.41849622660E+02  0.16394443188E+03  0.16921162232E+03  0.00000000000E+00 0.  1.
<mgrwt>
<rscale>  0 0.58947206E+02</rscale>
<asrwt>0</asrwt>
<pdfrwt beam="2">  1        2 0.12928043E+00 0.82949368E+02</pdfrwt>
<pdfrwt beam="1">  1       -2 0.40587295E-01 0.41890290E+02</pdfrwt>
<totfact> 0.20054825E+02</totfact>
</mgrwt>
</event>
<event>
 7    1  0.3113530E-004  0.1100865E+03  0.7546771E-02  0.1364753E+00
          1   -1    0    0  503    0  0.00000000000E+00  0.00000000000E+00  0.12857407397E+04  0.12857407397E+04  0.00000000000E+00 0. -1.
         -3   -1    0    0    0  501 -0.00000000000E+00 -0.00000000000E+00 -0.76994945008E+03  0.76994945008E+03  0.00000000000E+00 0.  1.
         25    2    1    2    0    0  0.10466628664E+02 -0.13718588399E+03  0.51905860047E+03  0.55134140559E+03  0.12500399077E+03 0.  0.
          4    1    3    3  502    0 -0.85566726537E+01  0.22593636125E+02  0.86604131026E+02  0.89919839029E+02  0.12700000000E+01 0. -1.
         -4    1    3    3    0  502  0.19023301318E+02 -0.15977952011E+03  0.43245446945E+03  0.46142156656E+03  0.12700000000E+01 0. -1.
          1    1    1    2  503    0  0.26453094577E+02  0.33655389937E+02  0.74591695099E+03  0.74714426268E+03  0.00000000000E+00 0. -1.
         -3    1    1    2    0  501 -0.36919723242E+02  0.10353049405E+03 -0.74918426185E+03  0.75720452150E+03  0.00000000000E+00 0.  1.
<mgrwt>
<rscale>  0 0.68647558E+02</rscale>
<asrwt>0</asrwt>
<pdfrwt beam="1">  1        1 0.19780627E+00 0.42807143E+02</pdfrwt>
<pdfrwt beam="2">  1       -3 0.11845376E+00 0.11008647E+03</pdfrwt>
<totfact> 0.38620168E+00</totfact>
</mgrwt>
</event>
<event>
 7    1  0.3113530E-004  0.1075737E+03  0.7546771E-02  0.1397472E+00
         -2   -1    0    0    0  501 -0.00000000000E+00  0.00000000000E+00  0.33702244992E+03  0.33702244992E+03  0.00000000000E+00 0.  1.
          1   -1    0    0  503    0  0.00000000000E+00 -0.00000000000E+00 -0.13794209708E+04  0.13794209708E+04  0.00000000000E+00 0. -1.
         25    2    1    2    0    0  0.87638681586E+02 -0.10135732340E+03 -0.55220947514E+02  0.19138599421E+03  0.12500160087E+03 0.  0.
          4    1    3    3  502    0 -0.35414988657E+01  0.53501908758E+00 -0.54513107987E+02  0.54645405132E+02  0.12700000000E+01 0.  1.
         -4    1    3    3    0  502  0.91180180451E+02 -0.10189234249E+03 -0.70783952668E+00  0.13674058908E+03  0.12700000000E+01 0.  1.
          1    1    1    2  503    0 -0.31255809069E+02  0.12224493836E+02 -0.12455424531E+04  0.12459945290E+04  0.00000000000E+00 0. -1.
         -2    1    1    2    0  501 -0.56382872517E+02  0.89132829567E+02  0.25836487979E+03  0.27906289744E+03  0.00000000000E+00 0.  1.
<mgrwt>
<rscale>  0 0.60085921E+02</rscale>
<asrwt>0</asrwt>
<pdfrwt beam="2">  1        1 0.21221861E+00 0.33561345E+02</pdfrwt>
<pdfrwt beam="1">  1       -2 0.51849608E-01 0.10757370E+03</pdfrwt>
<totfact> 0.33222948E+01</totfact>
</mgrwt>
</event>
<event>
 7    1  0.3113530E-004  0.3608408E+02  0.7546771E-02  0.1567106E+00
          2   -1    0    0  503    0  0.00000000000E+00  0.00000000000E+00  0.35233820829E+03  0.35233820829E+03  0.00000000000E+00 0. -1.
          2   -1    0    0  502    0 -0.00000000000E+00 -0.00000000000E+00 -0.14980521462E+04  0.14980521462E+04  0.00000000000E+00 0.  1.
         25    2    1    2    0    0  0.12524577837E+02 -0.93447804934E+01 -0.24790570613E+02  0.12838545486E+03  0.12499625057E+03 0.  0.
          4    1    3    3  501    0  0.20475696931E+02 -0.31000307314E+02 -0.69071504012E+02  0.78439523104E+02  0.12700000000E+01 0.  1.
         -4    1    3    3    0  501 -0.79511190944E+01  0.21655526820E+02  0.44280933399E+02  0.49945931760E+02  0.12700000000E+01 0.  1.
          2    1    1    2  502    0  0.12825791627E+01  0.36182385585E+02 -0.14204751766E+04  0.14209365002E+04  0.00000000000E+00 0.  1.
          2    1    1    2  503    0 -0.13807157000E+02 -0.26837605091E+02  0.29955180938E+03  0.30106839943E+03  0.00000000000E+00 0. -1.
<mgrwt>
<rscale>  0 0.33000829E+02</rscale>
<asrwt>0</asrwt>
<pdfrwt beam="1">  1        2 0.54205877E-01 0.30181031E+02</pdfrwt>
<pdfrwt beam="2">  1        2 0.23046957E+00 0.36084080E+02</pdfrwt>
<totfact> 0.22956873E+02</totfact>
</mgrwt>
</event>
<event>
 7    1  0.3113530E-004  0.8829739E+02  0.7546771E-02  0.1375116E+00
         -1   -1    0    0    0  501 -0.00000000000E+00  0.00000000000E+00  0.15470721163E+03  0.15470721163E+03  0.00000000000E+00 0.  1.
          2   -1    0    0  503    0  0.00000000000E+00 -0.00000000000E+00 -0.63131134209E+03  0.63131134209E+03  0.00000000000E+00 0. -1.
         25    2    1    2    0    0 -0.11337464965E+03  0.37137440246E+02  0.94682999762E+02  0.19703485309E+03  0.12499944895E+03 0.  0.
          4    1    3    3  502    0 -0.15022874632E+02 -0.43216965810E+02  0.24013284844E+02  0.51687944871E+02  0.12700000000E+01 0. -1.
         -4    1    3    3    0  502 -0.98351775015E+02  0.80354406057E+02  0.70669714918E+02  0.14534690822E+03  0.12700000000E+01 0. -1.
          2    1    1    2  503    0  0.87500232283E+02  0.44539337396E+01 -0.44473116429E+03  0.45327909357E+03  0.00000000000E+00 0. -1.
         -1    1    1    2    0  501  0.25874417365E+02 -0.41591373986E+02 -0.12655596594E+03  0.13570460706E+03  0.00000000000E+00 0.  1.
<mgrwt>
<rscale>  0 0.65765228E+02</rscale>
<asrwt>0</asrwt>
<pdfrwt beam="2">  1        2 0.97124823E-01 0.88297390E+02</pdfrwt>
<pdfrwt beam="1">  1       -1 0.23801109E-01 0.48982934E+02</pdfrwt>
<totfact> 0.80590315E+02</totfact>
</mgrwt>
</event>
<event>
 7    1  0.3113530E-004  0.6101990E+02  0.7546771E-02  0.1471276E+00
          2   -1    0    0  502    0  0.00000000000E+00  0.00000000000E+00  0.23732355331E+03  0.23732355331E+03  0.00000000000E+00 0. -1.
          3   -1    0    0  503    0 -0.00000000000E+00 -0.00000000000E+00 -0.14548193150E+03  0.14548193150E+03  0.00000000000E+00 0. -1.
         25    2    1    2    0    0  0.34914927539E+02  0.74633468015E+02 -0.26337479214E+02  0.15201191221E+03  0.12499900772E+03 0.  0.
          4    1    3    3  501    0  0.82013040787E+02  0.51895563713E+02 -0.12234694955E+02  0.97829387470E+02  0.12700000000E+01 0.  1.
         -4    1    3    3    0  501 -0.47098113248E+02  0.22737904301E+02 -0.14102784259E+02  0.54182524742E+02  0.12700000000E+01 0.  1.
          2    1    1    2  502    0  0.43425647302E+01 -0.33640700019E+02  0.15790923574E+03  0.16151124201E+03  0.00000000000E+00 0. -1.
          3    1    1    2  503    0 -0.39257492269E+02 -0.40992767995E+02 -0.39730134705E+02  0.69282330582E+02  0.00000000000E+00 0. -1.
<mgrwt>
<rscale>  0 0.45494883E+02</rscale>
<asrwt>0</asrwt>
<pdfrwt beam="1">  1        2 0.36511316E-01 0.33919826E+02</pdfrwt>
<pdfrwt beam="2">  1        3 0.22381836E-01 0.61019900E+02</pdfrwt>
<totfact> 0.13908220E+03</totfact>
</mgrwt>
</event>
<event>
 7    1  0.3113530E-004  0.1092625E+03  0.7546771E-02  0.1301578E+00
          1   -1    0    0  503    0  0.00000000000E+00  0.00000000000E+00  0.13154732183E+04  0.13154732183E+04  0.00000000000E+00 0. -1.
         -1   -1    0    0    0  501 -0.00000000000E+00 -0.00000000000E+00 -0.29364278870E+02  0.29364278870E+02  0.00000000000E+00 0.  1.
         25    2    1    2    0    0 -0.54820980439E+02  0.57671521993E+02  0.35631558639E+03  0.38589670882E+03  0.12499651366E+03 0.  0.
          4    1    3    3  502    0 -0.36108175264E+02  0.92359909845E+01  0.14268909139E+02  0.39928918322E+02  0.12700000000E+01 0.  1.
         -4    1    3    3    0  502 -0.18712805175E+02  0.48435531009E+02  0.34204667725E+03  0.34596779049E+03  0.12700000000E+01 0.  1.
          1    1    1    2  503    0 -0.21452055405E+02  0.71872898677E+02  0.44810145144E+03  0.45433557535E+03  0.00000000000E+00 0. -1.
         -1    1    1    2    0  501  0.76273035844E+02 -0.12954442067E+03  0.48169190163E+03  0.50460521303E+03  0.00000000000E+00 0.  1.
<mgrwt>
<rscale>  0 0.90528158E+02</rscale>
<asrwt>0</asrwt>
<pdfrwt beam="1">  1        1 0.20238045E+00 0.75006028E+02</pdfrwt>
<pdfrwt beam="2">  1       -1 0.45175824E-02 0.10926252E+03</pdfrwt>
<totfact> 0.20057661E+03</totfact>
</mgrwt>
</event>
<event>
 7    1  0.3113530E-004  0.3217146E+02  0.7546771E-02  0.1590124E+00
         -1   -1    0    0    0  501 -0.00000000000E+00  0.00000000000E+00  0.11797214155E+03  0.11797214155E+03  0.00000000000E+00 0.  1.
          2   -1    0    0  503    0  0.00000000000E+00 -0.00000000000E+00 -0.91510746607E+02  0.91510746607E+02  0.00000000000E+00 0. -1.
         25    2    1    2    0    0  0.77896076134E+01 -0.61147375943E+01  0.32376931713E+02  0.12950612959E+03  0.12500201555E+03 0.  0.
          4    1    3    3  502    0  0.62327007125E+02 -0.13072352089E+02  0.38090272309E+02  0.74216062621E+02  0.12700000000E+01 0. -1.
         -4    1    3    3    0  502 -0.54537399512E+02  0.69576144947E+01 -0.57133405966E+01  0.55290066972E+02  0.12700000000E+01 0. -1.
          2    1    1    2  503    0 -0.34268896906E+02 -0.65659375841E+01 -0.26758531528E+02  0.43971443473E+02  0.00000000000E+00 0. -1.
         -1    1    1    2    0  501  0.26479289293E+02  0.12680675178E+02  0.20842994760E+02  0.36005315094E+02  0.00000000000E+00 0.  1.
<mgrwt>
<rscale>  0 0.30733088E+02</rscale>
<asrwt>0</asrwt>
<pdfrwt beam="2">  1        2 0.14078576E-01 0.32171462E+02</pdfrwt>
<pdfrwt beam="1">  1       -1 0.18149560E-01 0.29359024E+02</pdfrwt>
<totfact> 0.91232087E+03</totfact>
</mgrwt>
</event>
<event>
 7    1  0.3113530E-004  0.9045523E+02  0.7546771E-02  0.1404928E+00
         -1   -1    0    0    0  501 -0.00000000000E+00  0.00000000000E+00  0.89375878839E+01  0.89375878839E+01  0.00000000000E+00 0.  1.
          2   -1    0    0  503    0  0.00000000000E+00 -0.00000000000E+00 -0.22839614119E+04  0.22839614119E+04  0.00000000000E+00 0. -1.
         25    2    1    2    0    0 -0.22831265009E+02 -0.93661799094E+02 -0.13406142310E+04  0.13498780101E+04  0.12502130445E+03 0.  0.
          4    1    3    3  502    0 -0.23945091049E+01 -0.11776924394E+03 -0.83413503879E+03  0.84241213448E+03  0.12700000000E+01 0. -1.
         -4    1    3    3    0  502 -0.20436755904E+02  0.24107444843E+02 -0.50647919224E+03  0.50746587566E+03  0.12700000000E+01 0. -1.
          2    1    1    2  503    0 -0.14417207721E+02  0.88328194886E+02 -0.64917872819E+03  0.65531881327E+03  0.00000000000E+00 0. -1.
         -1    1    1    2    0  501  0.37248472730E+02  0.53336042075E+01 -0.28523086484E+03  0.28770217641E+03  0.00000000000E+00 0.  1.
<mgrwt>
<rscale>  0 0.58341109E+02</rscale>
<asrwt>0</asrwt>
<pdfrwt beam="2">  1        2 0.35137824E+00 0.90455229E+02</pdfrwt>
<pdfrwt beam="1">  1       -1 0.13750152E-02 0.37628394E+02</pdfrwt>
<totfact> 0.60237103E+03</totfact>
</mgrwt>
</event>
<event>
 7    1  0.3113530E-004  0.2486099E+03  0.7546771E-02  0.1334570E+00
          1   -1    0    0  503    0 -0.00000000000E+00  0.00000000000E+00  0.32180809827E+03  0.32180809827E+03  0.00000000000E+00 0. -1.
          2   -1    0    0  502    0  0.00000000000E+00 -0.00000000000E+00 -0.48130058058E+03  0.48130058058E+03  0.00000000000E+00 0.  1.
         25    2    1    2    0    0 -0.15771556142E+03 -0.21386636168E+03 -0.21648589442E+03  0.36483084252E+03  0.12498952837E+03 0.  0.
          4    1    3    3  501    0 -0.31624297415E+02 -0.18220059184E+02 -0.96046313761E+02  0.10275492217E+03  0.12700000000E+01 0.  1.
         -4    1    3    3    0  501 -0.12609126401E+03 -0.19564630249E+03 -0.12043958066E+03  0.26207592035E+03  0.12700000000E+01 0.  1.
          2    1    1    2  502    0  0.22246806641E+01  0.24425434136E+02 -0.12855887540E+03  0.13087755912E+03  0.00000000000E+00 0.  1.
          1    1    1    2  503    0  0.15549088076E+03  0.18944092754E+03  0.18555228751E+03  0.30740027720E+03  0.00000000000E+00 0. -1.
<mgrwt>
<rscale>  0 0.78086742E+02</rscale>
<asrwt>0</asrwt>
<pdfrwt beam="2">  1        2 0.74046243E-01 0.24526537E+02</pdfrwt>
<pdfrwt beam="1">  1        1 0.49508938E-01 0.24860987E+03</pdfrwt>
<totfact> 0.72812250E+02</totfact>
</mgrwt>
</event>
<event>
 7    1  0.3113530E-004  0.1332551E+03  0.7546771E-02  0.1266866E+00
          2   -1    0    0  502    0  0.00000000000E+00  0.00000000000E+00  0.15296756278E+03  0.15296756278E+03  0.00000000000E+00 0. -1.
          1   -1    0    0  503    0 -0.00000000000E+00 -0.00000000000E+00 -0.17140771052E+04  0.17140771052E+04  0.00000000000E+00 0. -1.
         25    2    1    2    0    0  0.96390370029E+02 -0.42360770699E+02 -0.48233590458E+02  0.17040462144E+03  0.12500286969E+03 0.  0.
          4    1    3    3  501    0  0.58083315742E+02  0.25205931688E+02 -0.65198824881E+02  0.90892850245E+02  0.12700000000E+01 0.  1.
         -4    1    3    3    0  501  0.38307054287E+02 -0.67566702387E+02  0.16965234423E+02  0.79511771196E+02  0.12700000000E+01 0.  1.
          2    1    1    2  502    0 -0.91789932878E+02  0.12762364704E+03  0.22574824860E+02  0.15881690646E+03  0.00000000000E+00 0. -1.
          1    1    1    2  503    0 -0.46004371516E+01 -0.85262876339E+02 -0.15354507768E+04  0.15378231401E+04  0.00000000000E+00 0. -1.
<mgrwt>
<rscale>  0 0.10666884E+03</rscale>
<asrwt>0</asrwt>
<pdfrwt beam="1">  1        2 0.23533471E-01 0.13325511E+03</pdfrwt>
<pdfrwt beam="2">  1        1 0.26370417E+00 0.85386897E+02</pdfrwt>
<totfact> 0.17978704E+02</totfact>
</mgrwt>
</event>
<event>
 7    1  0.3113530E-004  0.1686997E+03  0.7546771E-02  0.1219895E+00
          2   -1    0    0  503    0  0.00000000000E+00  0.00000000000E+00  0.17788729085E+04  0.17788729085E+04  0.00000000000E+00 0. -1.
         -1   -1    0    0    0  501 -0.00000000000E+00 -0.00000000000E+00 -0.21130170510E+03  0.21130170510E+03  0.00000000000E+00 0.  1.
         25    2    1    2    0    0  0.56727845173E+02  0.50004174976E+02  0.98255164463E+03  0.99334474514E+03  0.12493031013E+03 0.  0.
          4    1    3    3  502    0  0.95037571933E+02  0.21859481606E+02  0.60506178365E+03  0.61287139919E+03  0.12700000000E+01 0.  1.
         -4    1    3    3    0  502 -0.38309726760E+02  0.28144693370E+02  0.37748986098E+03  0.38047334594E+03  0.12700000000E+01 0.  1.
          2    1    1    2  503    0  0.13212495135E+02  0.10759245392E+03  0.75023854348E+03  0.75802940464E+03  0.00000000000E+00 0. -1.
         -1    1    1    2    0  501 -0.69940340308E+02 -0.15759662890E+03 -0.16521898467E+03  0.23880046386E+03  0.00000000000E+00 0.  1.
<mgrwt>
<rscale>  0 0.13523004E+03</rscale>
<asrwt>0</asrwt>
<pdfrwt beam="1">  1        2 0.27367275E+00 0.10840067E+03</pdfrwt>
<pdfrwt beam="2">  1       -1 0.32507956E-01 0.16869973E+03</pdfrwt>
<totfact> 0.10772022E+02</totfact>
</mgrwt>
</event>
<event>
 7    1  0.3113530E-004  0.1377993E+03  0.7546771E-02  0.1324119E+00
         -1   -1    0    0    0  502 -0.00000000000E+00  0.00000000000E+00  0.34654988163E+03  0.34654988163E+03  0.00000000000E+00 0.  1.
         -2   -1    0    0    0  501  0.00000000000E+00 -0.00000000000E+00 -0.21971469614E+03  0.21971469614E+03  0.00000000000E+00 0.  1.
         25    2    1    2    0    0  0.12728692557E+03  0.53027374162E+02  0.17160192053E+02  0.18690461531E+03  0.12499999681E+03 0.  0.
          4    1    3    3  503    0  0.77296411647E+02 -0.21301747335E+02 -0.30059254145E+02  0.85636857443E+02  0.12700000000E+01 0.  1.
         -4    1    3    3    0  503  0.49990513919E+02  0.74329121497E+02  0.47219446198E+02  0.10126775787E+03  0.12700000000E+01 0.  1.
         -2    1    1    2    0  501 -0.10290082890E+03 -0.94968055773E+02 -0.94871101349E+02  0.16913910866E+03  0.00000000000E+00 0.  1.
         -1    1    1    2    0  502 -0.24386096665E+02  0.41940681611E+02  0.20454609479E+03  0.21022085381E+03  0.00000000000E+00 0.  1.
<mgrwt>
<rscale>  0 0.81763862E+02</rscale>
<asrwt>0</asrwt>
<pdfrwt beam="2">  1       -2 0.33802261E-01 0.13779930E+03</pdfrwt>
<pdfrwt beam="1">  1       -1 0.53315367E-01 0.48514972E+02</pdfrwt>
<totfact> 0.22429459E+02</totfact>
</mgrwt>
</event>
<event>
 7    1  0.3113530E-004  0.4730626E+03  0.7546771E-02  0.1021059E+00
         -1   -1    0    0    0  501 -0.00000000000E+00  0.00000000000E+00  0.52798933746E+03  0.52798933746E+03  0.00000000000E+00 0.  1.
          1   -1    0    0  503    0  0.00000000000E+00 -0.00000000000E+00 -0.10596245892E+03  0.10596245892E+03  0.00000000000E+00 0. -1.
         25    2    1    2    0    0 -0.14279177051E+03 -0.11897256614E+03  0.85424066642E+02  0.23972499621E+03  0.12500736549E+03 0.  0.
          4    1    3    3  502    0 -0.15901770703E+03 -0.12844237921E+03  0.72522337934E+02  0.21689900490E+03  0.12700000000E+01 0.  1.
         -4    1    3    3    0  502  0.16225936520E+02  0.94698130761E+01  0.12901728709E+02  0.22825991311E+02  0.12700000000E+01 0.  1.
          1    1    1    2  503    0  0.52243203328E+02  0.53182574212E+02  0.59532779470E+02  0.95403827623E+02  0.00000000000E+00 0. -1.
         -1    1    1    2    0  501  0.90548567178E+02  0.65789991923E+02  0.27707003243E+03  0.29882297255E+03  0.00000000000E+00 0.  1.
<mgrwt>
<rscale>  0 0.47306257E+03</rscale>
<asrwt>0</asrwt>
<pdfrwt beam="2">  1        1 0.16301917E-01 0.47306257E+03</pdfrwt>
<pdfrwt beam="1">  1       -1 0.81229128E-01 0.47306257E+03</pdfrwt>
<totfact> 0.52720495E+02</totfact>
</mgrwt>
</event>
<event>
 7    1  0.3113530E-004  0.2419672E+03  0.7546771E-02  0.1150788E+00
         -1   -1    0    0    0  501 -0.00000000000E+00  0.00000000000E+00  0.24474414044E+03  0.24474414044E+03  0.00000000000E+00 0.  1.
          2   -1    0    0  503    0  0.00000000000E+00 -0.00000000000E+00 -0.12501003809E+04  0.12501003809E+04  0.00000000000E+00 0.  1.
         25    2    1    2    0    0  0.23301140449E+03 -0.23237319869E+01 -0.29050074210E+02  0.26602556497E+03  0.12500392014E+03 0.  0.
          4    1    3    3  502    0  0.76420493136E+02  0.44805893906E+02  0.27857324320E+02  0.92872511101E+02  0.12700000000E+01 0.  1.
         -4    1    3    3    0  502  0.15659091136E+03 -0.47129625893E+02 -0.56907398530E+02  0.17315305387E+03  0.12700000000E+01 0.  1.
          2    1    1    2  503    0 -0.65335478970E+01  0.16314093963E+03 -0.93362286770E+03  0.94779180864E+03  0.00000000000E+00 0.  1.
         -1    1    1    2    0  501 -0.22647785660E+03 -0.16081720764E+03 -0.42683298586E+02  0.28102714776E+03  0.00000000000E+00 0.  1.
<mgrwt>
<rscale>  0 0.19876215E+03</rscale>
<asrwt>0</asrwt>
<pdfrwt beam="2">  1        2 0.19232314E+00 0.16327172E+03</pdfrwt>
<pdfrwt beam="1">  1       -1 0.37652944E-01 0.24196715E+03</pdfrwt>
<totfact> 0.15296131E+02</totfact>
</mgrwt>
</event>
<event>
 7    1  0.3113530E-004  0.1715992E+03  0.7546771E-02  0.1315173E+00
          1   -1    0    0  503    0  0.00000000000E+00  0.00000000000E+00  0.11546889020E+04  0.11546889020E+04  0.00000000000E+00 0. -1.
         -1   -1    0    0    0  501 -0.00000000000E+00 -0.00000000000E+00 -0.45886892886E+03  0.45886892886E+03  0.00000000000E+00 0.  1.
         25    2    1    2    0    0 -0.17432258367E+03  0.30823852143E+02  0.43110184251E+03  0.48250556111E+03  0.12499737938E+03 0.  0.
          4    1    3    3  502    0 -0.84478132509E+01 -0.34422416026E+02  0.45436935695E+02  0.57640231602E+02  0.12700000000E+01 0. -1.
         -4    1    3    3    0  502 -0.16587477042E+03  0.65246268169E+02  0.38566490681E+03  0.42486532951E+03  0.12700000000E+01 0. -1.
          1    1    1    2  503    0  0.31125100161E+01 -0.42087611926E+02  0.68021454824E+03  0.68152247684E+03  0.00000000000E+00 0. -1.
         -1    1    1    2    0  501  0.17121007365E+03  0.11263759783E+02 -0.41549641764E+03  0.44952979287E+03  0.00000000000E+00 0.  1.
<mgrwt>
<rscale>  0 0.85099488E+02</rscale>
<asrwt>0</asrwt>
<pdfrwt beam="1">  1        1 0.17764444E+00 0.42202545E+02</pdfrwt>
<pdfrwt beam="2">  1       -1 0.70595220E-01 0.17159920E+03</pdfrwt>
<totfact> 0.30699934E+01</totfact>
</mgrwt>
</event>
<event>
 7    1  0.3113530E-004  0.9248828E+02  0.7546771E-02  0.1368373E+00
          1   -1    0    0  503    0 -0.00000000000E+00  0.00000000000E+00  0.17441042509E+04  0.17441042509E+04  0.00000000000E+00 0. -1.
          2   -1    0    0  502    0  0.00000000000E+00 -0.00000000000E+00 -0.21018785105E+03  0.21018785105E+03  0.00000000000E+00 0. -1.
         25    2    1    2    0    0 -0.12852606821E+03  0.25337666920E+02  0.56291023480E+03  0.59131655863E+03  0.12500556987E+03 0.  0.
          4    1    3    3  501    0 -0.13281171298E+03  0.60115232817E+02  0.46488825564E+03  0.48721196153E+03  0.12700000000E+01 0. -1.
         -4    1    3    3    0  501  0.42856447700E+01 -0.34777565897E+02  0.98021979156E+02  0.10410459711E+03  0.12700000000E+01 0. -1.
          2    1    1    2  502    0  0.48149860430E+02  0.11222718002E+02 -0.19116493136E+03  0.19745477822E+03  0.00000000000E+00 0. -1.
          1    1    1    2  503    0  0.80376207781E+02 -0.36560384921E+02  0.11621710964E+04  0.11655207651E+04  0.00000000000E+00 0. -1.
<mgrwt>
<rscale>  0 0.67621465E+02</rscale>
<asrwt>0</asrwt>
<pdfrwt beam="2">  1        2 0.32336594E-01 0.49440454E+02</pdfrwt>
<pdfrwt beam="1">  1        1 0.26832372E+00 0.92488281E+02</pdfrwt>
<totfact> 0.11808367E+02</totfact>
</mgrwt>
</event>
<event>
 7    1  0.3113530E-004  0.1586058E+03  0.7546771E-02  0.1330143E+00
          2   -1    0    0  502    0  0.00000000000E+00  0.00000000000E+00  0.15806425257E+04  0.15806425257E+04  0.00000000000E+00 0. -1.
          2   -1    0    0  503    0 -0.00000000000E+00 -0.00000000000E+00 -0.21788889330E+03  0.21788889330E+03  0.00000000000E+00 0. -1.
         25    2    1    2    0    0 -0.12709343961E+03 -0.58467044350E+02  0.10555297290E+03  0.21526570430E+03  0.12500702258E+03 0.  0.
          4    1    3    3  501    0 -0.56014757861E+02  0.31997641130E+02  0.69177955743E+02  0.94597592976E+02  0.12700000000E+01 0.  1.
         -4    1    3    3    0  501 -0.71078681746E+02 -0.90464685480E+02  0.36375017159E+02  0.12066811133E+03  0.12700000000E+01 0.  1.
          2    1    1    2  502    0  0.15718033420E+03  0.32160454994E+02  0.14131747605E+04  0.14222527398E+04  0.00000000000E+00 0. -1.
          2    1    1    2  503    0 -0.30086894594E+02  0.26306589357E+02 -0.15597410102E+03  0.16101297482E+03  0.00000000000E+00 0. -1.
<mgrwt>
<rscale>  0 0.79616537E+02</rscale>
<asrwt>0</asrwt>
<pdfrwt beam="1">  1        2 0.24317577E+00 0.15860579E+03</pdfrwt>
<pdfrwt beam="2">  1        2 0.33521369E-01 0.39965709E+02</pdfrwt>
<totfact> 0.29996584E+02</totfact>
</mgrwt>
</event>
<event>
 7    1  0.3113530E-004  0.9356127E+02  0.7546771E-02  0.1306633E+00
          1   -1    0    0  503    0 -0.00000000000E+00  0.00000000000E+00  0.10573770525E+04  0.10573770525E+04  0.00000000000E+00 0. -1.
          2   -1    0    0  502    0  0.00000000000E+00 -0.00000000000E+00 -0.28771216211E+04  0.28771216211E+04  0.00000000000E+00 0. -1.
         25    2    1    2    0    0  0.84071002748E+01 -0.48722505591E+02 -0.25016790401E+03  0.28399720733E+03  0.12500348671E+03 0.  0.
          4    1    3    3  501    0 -0.25581147913E+02  0.25295309031E+02 -0.15311621737E+03  0.15729093015E+03  0.12700000000E+01 0. -1.
         -4    1    3    3    0  501  0.33988248188E+02 -0.74017814622E+02 -0.97051686645E+02  0.12670627718E+03  0.12700000000E+01 0. -1.
          2    1    1    2  502    0  0.81214022452E+02  0.19957572873E+02 -0.26072385211E+04  0.26085794464E+04  0.00000000000E+00 0. -1.
          1    1    1    2  503    0 -0.89621122727E+02  0.28764932718E+02  0.10376618565E+04  0.10419220199E+04  0.00000000000E+00 0. -1.
<mgrwt>
<rscale>  0 0.88456509E+02</rscale>
<asrwt>0</asrwt>
<pdfrwt beam="2">  1        2 0.44263409E+00 0.83630271E+02</pdfrwt>
<pdfrwt beam="1">  1        1 0.16267339E+00 0.93561267E+02</pdfrwt>
<totfact> 0.62781242E+00</totfact>
</mgrwt>
</event>
<event>
 7    1  0.3113530E-004  0.7352040E+02  0.7546771E-02  0.1480632E+00
          3   -1    0    0  503    0 -0.00000000000E+00  0.00000000000E+00  0.12260338209E+03  0.12260338209E+03  0.00000000000E+00 0. -1.
          2   -1    0    0  502    0  0.00000000000E+00 -0.00000000000E+00 -0.15377621760E+04  0.15377621760E+04  0.00000000000E+00 0. -1.
         25    2    1    2    0    0 -0.76839889117E+02 -0.76294563199E+01 -0.18773291565E+03  0.23839377677E+03  0.12500147206E+03 0.  0.
          4    1    3    3  501    0 -0.46462774854E+02 -0.35231967179E+02 -0.18850554837E+03  0.19732216202E+03  0.12700000000E+01 0.  1.
         -4    1    3    3    0  501 -0.30377114264E+02  0.27602510859E+02  0.77263271283E+00  0.41071614748E+02  0.12700000000E+01 0.  1.
          2    1    1    2  502    0  0.10500600715E+02 -0.24158793640E+02 -0.13106397775E+04  0.13109044726E+04  0.00000000000E+00 0. -1.
          3    1    1    2  503    0  0.66339288403E+02  0.31788249960E+02  0.83213899288E+02  0.11106730867E+03  0.00000000000E+00 0. -1.
<mgrwt>
<rscale>  0 0.44007805E+02</rscale>
<asrwt>0</asrwt>
<pdfrwt beam="2">  1        2 0.23657879E+00 0.26342170E+02</pdfrwt>
<pdfrwt beam="1">  1        3 0.18862060E-01 0.73520400E+02</pdfrwt>
<totfact> 0.22447798E+02</totfact>
</mgrwt>
</event>
<event>
 7    1  0.3113530E-004  0.5555840E+02  0.7546771E-02  0.1541081E+00
          1   -1    0    0  503    0  0.00000000000E+00  0.00000000000E+00  0.48157073428E+03  0.48157073428E+03  0.00000000000E+00 0. -1.
          1   -1    0    0  502    0 -0.00000000000E+00 -0.00000000000E+00 -0.22418757775E+03  0.22418757775E+03  0.00000000000E+00 0. -1.
         25    2    1    2    0    0 -0.68169092998E+02  0.27111954876E+02 -0.40738354840E+01  0.14499785018E+03  0.12500278830E+03 0.  0.
          4    1    3    3  501    0 -0.35324362474E+02  0.10085963098E+02  0.60369356633E+02  0.70679624759E+02  0.12700000000E+01 0. -1.
         -4    1    3    3    0  501 -0.32844730523E+02  0.17025991778E+02 -0.64443192117E+02  0.74318225419E+02  0.12700000000E+01 0. -1.
          1    1    1    2  502    0  0.45233714084E+02 -0.30239007267E+02 -0.14436537610E+03  0.15427847636E+03  0.00000000000E+00 0. -1.
          1    1    1    2  503    0  0.22935378914E+02  0.31270523908E+01  0.40582236812E+03  0.40648198549E+03  0.00000000000E+00 0. -1.
<mgrwt>
<rscale>  0 0.35861428E+02</rscale>
<asrwt>0</asrwt>
<pdfrwt beam="1">  1        1 0.74087805E-01 0.23147571E+02</pdfrwt>
<pdfrwt beam="2">  1        1 0.34490397E-01 0.55558399E+02</pdfrwt>
<totfact> 0.74339725E+02</totfact>
</mgrwt>
</event>
<event>
 7    1  0.3113530E-004  0.1127283E+03  0.7546771E-02  0.1285040E+00
          1   -1    0    0  503    0 -0.00000000000E+00  0.00000000000E+00  0.30309759481E+03  0.30309759481E+03  0.00000000000E+00 0. -1.
          2   -1    0    0  502    0  0.00000000000E+00 -0.00000000000E+00 -0.42508335639E+03  0.42508335639E+03  0.00000000000E+00 0. -1.
         25    2    1    2    0    0 -0.17543406616E+02 -0.30057282793E+02  0.13751731041E+03  0.18906655241E+03  0.12499575678E+03 0.  0.
          4    1    3    3  501    0 -0.39423826557E+02 -0.64656021128E+02  0.12515054705E+03  0.14628366790E+03  0.12700000000E+01 0.  1.
         -4    1    3    3    0  501  0.21880419940E+02  0.34598738335E+02  0.12366763364E+02  0.42782884513E+02  0.12700000000E+01 0.  1.
          2    1    1    2  502    0  0.23687907407E+02  0.11464451090E+03 -0.37668793387E+03  0.39445947873E+03  0.00000000000E+00 0. -1.
          1    1    1    2  503    0 -0.61445007910E+01 -0.84587228103E+02  0.11718486188E+03  0.14465492007E+03  0.00000000000E+00 0. -1.
<mgrwt>
<rscale>  0 0.97777822E+02</rscale>
<asrwt>0</asrwt>
<pdfrwt beam="2">  1        2 0.65397439E-01 0.11272834E+03</pdfrwt>
<pdfrwt beam="1">  1        1 0.46630399E-01 0.84810106E+02</pdfrwt>
<totfact> 0.88638267E+02</totfact>
</mgrwt>
</event>
<event>
 7    1  0.3113530E-004  0.4001338E+02  0.7546771E-02  0.1510347E+00
          2   -1    0    0  503    0  0.00000000000E+00  0.00000000000E+00  0.33688090360E+03  0.33688090360E+03  0.00000000000E+00 0. -1.
         -1   -1    0    0    0  501 -0.00000000000E+00 -0.00000000000E+00 -0.43989832138E+02  0.43989832138E+02  0.00000000000E+00 0.  1.
         25    2    1    2    0    0 -0.36072663633E+02 -0.21752392221E+02  0.24459916255E+03  0.27790850100E+03  0.12501992234E+03 0.  0.
          4    1    3    3  502    0  0.20477409581E+02  0.41104493700E+02  0.10635718933E+03  0.11585494521E+03  0.12700000000E+01 0. -1.
         -4    1    3    3    0  502 -0.56550073214E+02 -0.62856885922E+02  0.13824197322E+03  0.16205355580E+03  0.12700000000E+01 0. -1.
          2    1    1    2  503    0  0.41037922278E+02 -0.17951719939E+02  0.43883487705E+02  0.62706744508E+02  0.00000000000E+00 0. -1.
         -1    1    1    2    0  501 -0.49652586457E+01  0.39704112160E+02  0.44084212066E+01  0.40255490226E+02  0.00000000000E+00 0.  1.
<mgrwt>
<rscale>  0 0.39711233E+02</rscale>
<asrwt>0</asrwt>
<pdfrwt beam="1">  1        2 0.51827830E-01 0.39411372E+02</pdfrwt>
<pdfrwt beam="2">  1       -1 0.67676667E-02 0.40013377E+02</pdfrwt>
<totfact> 0.10293404E+04</totfact>
</mgrwt>
</event>
<event>
 7    1  0.3113530E-004  0.7234241E+02  0.7546771E-02  0.1394900E+00
          1   -1    0    0  503    0  0.00000000000E+00  0.00000000000E+00  0.39980280705E+03  0.39980280705E+03  0.00000000000E+00 0. -1.
         -1   -1    0    0    0  501 -0.00000000000E+00 -0.00000000000E+00 -0.54747515520E+03  0.54747515520E+03  0.00000000000E+00 0.  1.
         25    2    1    2    0    0 -0.57206578913E+02 -0.46859291072E+02 -0.20947580259E+03  0.25489821705E+03  0.12499841342E+03 0.  0.
          4    1    3    3  502    0 -0.64676678584E+02 -0.52086295381E+01 -0.20166370189E+03  0.21184915420E+03  0.12700000000E+01 0. -1.
         -4    1    3    3    0  502  0.74700996702E+01 -0.41650661534E+02 -0.78121006957E+01  0.43049062854E+02  0.12700000000E+01 0. -1.
          1    1    1    2  503    0  0.12613923153E+02  0.71480237262E+02  0.37149876837E+03  0.37852327574E+03  0.00000000000E+00 0. -1.
         -1    1    1    2    0  501  0.44592655760E+02 -0.24620946190E+02 -0.30969531394E+03  0.31385646945E+03  0.00000000000E+00 0.  1.
<mgrwt>
<rscale>  0 0.60704113E+02</rscale>
<asrwt>0</asrwt>
<pdfrwt beam="1">  1        1 0.61508124E-01 0.72342415E+02</pdfrwt>
<pdfrwt beam="2">  1       -1 0.84226947E-01 0.50938158E+02</pdfrwt>
<totfact> 0.96527291E+01</totfact>
</mgrwt>
</event>
<event>
 7    1  0.3113530E-004  0.1063668E+03  0.7546771E-02  0.1330968E+00
         -1   -1    0    0    0  501 -0.00000000000E+00  0.00000000000E+00  0.73226018402E+02  0.73226018402E+02  0.00000000000E+00 0.  1.
          2   -1    0    0  503    0  0.00000000000E+00 -0.00000000000E+00 -0.21300024271E+04  0.21300024271E+04  0.00000000000E+00 0. -1.
         25    2    1    2    0    0  0.57177723191E+02 -0.36692135142E+02 -0.68152706448E+03  0.69621903457E+03  0.12500479858E+03 0.  0.
          4    1    3    3  502    0  0.46636411930E+02 -0.60800880104E+02 -0.65263877737E+03  0.65712303913E+03  0.12700000000E+01 0.  1.
         -4    1    3    3    0  502  0.10541311261E+02  0.24108744962E+02 -0.28888287112E+02  0.39095995434E+02  0.12700000000E+01 0.  1.
          2    1    1    2  503    0 -0.11617385727E+03  0.32250542900E+02 -0.14247665172E+04  0.14298587662E+04  0.00000000000E+00 0. -1.
         -1    1    1    2    0  501  0.58996134077E+02  0.44415922422E+01  0.49517172945E+02  0.77150644807E+02  0.00000000000E+00 0.  1.
<mgrwt>
<rscale>  0 0.79328361E+02</rscale>
<asrwt>0</asrwt>
<pdfrwt beam="2">  1        2 0.32769266E+00 0.10636680E+03</pdfrwt>
<pdfrwt beam="1">  1       -1 0.11265542E-01 0.59163093E+02</pdfrwt>
<totfact> 0.37196913E+02</totfact>
</mgrwt>
</event>
<event>
 7    1  0.3113530E-004  0.6879589E+02  0.7546771E-02  0.1477481E+00
          1   -1    0    0  503    0  0.00000000000E+00  0.00000000000E+00  0.93724312860E+03  0.93724312860E+03  0.00000000000E+00 0. -1.
         -1   -1    0    0    0  501 -0.00000000000E+00 -0.00000000000E+00 -0.21682581113E+02  0.21682581113E+02  0.00000000000E+00 0.  1.
         25    2    1    2    0    0 -0.33592998336E+02 -0.28623527462E+02  0.77060243392E+03  0.78192084630E+03  0.12499721141E+03 0.  0.
          4    1    3    3  502    0  0.22486808961E+02 -0.59443174981E+02  0.49033565184E+03  0.49443888601E+03  0.12700000000E+01 0.  1.
         -4    1    3    3    0  502 -0.56079807297E+02  0.30819647519E+02  0.28026678207E+03  0.28748196029E+03  0.12700000000E+01 0.  1.
          1    1    1    2  503    0 -0.25023970246E+02 -0.14227322265E+02  0.36491775881E+02  0.46478656313E+02  0.00000000000E+00 0. -1.
         -1    1    1    2    0  501  0.58616968582E+02  0.42850849727E+02  0.10846633770E+03  0.13052620710E+03  0.00000000000E+00 0.  1.
<mgrwt>
<rscale>  0 0.44500979E+02</rscale>
<asrwt>0</asrwt>
<pdfrwt beam="1">  1        1 0.14419122E+00 0.28785687E+02</pdfrwt>
<pdfrwt beam="2">  1       -1 0.33357824E-02 0.68795894E+02</pdfrwt>
<totfact> 0.57145627E+03</totfact>
</mgrwt>
</event>
<event>
 7    1  0.3113530E-004  0.4570146E+02  0.7546771E-02  0.1510085E+00
         -2   -1    0    0    0  501 -0.00000000000E+00  0.00000000000E+00  0.13011581861E+02  0.13011581861E+02  0.00000000000E+00 0.  1.
          1   -1    0    0  503    0  0.00000000000E+00 -0.00000000000E+00 -0.17488079446E+04  0.17488079446E+04  0.00000000000E+00 0. -1.
         25    2    1    2    0    0  0.12363008023E+02  0.68731990193E+02 -0.14520034126E+04  0.14590464948E+04  0.12500333261E+03 0.  0.
          4    1    3    3  502    0 -0.68130057079E+01  0.10242870469E+03 -0.11472075929E+04  0.11517920518E+04  0.12700000000E+01 0. -1.
         -4    1    3    3    0  502  0.19176013730E+02 -0.33696714493E+02 -0.30479581975E+03  0.30725444294E+03  0.12700000000E+01 0. -1.
          1    1    1    2  503    0  0.11493591004E+01 -0.36914837676E+02 -0.25535235007E+03  0.25800939703E+03  0.00000000000E+00 0. -1.
         -2    1    1    2    0  501 -0.13512367123E+02 -0.31817152517E+02 -0.28440600086E+02  0.44763634714E+02  0.00000000000E+00 0.  1.
<mgrwt>
<rscale>  0 0.39746537E+02</rscale>
<asrwt>0</asrwt>
<pdfrwt beam="2">  1        1 0.26904732E+00 0.45701456E+02</pdfrwt>
<pdfrwt beam="1">  1       -2 0.20017822E-02 0.34567546E+02</pdfrwt>
<totfact> 0.30676524E+03</totfact>
</mgrwt>
</event>
<event>
 7    1  0.3113530E-004  0.9891072E+02  0.7546771E-02  0.1420752E+00
          1   -1    0    0  502    0  0.00000000000E+00  0.00000000000E+00  0.15565276600E+04  0.15565276600E+04  0.00000000000E+00 0. -1.
          1   -1    0    0  503    0 -0.00000000000E+00 -0.00000000000E+00 -0.13239639306E+03  0.13239639306E+03  0.00000000000E+00 0. -1.
         25    2    1    2    0    0  0.31221729346E+02 -0.68915215987E+02  0.17444573993E+03  0.22755276420E+03  0.12499936375E+03 0.  0.
          4    1    3    3  501    0 -0.19705107109E+02  0.24332575693E+02  0.77976375845E+02  0.84037453412E+02  0.12700000000E+01 0.  1.
         -4    1    3    3    0  501  0.50926836455E+02 -0.93247791679E+02  0.96469364081E+02  0.14351531079E+03  0.12700000000E+01 0.  1.
          1    1    1    2  502    0 -0.60795374878E+01 -0.29816619795E+02  0.13307963982E+04  0.13311442615E+04  0.00000000000E+00 0. -1.
          1    1    1    2  503    0 -0.25142191859E+02  0.98731835782E+02 -0.81110871214E+02  0.13022702729E+03  0.00000000000E+00 0. -1.
<mgrwt>
<rscale>  0 0.54862227E+02</rscale>
<asrwt>0</asrwt>
<pdfrwt beam="1">  1        1 0.23946578E+00 0.30430110E+02</pdfrwt>
<pdfrwt beam="2">  1        1 0.20368677E-01 0.98910716E+02</pdfrwt>
<totfact> 0.23728863E+02</totfact>
</mgrwt>
</event>
<event>
 7    1  0.3113530E-004  0.1277690E+03  0.7546771E-02  0.1312417E+00
         -1   -1    0    0    0  501 -0.00000000000E+00  0.00000000000E+00  0.54088327932E+03  0.54088327932E+03  0.00000000000E+00 0.  1.
          1   -1    0    0  503    0  0.00000000000E+00 -0.00000000000E+00 -0.38887303763E+03  0.38887303763E+03  0.00000000000E+00 0. -1.
         25    2    1    2    0    0  0.14763727534E+03 -0.66652290022E+02 -0.13600481572E+03  0.24568409525E+03  0.12499628764E+03 0.  0.
          4    1    3    3  502    0  0.50676113775E+02 -0.24853675379E+02 -0.12786743314E+03  0.13977648960E+03  0.12700000000E+01 0.  1.
         -4    1    3    3    0  502  0.96961161564E+02 -0.41798614643E+02 -0.81373825792E+01  0.10590760564E+03  0.12700000000E+01 0.  1.
          1    1    1    2  503    0 -0.90298812049E+02  0.76066831439E+02 -0.17846590171E+03  0.21398625277E+03  0.00000000000E+00 0. -1.
         -1    1    1    2    0  501 -0.57338463290E+02 -0.94145414170E+01  0.46648095913E+03  0.47008596893E+03  0.00000000000E+00 0.  1.
<mgrwt>
<rscale>  0 0.86163645E+02</rscale>
<asrwt>0</asrwt>
<pdfrwt beam="2">  1        1 0.59826621E-01 0.12776900E+03</pdfrwt>
<pdfrwt beam="1">  1       -1 0.83212812E-01 0.58106221E+02</pdfrwt>
<totfact> 0.10129192E+02</totfact>
</mgrwt>
</event>
<event>
 7    1  0.3113530E-004  0.6303961E+02  0.7546771E-02  0.1410317E+00
         -2   -1    0    0    0  501  0.00000000000E+00  0.00000000000E+00  0.32167461587E+03  0.32167461587E+03  0.00000000000E+00 0.  1.
         -1   -1    0    0    0  502 -0.00000000000E+00 -0.00000000000E+00 -0.89023865998E+03  0.89023865998E+03  0.00000000000E+00 0.  1.
         25    2    1    2    0    0 -0.81097230705E+02 -0.46029393746E+02 -0.98900625149E+02  0.18466841532E+03  0.12500249616E+03 0.  0.
          4    1    3    3  503    0 -0.51926369697E+02 -0.88945278520E+02 -0.55464625210E+02  0.11698524689E+03  0.12700000000E+01 0.  1.
         -4    1    3    3    0  503 -0.29170861008E+02  0.42915884775E+02 -0.43435999939E+02  0.67683168429E+02  0.12700000000E+01 0.  1.
         -2    1    1    2    0  501  0.51011902233E+02 -0.87798800234E+01  0.27506679156E+03  0.27989469498E+03  0.00000000000E+00 0.  1.
         -1    1    1    2    0  502  0.30085328472E+02  0.54809273769E+02 -0.74473021052E+03  0.74735016555E+03  0.00000000000E+00 0.  1.
<mgrwt>
<rscale>  0 0.57123144E+02</rscale>
<asrwt>0</asrwt>
<pdfrwt beam="1">  1       -2 0.49488402E-01 0.51761960E+02</pdfrwt>
<pdfrwt beam="2">  1       -1 0.13695979E+00 0.63039606E+02</pdfrwt>
<totfact> 0.15316198E+01</totfact>
</mgrwt>
</event>
<event>
 7    1  0.3113530E-004  0.8719741E+02  0.7546771E-02  0.1479370E+00
         -1   -1    0    0    0  501 -0.00000000000E+00  0.00000000000E+00  0.25496024901E+02  0.25496024901E+02  0.00000000000E+00 0.  1.
          2   -1    0    0  503    0  0.00000000000E+00 -0.00000000000E+00 -0.91526618543E+03  0.91526618543E+03  0.00000000000E+00 0. -1.
         25    2    1    2    0    0 -0.71905662426E+02  0.59670364312E+02 -0.29995085022E+03  0.33812100482E+03  0.12499729873E+03 0.  0.
          4    1    3    3  502    0  0.53074695895E+01  0.24111031496E+02  0.16408798713E+01  0.24775319574E+02  0.12700000000E+01 0.  1.
         -4    1    3    3    0  502 -0.77213132015E+02  0.35559332816E+02 -0.30159173009E+03  0.31334568525E+03  0.12700000000E+01 0.  1.
          2    1    1    2  503    0  0.77680732957E+02 -0.38018014995E+02 -0.55158296528E+03  0.55832197998E+03  0.00000000000E+00 0. -1.
         -1    1    1    2    0  501 -0.57750705315E+01 -0.21652349317E+02 -0.38236345037E+02  0.44319225539E+02  0.00000000000E+00 0.  1.
<mgrwt>
<rscale>  0 0.44204421E+02</rscale>
<asrwt>0</asrwt>
<pdfrwt beam="2">  1        2 0.14081018E+00 0.87197407E+02</pdfrwt>
<pdfrwt beam="1">  1       -1 0.39224655E-02 0.22409276E+02</pdfrwt>
<totfact> 0.67596338E+03</totfact>
</mgrwt>
</event>
<event>
 7    1  0.3113530E-004  0.5866402E+02  0.7546771E-02  0.1505420E+00
          1   -1    0    0  503    0  0.00000000000E+00  0.00000000000E+00  0.56895634374E+03  0.56895634374E+03  0.00000000000E+00 0. -1.
          1   -1    0    0  502    0 -0.00000000000E+00 -0.00000000000E+00 -0.20560942565E+03  0.20560942565E+03  0.00000000000E+00 0. -1.
         25    2    1    2    0    0 -0.38836439803E+02  0.23666585014E+02  0.81713137067E+01  0.13327909085E+03  0.12501267690E+03 0.  0.
          4    1    3    3  501    0  0.41810458694E+01 -0.40619566807E+02 -0.26297438432E+02  0.48585990988E+02  0.12700000000E+01 0.  1.
         -4    1    3    3    0  501 -0.43017485672E+02  0.64286151821E+02  0.34468752139E+02  0.84693099858E+02  0.12700000000E+01 0.  1.
          1    1    1    2  502    0  0.77647133374E+01  0.26690639916E+02 -0.13992668375E+03  0.14266098926E+03  0.00000000000E+00 0. -1.
          1    1    1    2  503    0  0.31071726466E+02 -0.50357224930E+02  0.49510228814E+03  0.49862568928E+03  0.00000000000E+00 0. -1.
<mgrwt>
<rscale>  0 0.40381828E+02</rscale>
<asrwt>0</asrwt>
<pdfrwt beam="1">  1        1 0.87531744E-01 0.58664019E+02</pdfrwt>
<pdfrwt beam="2">  1        1 0.31632220E-01 0.27797141E+02</pdfrwt>
<totfact> 0.64405366E+02</totfact>
</mgrwt>
</event>
<event>
 7    1  0.3113530E-004  0.5463870E+02  0.7546771E-02  0.1515806E+00
          1   -1    0    0  503    0  0.00000000000E+00  0.00000000000E+00  0.64981214514E+01  0.64981214514E+01  0.00000000000E+00 0. -1.
         -2   -1    0    0    0  501 -0.00000000000E+00 -0.00000000000E+00 -0.24066489073E+04  0.24066489073E+04  0.00000000000E+00 0.  1.
         25    2    1    2    0    0 -0.72441058740E+02 -0.33539461842E+01 -0.12653599322E+04  0.12735853517E+04  0.12499973661E+03 0.  0.
          4    1    3    3  502    0 -0.36539624536E+02  0.58955916289E+02 -0.75533498289E+03  0.75851400349E+03  0.12700000000E+01 0.  1.
         -4    1    3    3    0  502 -0.35901434204E+02 -0.62309862474E+02 -0.51002494933E+03  0.51507134824E+03  0.12700000000E+01 0.  1.
          1    1    1    2  503    0  0.22041739305E+02  0.16970537469E+02 -0.11072447025E+03  0.11416543140E+03  0.00000000000E+00 0. -1.
         -2    1    1    2    0  501  0.50399319435E+02 -0.13616591285E+02 -0.10240663834E+04  0.10253962457E+04  0.00000000000E+00 0.  1.
<mgrwt>
<rscale>  0 0.38986353E+02</rscale>
<asrwt>0</asrwt>
<pdfrwt beam="1">  1        1 0.99971016E-03 0.27817933E+02</pdfrwt>
<pdfrwt beam="2">  1       -2 0.37025399E+00 0.54638701E+02</pdfrwt>
<totfact> 0.17047297E+02</totfact>
</mgrwt>
</event>
<event>
 7    1  0.3113530E-004  0.6499455E+02  0.7546771E-02  0.1476571E+00
         -3   -1    0    0    0  501 -0.00000000000E+00  0.00000000000E+00  0.18182953579E+03  0.18182953579E+03  0.00000000000E+00 0.  1.
          3   -1    0    0  503    0  0.00000000000E+00 -0.00000000000E+00 -0.72914567353E+03  0.72914567353E+03  0.00000000000E+00 0. -1.
         25    2    1    2    0    0 -0.73754307713E+02  0.17011002903E+01  0.81067021323E+02  0.16625775754E+03  0.12500875309E+03 0.  0.
          4    1    3    3  502    0  0.66341834419E+01  0.89977436224E+01 -0.28224054543E+02  0.30383909147E+02  0.12700000000E+01 0.  1.
         -4    1    3    3    0  502 -0.80388491155E+02 -0.72966433321E+01  0.10929107587E+03  0.13587384840E+03  0.12700000000E+01 0.  1.
          3    1    1    2  503    0  0.15537993057E+02 -0.26438932535E+02 -0.66889794596E+03  0.66960055891E+03  0.00000000000E+00 0. -1.
         -3    1    1    2    0  501  0.58216314657E+02  0.24737832245E+02  0.40514786894E+02  0.75116892863E+02  0.00000000000E+00 0.  1.
<mgrwt>
<rscale>  0 0.44644913E+02</rscale>
<asrwt>0</asrwt>
<pdfrwt beam="2">  1        3 0.11217625E+00 0.30666698E+02</pdfrwt>
<pdfrwt beam="1">  1       -3 0.27973776E-01 0.64994551E+02</pdfrwt>
<totfact> 0.18528663E+01</totfact>
</mgrwt>
</event>
<event>
 7    1  0.3113530E-004  0.4050309E+02  0.7546771E-02  0.1522730E+00
         -2   -1    0    0    0  501 -0.00000000000E+00  0.00000000000E+00  0.26583516277E+02  0.26583516277E+02  0.00000000000E+00 0.  1.
          2   -1    0    0  503    0  0.00000000000E+00 -0.00000000000E+00 -0.51775284040E+03  0.51775284040E+03  0.00000000000E+00 0. -1.
         25    2    1    2    0    0  0.21116892329E+02  0.30126429341E+02 -0.34208869291E+03  0.36606991280E+03  0.12501592840E+03 0.  0.
          4    1    3    3  502    0  0.36881046550E+02 -0.62640663977E+01 -0.21766291253E+02  0.43299358625E+02  0.12700000000E+01 0.  1.
         -4    1    3    3    0  502 -0.15764154221E+02  0.36390495739E+02 -0.32032240166E+03  0.32277055418E+03  0.12700000000E+01 0.  1.
          2    1    1    2  503    0  0.88718618072E+01 -0.49728867673E+02 -0.43128685471E+02  0.66421033735E+02  0.00000000000E+00 0. -1.
         -2    1    1    2    0  501 -0.29988754136E+02  0.19602438332E+02 -0.10595194574E+03  0.11184541014E+03  0.00000000000E+00 0.  1.
<mgrwt>
<rscale>  0 0.38093413E+02</rscale>
<asrwt>0</asrwt>
<pdfrwt beam="2">  1        2 0.79654282E-01 0.40503088E+02</pdfrwt>
<pdfrwt beam="1">  1       -2 0.40897718E-02 0.35827098E+02</pdfrwt>
<totfact> 0.13160957E+04</totfact>
</mgrwt>
</event>
<event>
 7    1  0.3113530E-004  0.1035308E+03  0.7546771E-02  0.1456619E+00
         -1   -1    0    0    0  501 -0.00000000000E+00  0.00000000000E+00  0.38430672247E+02  0.38430672247E+02  0.00000000000E+00 0.  1.
          2   -1    0    0  503    0  0.00000000000E+00 -0.00000000000E+00 -0.70516471544E+03  0.70516471544E+03  0.00000000000E+00 0. -1.
         25    2    1    2    0    0  0.98995130201E+02  0.16426938350E+02 -0.18202870503E+03  0.24254683863E+03  0.12499855745E+03 0.  0.
          4    1    3    3  502    0 -0.25459807737E+02 -0.12729597808E+02 -0.57062611260E+02  0.63780866834E+02  0.12700000000E+01 0. -1.
         -4    1    3    3    0  502  0.12445493794E+03  0.29156536157E+02 -0.12496609378E+03  0.17876597179E+03  0.12700000000E+01 0. -1.
          2    1    1    2  503    0 -0.10454399205E+03  0.50940453211E+01 -0.39532871024E+03  0.40895010051E+03  0.00000000000E+00 0. -1.
         -1    1    1    2    0  501  0.55488618492E+01 -0.21520983671E+02 -0.89376627923E+02  0.92098448547E+02  0.00000000000E+00 0.  1.
<mgrwt>
<rscale>  0 0.47968253E+02</rscale>
<asrwt>0</asrwt>
<pdfrwt beam="2">  1        2 0.10848689E+00 0.10353080E+03</pdfrwt>
<pdfrwt beam="1">  1       -1 0.59124108E-02 0.22224820E+02</pdfrwt>
<totfact> 0.52153225E+03</totfact>
</mgrwt>
</event>
<event>
 7    1  0.3113530E-004  0.6484867E+02  0.7546771E-02  0.1444287E+00
          2   -1    0    0  502    0  0.00000000000E+00  0.00000000000E+00  0.10916230971E+04  0.10916230971E+04  0.00000000000E+00 0. -1.
          2   -1    0    0  503    0 -0.00000000000E+00 -0.00000000000E+00 -0.11322884461E+03  0.11322884461E+03  0.00000000000E+00 0.  1.
         25    2    1    2    0    0 -0.68257653483E+02 -0.20022750111E+02  0.55471847121E+03  0.57305929418E+03  0.12499741822E+03 0.  0.
          4    1    3    3  501    0 -0.46741691112E+02 -0.28412542753E+02  0.54537799088E+03  0.54811570322E+03  0.12700000000E+01 0.  1.
         -4    1    3    3    0  501 -0.21515962370E+02  0.83897926424E+01  0.93404803286E+01  0.24943590962E+02  0.12700000000E+01 0.  1.
          2    1    1    2  502    0  0.25766681260E+02 -0.29081549222E+02  0.51680281575E+03  0.51826133248E+03  0.00000000000E+00 0. -1.
          2    1    1    2  503    0  0.42490972223E+02  0.49104299333E+02 -0.93127034512E+02  0.11353131502E+03  0.00000000000E+00 0.  1.
<mgrwt>
<rscale>  0 0.50196126E+02</rscale>
<asrwt>0</asrwt>
<pdfrwt beam="1">  1        2 0.16794201E+00 0.38854322E+02</pdfrwt>
<pdfrwt beam="2">  1        2 0.17419823E-01 0.64848669E+02</pdfrwt>
<totfact> 0.12308192E+03</totfact>
</mgrwt>
</event>
<event>
 7    1  0.3113530E-004  0.4790879E+02  0.7546771E-02  0.1462234E+00
          2   -1    0    0  503    0  0.00000000000E+00  0.00000000000E+00  0.91842419727E+02  0.91842419727E+02  0.00000000000E+00 0. -1.
         -2   -1    0    0    0  501 -0.00000000000E+00 -0.00000000000E+00 -0.15052848244E+03  0.15052848244E+03  0.00000000000E+00 0.  1.
         25    2    1    2    0    0 -0.48318019684E+02  0.11091015732E+02 -0.37216804314E+02  0.13952419255E+03  0.12499707248E+03 0.  0.
          4    1    3    3  502    0 -0.58398266442E+02 -0.46137518966E+02 -0.32463836083E+02  0.81206783787E+02  0.12700000000E+01 0.  1.
         -4    1    3    3    0  502  0.10080246758E+02  0.57228534698E+02 -0.47529682317E+01  0.58317408768E+02  0.12700000000E+01 0.  1.
          2    1    1    2  503    0  0.20739401420E+02 -0.48040385651E+02 -0.83326479367E+00  0.52332549670E+02  0.00000000000E+00 0. -1.
         -2    1    1    2    0  501  0.27578618264E+02  0.36949369919E+02 -0.20635993608E+02  0.50514159945E+02  0.00000000000E+00 0.  1.
<mgrwt>
<rscale>  0 0.46999153E+02</rscale>
<asrwt>0</asrwt>
<pdfrwt beam="1">  1        2 0.14129603E-01 0.47908787E+02</pdfrwt>
<pdfrwt beam="2">  1       -2 0.23158228E-01 0.46106790E+02</pdfrwt>
<totfact> 0.58856318E+03</totfact>
</mgrwt>
</event>
<event>
 7    1  0.3113530E-004  0.5751172E+02  0.7546771E-02  0.1465499E+00
          1   -1    0    0  503    0  0.00000000000E+00  0.00000000000E+00  0.98075412889E+02  0.98075412889E+02  0.00000000000E+00 0. -1.
          1   -1    0    0  502    0 -0.00000000000E+00 -0.00000000000E+00 -0.54664136604E+03  0.54664136604E+03  0.00000000000E+00 0. -1.
         25    2    1    2    0    0  0.75573145564E+02  0.44800767309E+02 -0.95546949793E+02  0.18019817437E+03  0.12499501330E+03 0.  0.
          4    1    3    3  501    0  0.30181181552E+02  0.22106731186E+01  0.28383207661E+02  0.41509157696E+02  0.12700000000E+01 0.  1.
         -4    1    3    3    0  501  0.45391964012E+02  0.42590094190E+02 -0.12393015745E+03  0.13868901668E+03  0.12700000000E+01 0.  1.
          1    1    1    2  502    0 -0.22957179956E+02 -0.29667735267E+02 -0.39421873017E+03  0.39599951243E+03  0.00000000000E+00 0. -1.
          1    1    1    2  503    0 -0.52615965608E+02 -0.15133032041E+02  0.41199726817E+02  0.68519092123E+02  0.00000000000E+00 0. -1.
<mgrwt>
<rscale>  0 0.46448065E+02</rscale>
<asrwt>0</asrwt>
<pdfrwt beam="1">  1        1 0.15088525E-01 0.57511716E+02</pdfrwt>
<pdfrwt beam="2">  1        1 0.84098673E-01 0.37512753E+02</pdfrwt>
<totfact> 0.17383584E+03</totfact>
</mgrwt>
</event>
<event>
 7    1  0.3113530E-004  0.1174028E+03  0.7546771E-02  0.1377509E+00
         -1   -1    0    0    0  501 -0.00000000000E+00  0.00000000000E+00  0.28585909072E+02  0.28585909072E+02  0.00000000000E+00 0.  1.
          1   -1    0    0  503    0  0.00000000000E+00 -0.00000000000E+00 -0.21928594221E+04  0.21928594221E+04  0.00000000000E+00 0. -1.
         25    2    1    2    0    0 -0.11650724234E+03 -0.87308173625E+02 -0.85876659684E+03  0.87994185400E+03  0.12498377443E+03 0.  0.
          4    1    3    3  502    0 -0.85420438102E+02 -0.42124910718E+02 -0.23218698582E+03  0.25096527376E+03  0.12700000000E+01 0. -1.
         -4    1    3    3    0  502 -0.31086804237E+02 -0.45183262907E+02 -0.62657961102E+03  0.62897658024E+03  0.12700000000E+01 0. -1.
          1    1    1    2  503    0  0.94395642629E+02  0.58742323437E+02 -0.13002551800E+04  0.13049998969E+04  0.00000000000E+00 0. -1.
         -1    1    1    2    0  501  0.22111599710E+02  0.28565850188E+02 -0.52517362251E+01  0.36503580264E+02  0.00000000000E+00 0.  1.
<mgrwt>
<rscale>  0 0.65123239E+02</rscale>
<asrwt>0</asrwt>
<pdfrwt beam="2">  1        1 0.33736307E+00 0.11740275E+03</pdfrwt>
<pdfrwt beam="1">  1       -1 0.43978311E-02 0.36123824E+02</pdfrwt>
<totfact> 0.48798395E+02</totfact>
</mgrwt>
</event>
<event>
 7    1  0.3113530E-004  0.4560516E+02  0.7546771E-02  0.1477131E+00
          2   -1    0    0  502    0  0.00000000000E+00  0.00000000000E+00  0.11026902461E+04  0.11026902461E+04  0.00000000000E+00 0.  1.
          1   -1    0    0  503    0 -0.00000000000E+00 -0.00000000000E+00 -0.35205494159E+03  0.35205494159E+03  0.00000000000E+00 0.  1.
         25    2    1    2    0    0 -0.35119787153E+02 -0.41527574685E+02 -0.20089111933E+03  0.24277472404E+03  0.12499754356E+03 0.  0.
          4    1    3    3  501    0 -0.19510836151E+01 -0.57999221857E+02 -0.25306380344E+02  0.63322525609E+02  0.12700000000E+01 0. -1.
         -4    1    3    3    0  501 -0.33168703538E+02  0.16471647172E+02 -0.17558473899E+03  0.17945219843E+03  0.12700000000E+01 0. -1.
          2    1    1    2  502    0  0.43254416208E+02 -0.49026403730E+01  0.10770286379E+04  0.10779080050E+04  0.00000000000E+00 0.  1.
          1    1    1    2  503    0 -0.81346290551E+01  0.46430215058E+02 -0.12550221411E+03  0.13406245860E+03  0.00000000000E+00 0.  1.
<mgrwt>
<rscale>  0 0.44556205E+02</rscale>
<asrwt>0</asrwt>
<pdfrwt beam="1">  1        2 0.16964465E+00 0.43531373E+02</pdfrwt>
<pdfrwt beam="2">  1        1 0.54162299E-01 0.45605164E+02</pdfrwt>
<totfact> 0.25007355E+02</totfact>
</mgrwt>
</event>
<event>
 7    1  0.3113530E-004  0.4699903E+02  0.7546771E-02  0.1499397E+00
         -1   -1    0    0    0  501 -0.00000000000E+00  0.00000000000E+00  0.62555970447E+03  0.62555970447E+03  0.00000000000E+00 0.  1.
          1   -1    0    0  503    0  0.00000000000E+00 -0.00000000000E+00 -0.25128900966E+02  0.25128900966E+02  0.00000000000E+00 0. -1.
         25    2    1    2    0    0  0.10872008445E+02 -0.43040599915E+02  0.44665182941E+03  0.46593431714E+03  0.12500494933E+03 0.  0.
          4    1    3    3  502    0  0.39923394524E+02 -0.34550321117E+02  0.42602336041E+03  0.42928442627E+03  0.12700000000E+01 0.  1.
         -4    1    3    3    0  502 -0.29051386079E+02 -0.84902787978E+01  0.20628469000E+02  0.36649890866E+02  0.12700000000E+01 0.  1.
          1    1    1    2  503    0  0.33268448527E+02  0.14162088569E+02  0.20840712164E+02  0.41733556086E+02  0.00000000000E+00 0. -1.
         -1    1    1    2    0  501 -0.44140456972E+02  0.28878511346E+02  0.13293826193E+03  0.14302073222E+03  0.00000000000E+00 0.  1.
<mgrwt>
<rscale>  0 0.41223304E+02</rscale>
<asrwt>0</asrwt>
<pdfrwt beam="2">  1        1 0.38659852E-02 0.36157356E+02</pdfrwt>
<pdfrwt beam="1">  1       -1 0.96239943E-01 0.46999033E+02</pdfrwt>
<totfact> 0.22773993E+03</totfact>
</mgrwt>
</event>
<event>
 7    1  0.3113530E-004  0.1402330E+03  0.7546771E-02  0.1321040E+00
         -3   -1    0    0    0  501 -0.00000000000E+00  0.00000000000E+00  0.79005566528E+03  0.79005566528E+03  0.00000000000E+00 0.  1.
          2   -1    0    0  503    0  0.00000000000E+00 -0.00000000000E+00 -0.50665106961E+03  0.50665106961E+03  0.00000000000E+00 0.  1.
         25    2    1    2    0    0 -0.14634174539E+03  0.23367270720E+02 -0.21060491546E+03  0.28625420062E+03  0.12500040468E+03 0.  0.
          4    1    3    3  502    0 -0.31338618658E+02 -0.48856699056E+02 -0.61832320458E+02  0.84817066769E+02  0.12700000000E+01 0.  1.
         -4    1    3    3    0  502 -0.11500312673E+03  0.72223969776E+02 -0.14877259501E+03  0.20143713385E+03  0.12700000000E+01 0.  1.
          2    1    1    2  503    0  0.13679296218E+03  0.24690704117E+02 -0.23863699803E+03  0.27616944472E+03  0.00000000000E+00 0.  1.
         -3    1    1    2    0  501  0.95487832163E+01 -0.48057974837E+02  0.73264650916E+03  0.73428308955E+03  0.00000000000E+00 0.  1.
<mgrwt>
<rscale>  0 0.82891826E+02</rscale>
<asrwt>0</asrwt>
<pdfrwt beam="2">  1        2 0.77946318E-01 0.14023296E+03</pdfrwt>
<pdfrwt beam="1">  1       -3 0.12154703E+00 0.48997431E+02</pdfrwt>
<totfact> 0.21707027E+01</totfact>
</mgrwt>
</event>
<event>
 7    1  0.3113530E-004  0.3691070E+03  0.7546771E-02  0.1182428E+00
          2   -1    0    0  502    0  0.00000000000E+00  0.00000000000E+00  0.33790322781E+04  0.33790322781E+04  0.00000000000E+00 0. -1.
          1   -1    0    0  503    0 -0.00000000000E+00 -0.00000000000E+00 -0.85339402804E+03  0.85339402804E+03  0.00000000000E+00 0. -1.
         25    2    1    2    0    0  0.34203986697E+03 -0.10454108774E+03  0.15995168997E+04  0.16437762235E+04  0.12500340342E+03 0.  0.
          4    1    3    3  501    0  0.87789228977E+02 -0.10482413153E+02  0.20664203385E+03  0.22476515024E+03  0.12700000000E+01 0. -1.
         -4    1    3    3    0  501  0.25425063799E+03 -0.94058674583E+02  0.13928748659E+04  0.14190110733E+04  0.12700000000E+01 0. -1.
          2    1    1    2  502    0  0.25893461707E+02  0.69716156399E+02  0.17154619193E+04  0.17170732105E+04  0.00000000000E+00 0. -1.
          1    1    1    2  503    0 -0.36793332868E+03  0.34824931337E+02 -0.78934056894E+03  0.87157687210E+03  0.00000000000E+00 0. -1.
<mgrwt>
<rscale>  0 0.16568127E+03</rscale>
<asrwt>0</asrwt>
<pdfrwt beam="1">  1        2 0.51985111E+00 0.74369441E+02</pdfrwt>
<pdfrwt beam="2">  1        1 0.13129139E+00 0.36910701E+03</pdfrwt>
<totfact> 0.43094448E+00</totfact>
</mgrwt>
</event>
<event>
 7    1  0.3113530E-004  0.4903196E+02  0.7546771E-02  0.1564406E+00
         -1   -1    0    0    0  501 -0.00000000000E+00  0.00000000000E+00  0.54983496554E+03  0.54983496554E+03  0.00000000000E+00 0.  1.
          1   -1    0    0  503    0  0.00000000000E+00 -0.00000000000E+00 -0.32386509538E+03  0.32386509538E+03  0.00000000000E+00 0. -1.
         25    2    1    2    0    0 -0.29210953174E+02  0.33323147191E+02 -0.26670343791E+03  0.29785427169E+03  0.12499092546E+03 0.  0.
          4    1    3    3  502    0  0.13742047668E+02  0.71465042898E+02 -0.17633639794E+03  0.19076748771E+03  0.12700000000E+01 0. -1.
         -4    1    3    3    0  502 -0.42953000843E+02 -0.38141895706E+02 -0.90367039974E+02  0.10708678398E+03  0.12700000000E+01 0. -1.
          1    1    1    2  503    0  0.17471139826E+02  0.14322622574E+02 -0.37298622275E+02  0.43606942886E+02  0.00000000000E+00 0. -1.
         -1    1    1    2    0  501  0.11739813348E+02 -0.47645769765E+02  0.52997193035E+03  0.53223884634E+03  0.00000000000E+00 0.  1.
<mgrwt>
<rscale>  0 0.33282249E+02</rscale>
<asrwt>0</asrwt>
<pdfrwt beam="2">  1        1 0.49825399E-01 0.22591552E+02</pdfrwt>
<pdfrwt beam="1">  1       -1 0.84589995E-01 0.49031959E+02</pdfrwt>
<totfact> 0.12353964E+02</totfact>
</mgrwt>
</event>
<event>
 7    1  0.3113530E-004  0.6066726E+02  0.7546771E-02  0.1426717E+00
          2   -1    0    0  503    0  0.00000000000E+00  0.00000000000E+00  0.20298952137E+03  0.20298952137E+03  0.00000000000E+00 0. -1.
          2   -1    0    0  502    0 -0.00000000000E+00 -0.00000000000E+00 -0.84490046618E+03  0.84490046618E+03  0.00000000000E+00 0. -1.
         25    2    1    2    0    0  0.73534002176E+02 -0.37172195601E+02 -0.21260027387E+02  0.15121354989E+03  0.12499810920E+03 0.  0.
          4    1    3    3  501    0  0.28661674713E+02 -0.70009199656E+02  0.24140812725E+02  0.79417701886E+02  0.12700000000E+01 0.  1.
         -4    1    3    3    0  501  0.44872327463E+02  0.32837004055E+02 -0.45400840113E+02  0.71795848001E+02  0.12700000000E+01 0.  1.
          2    1    1    2  502    0 -0.14058528529E+02  0.45266819221E+02 -0.75135504648E+03  0.75284867870E+03  0.00000000000E+00 0. -1.
          2    1    1    2  503    0 -0.59475473647E+02 -0.80946236198E+01  0.13070412906E+03  0.14382775897E+03  0.00000000000E+00 0. -1.
<mgrwt>
<rscale>  0 0.53624687E+02</rscale>
<asrwt>0</asrwt>
<pdfrwt beam="1">  1        2 0.31229158E-01 0.60667260E+02</pdfrwt>
<pdfrwt beam="2">  1        2 0.12998469E+00 0.47399653E+02</pdfrwt>
<totfact> 0.89456426E+02</totfact>
</mgrwt>
</event>
<event>
 7    1  0.3113530E-004  0.3842317E+02  0.7546771E-02  0.1546489E+00
          1   -1    0    0  503    0  0.00000000000E+00  0.00000000000E+00  0.23728581322E+03  0.23728581322E+03  0.00000000000E+00 0. -1.
         -3   -1    0    0    0  501 -0.00000000000E+00 -0.00000000000E+00 -0.67357956324E+02  0.67357956324E+02  0.00000000000E+00 0.  1.
         25    2    1    2    0    0 -0.42983359979E+02 -0.28070834567E+02  0.31189699903E+02  0.13868517705E+03  0.12500095985E+03 0.  0.
          4    1    3    3  502    0 -0.83900258227E+02 -0.31139490914E+01  0.34157142237E+02  0.90649176915E+02  0.12700000000E+01 0. -1.
         -4    1    3    3    0  502  0.40916898248E+02 -0.24956885475E+02 -0.29674423348E+01  0.48036000134E+02  0.12700000000E+01 0. -1.
          1    1    1    2  503    0  0.64902147396E+01  0.31660227013E+02  0.12096728120E+03  0.12521012732E+03  0.00000000000E+00 0. -1.
         -3    1    1    2    0  501  0.36493145240E+02 -0.35893924458E+01  0.17770875787E+02  0.40748465172E+02  0.00000000000E+00 0.  1.
<mgrwt>
<rscale>  0 0.35238950E+02</rscale>
<asrwt>0</asrwt>
<pdfrwt beam="1">  1        1 0.36505509E-01 0.32318615E+02</pdfrwt>
<pdfrwt beam="2">  1       -3 0.10362763E-01 0.38423170E+02</pdfrwt>
<totfact> 0.35137652E+03</totfact>
</mgrwt>
</event>
<event>
 7    1  0.3113530E-004  0.4581196E+02  0.7546771E-02  0.1473601E+00
         -1   -1    0    0    0  501  0.00000000000E+00  0.00000000000E+00  0.57919389263E+03  0.57919389263E+03  0.00000000000E+00 0.  1.
         -1   -1    0    0    0  502 -0.00000000000E+00 -0.00000000000E+00 -0.41679820978E+03  0.41679820978E+03  0.00000000000E+00 0.  1.
         25    2    1    2    0    0  0.57039738183E+02  0.33465851960E+02  0.17839449358E+03  0.22764724679E+03  0.12500071460E+03 0.  0.
          4    1    3    3  503    0  0.62659070787E+02  0.65481542464E+02  0.17210615918E+03  0.19451512662E+03  0.12700000000E+01 0. -1.
         -4    1    3    3    0  503 -0.56193326035E+01 -0.32015690504E+02  0.62883343971E+01  0.33132120168E+02  0.12700000000E+01 0. -1.
         -1    1    1    2    0  502 -0.43301762106E+02  0.99763157563E+01 -0.38952433214E+03  0.39205072989E+03  0.00000000000E+00 0.  1.
         -1    1    1    2    0  501 -0.13737976078E+02 -0.43442167716E+02  0.37352552141E+03  0.37629412574E+03  0.00000000000E+00 0.  1.
<mgrwt>
<rscale>  0 0.45118799E+02</rscale>
<asrwt>0</asrwt>
<pdfrwt beam="1">  1       -1 0.89106753E-01 0.45811958E+02</pdfrwt>
<pdfrwt beam="2">  1       -1 0.64122801E-01 0.44436128E+02</pdfrwt>
<totfact> 0.31144924E+01</totfact>
</mgrwt>
</event>
<event>
 7    1  0.3113530E-004  0.5801290E+02  0.7546771E-02  0.1444512E+00
         -1   -1    0    0    0  501 -0.00000000000E+00  0.00000000000E+00  0.25452387144E+02  0.25452387144E+02  0.00000000000E+00 0.  1.
          2   -1    0    0  503    0  0.00000000000E+00 -0.00000000000E+00 -0.70418901731E+03  0.70418901731E+03  0.00000000000E+00 0. -1.
         25    2    1    2    0    0 -0.95133282165E+01 -0.73767389965E+02 -0.48739451886E+03  0.50863660508E+03  0.12500259110E+03 0.  0.
          4    1    3    3  502    0 -0.10631026967E+02 -0.10121454127E+03 -0.45452414475E+03  0.46578021980E+03  0.12700000000E+01 0.  1.
         -4    1    3    3    0  502  0.11176987501E+01  0.27447151303E+02 -0.32870374103E+02  0.42856385275E+02  0.12700000000E+01 0.  1.
          2    1    1    2  503    0 -0.29522813994E+02  0.31756761117E+02 -0.12995744017E+03  0.13700009007E+03  0.00000000000E+00 0. -1.
         -1    1    1    2    0  501  0.39036142210E+02  0.42010628848E+02 -0.61384671141E+02  0.84004709308E+02  0.00000000000E+00 0.  1.
<mgrwt>
<rscale>  0 0.50154147E+02</rscale>
<asrwt>0</asrwt>
<pdfrwt beam="2">  1        2 0.10833678E+00 0.43359986E+02</pdfrwt>
<pdfrwt beam="1">  1       -1 0.39157517E-02 0.58012899E+02</pdfrwt>
<totfact> 0.10866758E+04</totfact>
</mgrwt>
</event>
<event>
 7    1  0.3113530E-004  0.3534436E+02  0.7546771E-02  0.1612905E+00
          1   -1    0    0  503    0 -0.00000000000E+00  0.00000000000E+00  0.13426536840E+03  0.13426536840E+03  0.00000000000E+00 0. -1.
          2   -1    0    0  502    0  0.00000000000E+00 -0.00000000000E+00 -0.15247707998E+03  0.15247707998E+03  0.00000000000E+00 0.  1.
         25    2    1    2    0    0  0.28553558946E+02  0.50384858620E+02 -0.70667355079E+02  0.15483084421E+03  0.12499910215E+03 0.  0.
          4    1    3    3  501    0 -0.34115311930E+02  0.61822460398E+02 -0.19928773487E+02  0.73380106503E+02  0.12700000000E+01 0.  1.
         -4    1    3    3    0  501  0.62668870876E+02 -0.11437601778E+02 -0.50738581591E+02  0.81450737708E+02  0.12700000000E+01 0.  1.
          2    1    1    2  502    0 -0.10357357620E+02 -0.20878912483E+02 -0.32593404248E+02  0.40069113339E+02  0.00000000000E+00 0.  1.
          1    1    1    2  503    0 -0.18196201326E+02 -0.29505946137E+02  0.85049047741E+02  0.91842490830E+02  0.00000000000E+00 0. -1.
<mgrwt>
<rscale>  0 0.28701248E+02</rscale>
<asrwt>0</asrwt>
<pdfrwt beam="2">  1        2 0.23458012E-01 0.23306734E+02</pdfrwt>
<pdfrwt beam="1">  1        1 0.20656210E-01 0.35344361E+02</pdfrwt>
<totfact> 0.65172440E+03</totfact>
</mgrwt>
</event>
<event>
 7    1  0.3113530E-004  0.7255201E+02  0.7546771E-02  0.1435411E+00
          2   -1    0    0  503    0  0.00000000000E+00  0.00000000000E+00  0.26608886589E+03  0.26608886589E+03  0.00000000000E+00 0. -1.
         -1   -1    0    0    0  501 -0.00000000000E+00 -0.00000000000E+00 -0.68574664992E+02  0.68574664992E+02  0.00000000000E+00 0.  1.
         25    2    1    2    0    0 -0.53838515538E+02  0.68612154376E+02  0.10377537076E+03  0.18439232828E+03  0.12499995868E+03 0.  0.
          4    1    3    3  502    0 -0.93545556516E+02  0.42078860428E+02  0.56187484056E+02  0.11696173692E+03  0.12700000000E+01 0. -1.
         -4    1    3    3    0  502  0.39707040977E+02  0.26533293948E+02  0.47587886699E+02  0.67430591362E+02  0.12700000000E+01 0. -1.
          2    1    1    2  503    0  0.61882718622E+02 -0.32383552716E+02  0.88580212776E+02  0.11280345494E+03  0.00000000000E+00 0. -1.
         -1    1    1    2    0  501 -0.80442030834E+01 -0.36228601660E+02  0.51586173631E+01  0.37467747658E+02  0.00000000000E+00 0.  1.
<mgrwt>
<rscale>  0 0.51889037E+02</rscale>
<asrwt>0</asrwt>
<pdfrwt beam="1">  1        2 0.40936748E-01 0.72552009E+02</pdfrwt>
<pdfrwt beam="2">  1       -1 0.10549949E-01 0.37110925E+02</pdfrwt>
<totfact> 0.68590912E+03</totfact>
</mgrwt>
</event>
<event>
 7    1  0.3113530E-004  0.1396079E+03  0.7546771E-02  0.1251232E+00
          1   -1    0    0  503    0  0.00000000000E+00  0.00000000000E+00  0.41354701333E+03  0.41354701333E+03  0.00000000000E+00 0. -1.
          1   -1    0    0  502    0 -0.00000000000E+00 -0.00000000000E+00 -0.15475990023E+04  0.15475990023E+04  0.00000000000E+00 0. -1.
         25    2    1    2    0    0 -0.46394174997E+02 -0.21913694128E+03 -0.24870832181E+03  0.35728811124E+03  0.12500218634E+03 0.  0.
          4    1    3    3  501    0 -0.42882196666E+02 -0.29119771777E+02 -0.11123484890E+03  0.12272590766E+03  0.12700000000E+01 0. -1.
         -4    1    3    3    0  501 -0.35119783309E+01 -0.19001716951E+03 -0.13747347290E+03  0.23456220359E+03  0.12700000000E+01 0. -1.
          1    1    1    2  502    0  0.50817451888E+02  0.12418018323E+03 -0.12346134958E+04  0.12418830924E+04  0.00000000000E+00 0. -1.
          1    1    1    2  503    0 -0.44232768909E+01  0.94956758057E+02  0.34926982863E+03  0.36197481193E+03  0.00000000000E+00 0. -1.
<mgrwt>
<rscale>  0 0.11520023E+03</rscale>
<asrwt>0</asrwt>
<pdfrwt beam="1">  1        1 0.63622617E-01 0.95059725E+02</pdfrwt>
<pdfrwt beam="2">  1        1 0.23809216E+00 0.13960794E+03</pdfrwt>
<totfact> 0.50314577E+01</totfact>
</mgrwt>
</event>
<event>
 7    1  0.3113530E-004  0.8131729E+02  0.7546771E-02  0.1342748E+00
          2   -1    0    0  503    0  0.00000000000E+00  0.00000000000E+00  0.42368973919E+03  0.42368973919E+03  0.00000000000E+00 0. -1.
         -1   -1    0    0    0  501 -0.00000000000E+00 -0.00000000000E+00 -0.80529687832E+02  0.80529687832E+02  0.00000000000E+00 0.  1.
         25    2    1    2    0    0  0.76066829158E+02 -0.10647274573E+03  0.29270186817E+03  0.34412503901E+03  0.12500020305E+03 0.  0.
          4    1    3    3  502    0  0.32341108521E+02 -0.36278833739E+02  0.24260246186E+03  0.24742608690E+03  0.12700000000E+01 0. -1.
         -4    1    3    3    0  502  0.43725720637E+02 -0.70193911995E+02  0.50099406305E+02  0.96698952106E+02  0.12700000000E+01 0. -1.
          2    1    1    2  503    0 -0.94487530627E+01  0.69204061954E+02  0.45993926819E+02  0.83629674336E+02  0.00000000000E+00 0. -1.
         -1    1    1    2    0  501 -0.66618076096E+02  0.37268683780E+02  0.44642563748E+01  0.76464713681E+02  0.00000000000E+00 0.  1.
<mgrwt>
<rscale>  0 0.75363768E+02</rscale>
<asrwt>0</asrwt>
<pdfrwt beam="1">  1        2 0.65183035E-01 0.69846125E+02</pdfrwt>
<pdfrwt beam="2">  1       -1 0.12389183E-01 0.81317289E+02</pdfrwt>
<totfact> 0.35192411E+03</totfact>
</mgrwt>
</event>
<event>
 7    1  0.3113530E-004  0.9865858E+02  0.7546771E-02  0.1446378E+00
         -1   -1    0    0    0  501 -0.00000000000E+00  0.00000000000E+00  0.68336527310E+02  0.68336527310E+02  0.00000000000E+00 0.  1.
          2   -1    0    0  503    0  0.00000000000E+00 -0.00000000000E+00 -0.45924325686E+03  0.45924325686E+03  0.00000000000E+00 0. -1.
         25    2    1    2    0    0  0.93085088331E+02  0.56553791742E+02 -0.34990069005E+03  0.38719291327E+03  0.12499877662E+03 0.  0.
          4    1    3    3  502    0 -0.99460666767E+01 -0.36687846158E+01 -0.17573544024E+03  0.17605948449E+03  0.12700000000E+01 0.  1.
         -4    1    3    3    0  502  0.10303115501E+03  0.60222576358E+02 -0.17416524981E+03  0.21113342878E+03  0.12700000000E+01 0.  1.
          2    1    1    2  503    0 -0.22658595233E+02  0.10904654087E+02 -0.34441326836E+02  0.42644207261E+02  0.00000000000E+00 0. -1.
         -1    1    1    2    0  501 -0.70426493098E+02 -0.67458445829E+02 -0.65647126645E+01  0.97742663643E+02  0.00000000000E+00 0.  1.
<mgrwt>
<rscale>  0 0.49808360E+02</rscale>
<asrwt>0</asrwt>
<pdfrwt beam="2">  1        2 0.70652812E-01 0.25146042E+02</pdfrwt>
<pdfrwt beam="1">  1       -1 0.10513311E-01 0.98658578E+02</pdfrwt>
<totfact> 0.42281986E+03</totfact>
</mgrwt>
</event>
<event>
 7    1  0.3113530E-004  0.7576366E+02  0.7546771E-02  0.1424118E+00
         -1   -1    0    0    0  501 -0.00000000000E+00  0.00000000000E+00  0.70876341460E+03  0.70876341460E+03  0.00000000000E+00 0.  1.
          2   -1    0    0  503    0  0.00000000000E+00 -0.00000000000E+00 -0.32087675926E+02  0.32087675926E+02  0.00000000000E+00 0. -1.
         25    2    1    2    0    0 -0.10600358883E+03  0.13780969411E+02  0.41635061724E+03  0.44768014890E+03  0.12507199239E+03 0.  0.
          4    1    3    3  502    0 -0.10336384433E+03 -0.23463147233E+02  0.38367120965E+03  0.39804498942E+03  0.12700000000E+01 0.  1.
         -4    1    3    3    0  502 -0.26397444991E+01  0.37244116644E+02  0.32679407590E+02  0.49635159474E+02  0.12700000000E+01 0.  1.
          2    1    1    2  503    0  0.67504838600E+02 -0.17869383679E+02  0.69731111979E+02  0.98684578761E+02  0.00000000000E+00 0. -1.
         -1    1    1    2    0  501  0.38498750227E+02  0.40884142682E+01  0.19059400946E+03  0.19448636287E+03  0.00000000000E+00 0.  1.
<mgrwt>
<rscale>  0 0.54159092E+02</rscale>
<asrwt>0</asrwt>
<pdfrwt beam="2">  1        2 0.49365661E-02 0.75763656E+02</pdfrwt>
<pdfrwt beam="1">  1       -1 0.10904051E+00 0.38715228E+02</pdfrwt>
<totfact> 0.14840297E+03</totfact>
</mgrwt>
</event>
<event>
 7    1  0.3113530E-004  0.4386615E+03  0.7546771E-02  0.1125714E+00
          2   -1    0    0  502    0  0.00000000000E+00  0.00000000000E+00  0.25405106253E+04  0.25405106253E+04  0.00000000000E+00 0. -1.
          1   -1    0    0  503    0 -0.00000000000E+00 -0.00000000000E+00 -0.30795079129E+03  0.30795079129E+03  0.00000000000E+00 0. -1.
         25    2    1    2    0    0 -0.69062112590E+02 -0.67622737602E+02  0.11448374927E+04  0.11556902088E+04  0.12499825635E+03 0.  0.
          4    1    3    3  501    0 -0.42219662348E+02 -0.60702740494E+02  0.11030629572E+04  0.11055391549E+04  0.12700000000E+01 0. -1.
         -4    1    3    3    0  501 -0.26842450242E+02 -0.69199971083E+01  0.41774535528E+02  0.50151053962E+02  0.12700000000E+01 0. -1.
          2    1    1    2  502    0  0.48298089102E+03 -0.77618872269E+02  0.11499933021E+04  0.12497118969E+04  0.00000000000E+00 0. -1.
          1    1    1    2  503    0 -0.41391877843E+03  0.14524160987E+03 -0.62270960769E+02  0.44305931085E+03  0.00000000000E+00 0. -1.
<mgrwt>
<rscale>  0 0.23131995E+03</rscale>
<asrwt>0</asrwt>
<pdfrwt beam="1">  1        2 0.39084778E+00 0.12198226E+03</pdfrwt>
<pdfrwt beam="2">  1        1 0.47377046E-01 0.43866146E+03</pdfrwt>
<totfact> 0.48829148E+01</totfact>
</mgrwt>
</event>
<event>
 7    1  0.3113530E-004  0.1464338E+03  0.7546771E-02  0.1223997E+00
          2   -1    0    0  503    0  0.00000000000E+00  0.00000000000E+00  0.59474375504E+03  0.59474375504E+03  0.00000000000E+00 0. -1.
         -2   -1    0    0    0  501 -0.00000000000E+00 -0.00000000000E+00 -0.35152974445E+03  0.35152974445E+03  0.00000000000E+00 0.  1.
         25    2    1    2    0    0 -0.28890801586E+02  0.14146670649E+03  0.75765373059E+02  0.20545955267E+03  0.12500291424E+03 0.  0.
          4    1    3    3  502    0 -0.65502144923E+02  0.13529287254E+03  0.75708644756E+02  0.16830954857E+03  0.12700000000E+01 0. -1.
         -4    1    3    3    0  502  0.36611343337E+02  0.61738339495E+01  0.56728303131E-01  0.37150004100E+02  0.12700000000E+01 0. -1.
          2    1    1    2  503    0  0.13219117854E+03 -0.81118734587E+02  0.42739088383E+03  0.45466220908E+03  0.00000000000E+00 0. -1.
         -2    1    1    2    0  501 -0.10330037696E+03 -0.60347971906E+02 -0.25994224630E+03  0.28615173773E+03  0.00000000000E+00 0.  1.
<mgrwt>
<rscale>  0 0.13235858E+03</rscale>
<asrwt>0</asrwt>
<pdfrwt beam="1">  1        2 0.91499040E-01 0.14643376E+03</pdfrwt>
<pdfrwt beam="2">  1       -2 0.54081499E-01 0.11963631E+03</pdfrwt>
<totfact> 0.17196717E+02</totfact>
</mgrwt>
</event>
<event>
 7    1  0.3113530E-004  0.5471940E+02  0.7546771E-02  0.1442824E+00
         -2   -1    0    0    0  501 -0.00000000000E+00  0.00000000000E+00  0.30991449712E+02  0.30991449712E+02  0.00000000000E+00 0.  1.
          2   -1    0    0  503    0  0.00000000000E+00 -0.00000000000E+00 -0.66906219533E+03  0.66906219533E+03  0.00000000000E+00 0. -1.
         25    2    1    2    0    0  0.77431063787E+02  0.38638719844E+02 -0.39308001447E+03  0.42145588837E+03  0.12499859104E+03 0.  0.
          4    1    3    3  502    0  0.11141345707E+03  0.34028362353E+02 -0.32427777095E+03  0.34457012855E+03  0.12700000000E+01 0.  1.
         -4    1    3    3    0  502 -0.33982393286E+02  0.46103574914E+01 -0.68802243519E+02  0.76885759819E+02  0.12700000000E+01 0.  1.
          2    1    1    2  503    0 -0.49694914462E+02 -0.12538681598E+01 -0.22042948666E+03  0.22596529667E+03  0.00000000000E+00 0. -1.
         -2    1    1    2    0  501 -0.27736149325E+02 -0.37384851684E+02 -0.24561244490E+02  0.52632460001E+02  0.00000000000E+00 0.  1.
<mgrwt>
<rscale>  0 0.50469782E+02</rscale>
<asrwt>0</asrwt>
<pdfrwt beam="2">  1        2 0.10293264E+00 0.54719398E+02</pdfrwt>
<pdfrwt beam="1">  1       -2 0.47679156E-02 0.46550200E+02</pdfrwt>
<totfact> 0.82149138E+03</totfact>
</mgrwt>
</event>
<event>
 7    1  0.3113530E-004  0.4176763E+02  0.7546771E-02  0.1531977E+00
          1   -1    0    0  503    0  0.00000000000E+00  0.00000000000E+00  0.91768727998E+02  0.91768727998E+02  0.00000000000E+00 0. -1.
         -2   -1    0    0    0  501 -0.00000000000E+00 -0.00000000000E+00 -0.14645800245E+03  0.14645800245E+03  0.00000000000E+00 0.  1.
         25    2    1    2    0    0 -0.27121035499E+02  0.19854244133E+02  0.97892535543E+01  0.12981104041E+03  0.12500134059E+03 0.  0.
          4    1    3    3  502    0 -0.20688535646E+02 -0.52507880507E+02  0.88919195772E+01  0.57146934793E+02  0.12700000000E+01 0. -1.
         -4    1    3    3    0  502 -0.64324998527E+01  0.72362124639E+02  0.89733397710E+00  0.72664105616E+02  0.12700000000E+01 0. -1.
          1    1    1    2  503    0  0.12612624403E+02 -0.49136178080E+02 -0.23240947149E+02  0.55799497444E+02  0.00000000000E+00 0. -1.
         -2    1    1    2    0  501  0.14508411096E+02  0.29281933947E+02 -0.41237580862E+02  0.52616192599E+02  0.00000000000E+00 0.  1.
<mgrwt>
<rscale>  0 0.36944957E+02</rscale>
<asrwt>0</asrwt>
<pdfrwt beam="1">  1        1 0.14118266E-01 0.41767629E+02</pdfrwt>
<pdfrwt beam="2">  1       -2 0.22532000E-01 0.32679132E+02</pdfrwt>
<totfact> 0.51004295E+03</totfact>
</mgrwt>
</event>
<event>
 7    1  0.3113530E-004  0.1391740E+03  0.7546771E-02  0.1268179E+00
         -1   -1    0    0    0  501 -0.00000000000E+00  0.00000000000E+00  0.14241551923E+03  0.14241551923E+03  0.00000000000E+00 0.  1.
          1   -1    0    0  503    0  0.00000000000E+00 -0.00000000000E+00 -0.20608956766E+04  0.20608956766E+04  0.00000000000E+00 0. -1.
         25    2    1    2    0    0  0.12679945725E+03 -0.17406206551E+03 -0.96426617254E+03  0.99589668421E+03  0.12500099640E+03 0.  0.
          4    1    3    3  502    0  0.29201914380E+02  0.16877114951E+02 -0.16097522267E+03  0.16447560314E+03  0.12700000000E+01 0.  1.
         -4    1    3    3    0  502  0.97597542875E+02 -0.19093918046E+03 -0.80329094987E+03  0.83142108107E+03  0.12700000000E+01 0.  1.
          1    1    1    2  503    0 -0.36342383116E+02  0.72076318330E+02 -0.10420980307E+04  0.10452196276E+04  0.00000000000E+00 0. -1.
         -1    1    1    2    0  501 -0.90457074139E+02  0.10198574718E+03  0.87884045821E+02  0.16219488401E+03  0.00000000000E+00 0.  1.
<mgrwt>
<rscale>  0 0.10599135E+03</rscale>
<asrwt>0</asrwt>
<pdfrwt beam="2">  1        1 0.31706082E+00 0.80720285E+02</pdfrwt>
<pdfrwt beam="1">  1       -1 0.21910083E-01 0.13917401E+03</pdfrwt>
<totfact> 0.61348494E+01</totfact>
</mgrwt>
</event>
<event>
 7    1  0.3113530E-004  0.4980842E+02  0.7546771E-02  0.1533654E+00
          1   -1    0    0  503    0  0.00000000000E+00  0.00000000000E+00  0.14310401181E+04  0.14310401181E+04  0.00000000000E+00 0. -1.
         -3   -1    0    0    0  501 -0.00000000000E+00 -0.00000000000E+00 -0.16649028875E+02  0.16649028875E+02  0.00000000000E+00 0.  1.
         25    2    1    2    0    0  0.68855073324E+02  0.29379169171E+02  0.44704297733E+03  0.47018780277E+03  0.12499995834E+03 0.  0.
          4    1    3    3  502    0 -0.23782256681E+02 -0.52001443938E+01  0.23452782995E+03  0.23579133393E+03  0.12700000000E+01 0.  1.
         -4    1    3    3    0  502  0.92637330005E+02  0.34579313565E+02  0.21251514738E+03  0.23439646884E+03  0.12700000000E+01 0.  1.
          1    1    1    2  503    0 -0.42405872350E+02 -0.23460374584E+02  0.93048793222E+03  0.93174912890E+03  0.00000000000E+00 0. -1.
         -3    1    1    2    0  501 -0.26449200975E+02 -0.59187945876E+01  0.36860179714E+02  0.45752215358E+02  0.00000000000E+00 0.  1.
<mgrwt>
<rscale>  0 0.36742017E+02</rscale>
<asrwt>0</asrwt>
<pdfrwt beam="1">  1        1 0.22015992E+00 0.49808421E+02</pdfrwt>
<pdfrwt beam="2">  1       -3 0.25613902E-02 0.27103364E+02</pdfrwt>
<totfact> 0.22495486E+03</totfact>
</mgrwt>
</event>
<event>
 7    1  0.3113530E-004  0.3044279E+03  0.7546771E-02  0.1167186E+00
          1   -1    0    0  503    0  0.00000000000E+00  0.00000000000E+00  0.21730321910E+04  0.21730321910E+04  0.00000000000E+00 0. -1.
          1   -1    0    0  502    0 -0.00000000000E+00 -0.00000000000E+00 -0.16158183250E+04  0.16158183250E+04  0.00000000000E+00 0. -1.
         25    2    1    2    0    0  0.22518458740E+03  0.24430143135E+03 -0.64042899101E+03  0.73223340756E+03  0.12500073146E+03 0.  0.
          4    1    3    3  501    0  0.15795915717E+03  0.13385056978E+03 -0.50087543186E+03  0.54198236273E+03  0.12700000000E+01 0.  1.
         -4    1    3    3    0  501  0.67225430229E+02  0.11045086157E+03 -0.13955355915E+03  0.19025104484E+03  0.12700000000E+01 0.  1.
          1    1    1    2  502    0 -0.10172312693E+03  0.33784687716E+02 -0.91546408248E+03  0.92171768236E+03  0.00000000000E+00 0. -1.
          1    1    1    2  503    0 -0.12346146047E+03 -0.27808611907E+03  0.21131069395E+04  0.21348994261E+04  0.00000000000E+00 0. -1.
<mgrwt>
<rscale>  0 0.18063951E+03</rscale>
<asrwt>0</asrwt>
<pdfrwt beam="1">  1        1 0.33431264E+00 0.30442785E+03</pdfrwt>
<pdfrwt beam="2">  1        1 0.24858743E+00 0.10718675E+03</pdfrwt>
<totfact> 0.20472855E+00</totfact>
</mgrwt>
</event>
<event>
 7    1  0.3113530E-004  0.1011250E+03  0.7546771E-02  0.1313359E+00
         -2   -1    0    0    0  501 -0.00000000000E+00  0.00000000000E+00  0.80172873342E+02  0.80172873342E+02  0.00000000000E+00 0.  1.
          2   -1    0    0  503    0  0.00000000000E+00 -0.00000000000E+00 -0.50829540590E+03  0.50829540590E+03  0.00000000000E+00 0. -1.
         25    2    1    2    0    0  0.97843945874E+02 -0.12406339997E+03 -0.28015859314E+03  0.34508296065E+03  0.12501298918E+03 0.  0.
          4    1    3    3  502    0  0.14463785584E+02 -0.10587860991E+03 -0.20576234506E+03  0.23186038186E+03  0.12700000000E+01 0. -1.
         -4    1    3    3    0  502  0.83380160290E+02 -0.18184790056E+02 -0.74396248077E+02  0.11322257879E+03  0.12700000000E+01 0. -1.
          2    1    1    2  503    0 -0.60753813909E+02  0.40098834591E+02 -0.13124899018E+03  0.15008410930E+03  0.00000000000E+00 0. -1.
         -2    1    1    2    0  501 -0.37090131965E+02  0.83964565378E+02 -0.16714949236E+02  0.93301209297E+02  0.00000000000E+00 0.  1.
<mgrwt>
<rscale>  0 0.85797896E+02</rscale>
<asrwt>0</asrwt>
<pdfrwt beam="2">  1        2 0.78199293E-01 0.72793835E+02</pdfrwt>
<pdfrwt beam="1">  1       -2 0.12334288E-01 0.10112503E+03</pdfrwt>
<totfact> 0.27970073E+03</totfact>
</mgrwt>
</event>
<event>
 7    1  0.3113530E-004  0.5757336E+02  0.7546771E-02  0.1472076E+00
          2   -1    0    0  503    0  0.00000000000E+00  0.00000000000E+00  0.84364143034E+02  0.84364143034E+02  0.00000000000E+00 0. -1.
          2   -1    0    0  502    0 -0.00000000000E+00 -0.00000000000E+00 -0.16770009109E+04  0.16770009109E+04  0.00000000000E+00 0. -1.
         25    2    1    2    0    0 -0.70733950551E+02 -0.34361203138E+02 -0.40581892354E+02  0.15315568797E+03  0.12500316288E+03 0.  0.
          4    1    3    3  501    0 -0.13808366384E+02 -0.66524950164E+02  0.12293514718E+02  0.69057826353E+02  0.12700000000E+01 0. -1.
         -4    1    3    3    0  501 -0.56925584168E+02  0.32163747026E+02 -0.52875407072E+02  0.84097861617E+02  0.12700000000E+01 0. -1.
          2    1    1    2  502    0  0.57430916173E+02  0.11835484508E+01 -0.15680121331E+04  0.15690639759E+04  0.00000000000E+00 0. -1.
          2    1    1    2  503    0  0.13303034378E+02  0.33177654687E+02  0.15957257582E+02  0.39145390070E+02  0.00000000000E+00 0. -1.
<mgrwt>
<rscale>  0 0.45364943E+02</rscale>
<asrwt>0</asrwt>
<pdfrwt beam="1">  1        2 0.12979101E-01 0.35745314E+02</pdfrwt>
<pdfrwt beam="2">  1        2 0.25800009E+00 0.57573365E+02</pdfrwt>
<totfact> 0.81202248E+02</totfact>
</mgrwt>
</event>
<event>
 7    1  0.3113530E-004  0.6129581E+02  0.7546771E-02  0.1423868E+00
         -2   -1    0    0    0  501 -0.00000000000E+00  0.00000000000E+00  0.45078303697E+02  0.45078303697E+02  0.00000000000E+00 0. -1.
          2   -1    0    0  503    0  0.00000000000E+00 -0.00000000000E+00 -0.93220763744E+03  0.93220763744E+03  0.00000000000E+00 0.  1.
         25    2    1    2    0    0  0.59713834531E+02 -0.72390649175E+02 -0.46953289920E+03  0.49486777535E+03  0.12500729389E+03 0.  0.
          4    1    3    3  502    0  0.63472696383E+02 -0.57314440830E+02 -0.47146379088E+03  0.47915910439E+03  0.12700000000E+01 0.  1.
         -4    1    3    3    0  502 -0.37588618515E+01 -0.15076208344E+02  0.19308916815E+01  0.15708670954E+02  0.12700000000E+01 0.  1.
          2    1    1    2  503    0 -0.45807606785E+02  0.14155095077E+02 -0.41977646321E+03  0.42250560070E+03  0.00000000000E+00 0.  1.
         -2    1    1    2    0  501 -0.13906227746E+02  0.58235554098E+02  0.21800286616E+01  0.59912565094E+02  0.00000000000E+00 0. -1.
<mgrwt>
<rscale>  0 0.54210840E+02</rscale>
<asrwt>0</asrwt>
<pdfrwt beam="2">  1        2 0.14341655E+00 0.47944797E+02</pdfrwt>
<pdfrwt beam="1">  1       -2 0.69351242E-02 0.61295811E+02</pdfrwt>
<totfact> 0.33024866E+03</totfact>
</mgrwt>
</event>
<event>
 7    1  0.3113530E-004  0.1119040E+03  0.7546771E-02  0.1292579E+00
          1   -1    0    0  503    0 -0.00000000000E+00  0.00000000000E+00  0.61670400294E+03  0.61670400294E+03  0.00000000000E+00 0. -1.
          2   -1    0    0  502    0  0.00000000000E+00 -0.00000000000E+00 -0.89248162698E+03  0.89248162698E+03  0.00000000000E+00 0. -1.
         25    2    1    2    0    0 -0.75943863038E+02  0.15715699296E+03 -0.40260915754E+03  0.45627287752E+03  0.12500005703E+03 0.  0.
          4    1    3    3  501    0 -0.52356721528E+02  0.42919076427E+02 -0.27570660139E+03  0.28389965896E+03  0.12700000000E+01 0.  1.
         -4    1    3    3    0  501 -0.23587141509E+02  0.11423791653E+03 -0.12690255615E+03  0.17237321856E+03  0.12700000000E+01 0.  1.
          2    1    1    2  502    0  0.61095973737E+02 -0.78954264954E+02 -0.45491767324E+03  0.46574304438E+03  0.00000000000E+00 0. -1.
          1    1    1    2  503    0  0.14847889301E+02 -0.78202728007E+02  0.58174920673E+03  0.58716970802E+03  0.00000000000E+00 0. -1.
<mgrwt>
<rscale>  0 0.94379756E+02</rscale>
<asrwt>0</asrwt>
<pdfrwt beam="2">  1        2 0.13730487E+00 0.11190405E+03</pdfrwt>
<pdfrwt beam="1">  1        1 0.94877539E-01 0.79599789E+02</pdfrwt>
<totfact> 0.15445634E+02</totfact>
</mgrwt>
</event>
<event>
 7    1  0.3113530E-004  0.8021321E+02  0.7546771E-02  0.1407473E+00
          2   -1    0    0  502    0  0.00000000000E+00  0.00000000000E+00  0.11272763384E+03  0.11272763384E+03  0.00000000000E+00 0. -1.
          1   -1    0    0  503    0 -0.00000000000E+00 -0.00000000000E+00 -0.61550178714E+03  0.61550178714E+03  0.00000000000E+00 0. -1.
         25    2    1    2    0    0  0.37620535422E+02 -0.24054884470E+02 -0.10675637015E+03  0.17033993431E+03  0.12499931401E+03 0.  0.
          4    1    3    3  501    0  0.65900358102E+02 -0.85220863401E+01 -0.11859523928E+03  0.13594825057E+03  0.12700000000E+01 0. -1.
         -4    1    3    3    0  501 -0.28279822680E+02 -0.15532798129E+02  0.11838869130E+02  0.34391683745E+02  0.12700000000E+01 0. -1.
          2    1    1    2  502    0 -0.74372170029E+02  0.43532928741E+02  0.56770282469E+02  0.10319496369E+03  0.00000000000E+00 0. -1.
          1    1    1    2  503    0  0.36751634607E+02 -0.19478044272E+02 -0.45278806562E+03  0.45469452297E+03  0.00000000000E+00 0. -1.
<mgrwt>
<rscale>  0 0.57761611E+02</rscale>
<asrwt>0</asrwt>
<pdfrwt beam="1">  1        2 0.17342713E-01 0.80213211E+02</pdfrwt>
<pdfrwt beam="2">  1        1 0.94692581E-01 0.41594193E+02</pdfrwt>
<totfact> 0.15360549E+03</totfact>
</mgrwt>
</event>
<event>
 7    1  0.3113530E-004  0.9966588E+02  0.7546771E-02  0.1378522E+00
          2   -1    0    0  502    0  0.00000000000E+00  0.00000000000E+00  0.37726317341E+03  0.37726317341E+03  0.00000000000E+00 0. -1.
          3   -1    0    0  503    0 -0.00000000000E+00 -0.00000000000E+00 -0.22098138933E+03  0.22098138933E+03  0.00000000000E+00 0. -1.
         25    2    1    2    0    0 -0.12740398495E+03 -0.44146961667E+02 -0.70887568253E+01  0.18401825983E+03  0.12502695658E+03 0.  0.
          4    1    3    3  501    0 -0.12759016109E+03 -0.66212556699E+02 -0.35451645644E+02  0.14806006872E+03  0.12700000000E+01 0.  1.
         -4    1    3    3    0  501  0.18617613904E+00  0.22065595031E+02  0.28362888819E+02  0.35958191108E+02  0.12700000000E+01 0.  1.
          2    1    1    2  502    0  0.38888199135E+02  0.16390729814E+02  0.26977852686E+03  0.27305933716E+03  0.00000000000E+00 0. -1.
          3    1    1    2  503    0  0.88515785817E+02  0.27756231854E+02 -0.10640798595E+03  0.14116696575E+03  0.00000000000E+00 0. -1.
<mgrwt>
<rscale>  0 0.64853896E+02</rscale>
<asrwt>0</asrwt>
<pdfrwt beam="1">  1        2 0.58040488E-01 0.42201280E+02</pdfrwt>
<pdfrwt beam="2">  1        3 0.33997137E-01 0.99665883E+02</pdfrwt>
<totfact> 0.42793864E+02</totfact>
</mgrwt>
</event>
<event>
 7    1  0.3113530E-004  0.4697199E+02  0.7546771E-02  0.1481255E+00
         -1   -1    0    0    0  501 -0.00000000000E+00  0.00000000000E+00  0.19111971273E+03  0.19111971273E+03  0.00000000000E+00 0.  1.
          2   -1    0    0  503    0  0.00000000000E+00 -0.00000000000E+00 -0.23549296627E+04  0.23549296627E+04  0.00000000000E+00 0. -1.
         25    2    1    2    0    0  0.54885959123E+02  0.36458494593E+02 -0.60553439076E+03  0.62180405110E+03  0.12500675673E+03 0.  0.
          4    1    3    3  502    0  0.74359589437E+01  0.44357711736E+02 -0.64552804769E+02  0.78686578140E+02  0.12700000000E+01 0.  1.
         -4    1    3    3    0  502  0.47450000179E+02 -0.78992171426E+01 -0.54098158599E+03  0.54311747296E+03  0.12700000000E+01 0.  1.
          2    1    1    2  503    0 -0.80908891897E+01 -0.40244873382E+02 -0.17380027546E+04  0.17384874712E+04  0.00000000000E+00 0. -1.
         -1    1    1    2    0  501 -0.46795069933E+02  0.37863787887E+01  0.17972719542E+03  0.18575785315E+03  0.00000000000E+00 0.  1.
<mgrwt>
<rscale>  0 0.43911340E+02</rscale>
<asrwt>0</asrwt>
<pdfrwt beam="2">  1        2 0.36229686E+00 0.41050120E+02</pdfrwt>
<pdfrwt beam="1">  1       -1 0.29403034E-01 0.46971990E+02</pdfrwt>
<totfact> 0.72097799E+01</totfact>
</mgrwt>
</event>
<event>
 7    1  0.3113530E-004  0.4073524E+02  0.7546771E-02  0.1573286E+00
          2   -1    0    0  502    0  0.00000000000E+00  0.00000000000E+00  0.40018245084E+03  0.40018245084E+03  0.00000000000E+00 0. -1.
          1   -1    0    0  503    0 -0.00000000000E+00 -0.00000000000E+00 -0.18493825315E+03  0.18493825315E+03  0.00000000000E+00 0. -1.
         25    2    1    2    0    0  0.54322750108E+01 -0.17921416617E+02  0.37731520122E+02  0.13190468992E+03  0.12499797130E+03 0.  0.
          4    1    3    3  501    0 -0.27235349854E+01 -0.28060510474E+02  0.81488182257E+02  0.86236573671E+02  0.12700000000E+01 0.  1.
         -4    1    3    3    0  501  0.81558099963E+01  0.10139093857E+02 -0.43756662135E+02  0.45668116253E+02  0.12700000000E+01 0.  1.
          2    1    1    2  502    0  0.59286949445E+01  0.40997667559E+02  0.31278698308E+03  0.31551807390E+03  0.00000000000E+00 0. -1.
          1    1    1    2  503    0 -0.11360969955E+02 -0.23076250942E+02 -0.13527430552E+03  0.13769794018E+03  0.00000000000E+00 0. -1.
<mgrwt>
<rscale>  0 0.32369170E+02</rscale>
<asrwt>0</asrwt>
<pdfrwt beam="1">  1        2 0.61566531E-01 0.40735242E+02</pdfrwt>
<pdfrwt beam="2">  1        1 0.28452039E-01 0.25721295E+02</pdfrwt>
<totfact> 0.16735341E+03</totfact>
</mgrwt>
</event>
<event>
 7    1  0.3113530E-004  0.4638096E+02  0.7546771E-02  0.1473698E+00
         -1   -1    0    0    0  501 -0.00000000000E+00  0.00000000000E+00  0.13589766802E+03  0.13589766802E+03  0.00000000000E+00 0.  1.
          2   -1    0    0  503    0  0.00000000000E+00 -0.00000000000E+00 -0.93856773947E+03  0.93856773947E+03  0.00000000000E+00 0. -1.
         25    2    1    2    0    0  0.27358481056E+02 -0.37361819119E+02 -0.34081686203E+03  0.36598390683E+03  0.12507475606E+03 0.  0.
          4    1    3    3  502    0  0.67558476136E+02 -0.46887442323E+02 -0.28435530710E+03  0.29601036050E+03  0.12700000000E+01 0. -1.
         -4    1    3    3    0  502 -0.40199995080E+02  0.95256232034E+01 -0.56461554923E+02  0.69973546331E+02  0.12700000000E+01 0. -1.
          2    1    1    2  503    0 -0.47848166783E+02 -0.14188972305E+01 -0.58025019029E+03  0.58222138716E+03  0.00000000000E+00 0. -1.
         -1    1    1    2    0  501  0.20489685727E+02  0.38780716350E+02  0.11839698087E+03  0.12626011350E+03  0.00000000000E+00 0.  1.
<mgrwt>
<rscale>  0 0.45103291E+02</rscale>
<asrwt>0</asrwt>
<pdfrwt beam="2">  1        2 0.14439503E+00 0.46380963E+02</pdfrwt>
<pdfrwt beam="1">  1       -1 0.20907334E-01 0.43860816E+02</pdfrwt>
<totfact> 0.62833876E+02</totfact>
</mgrwt>
</event>
<event>
 7    1  0.3113530E-004  0.4927816E+02  0.7546771E-02  0.1487845E+00
         -1   -1    0    0    0  501 -0.00000000000E+00  0.00000000000E+00  0.31514016383E+03  0.31514016383E+03  0.00000000000E+00 0.  1.
          2   -1    0    0  503    0  0.00000000000E+00 -0.00000000000E+00 -0.51214838466E+02  0.51214838466E+02  0.00000000000E+00 0. -1.
         25    2    1    2    0    0  0.17688581020E+02  0.70424460037E+02  0.13273482964E+03  0.19625279061E+03  0.12499652936E+03 0.  0.
          4    1    3    3  502    0 -0.50492745056E+02  0.35927421071E+02  0.31841869314E+02  0.69683674053E+02  0.12700000000E+01 0. -1.
         -4    1    3    3    0  502  0.68181326076E+02  0.34497038966E+02  0.10089296033E+03  0.12656911656E+03  0.12700000000E+01 0. -1.
          2    1    1    2  503    0  0.95590430419E+01 -0.44863612821E+02  0.15325999934E+02  0.48363264295E+02  0.00000000000E+00 0. -1.
         -1    1    1    2    0  501 -0.27247624062E+02 -0.25560847215E+02  0.11586449579E+03  0.12173894739E+03  0.00000000000E+00 0.  1.
<mgrwt>
<rscale>  0 0.42907405E+02</rscale>
<asrwt>0</asrwt>
<pdfrwt beam="2">  1        2 0.78792061E-02 0.49278157E+02</pdfrwt>
<pdfrwt beam="1">  1       -1 0.48483101E-01 0.37360272E+02</pdfrwt>
<totfact> 0.38298390E+03</totfact>
</mgrwt>
</event>
<event>
 7    1  0.3113530E-004  0.5418887E+02  0.7546771E-02  0.1545207E+00
          2   -1    0    0  502    0  0.00000000000E+00  0.00000000000E+00  0.12426458253E+04  0.12426458253E+04  0.00000000000E+00 0. -1.
          2   -1    0    0  503    0 -0.00000000000E+00 -0.00000000000E+00 -0.22718950680E+04  0.22718950680E+04  0.00000000000E+00 0. -1.
         25    2    1    2    0    0 -0.13353654838E+02  0.34601732976E+02  0.27875071102E+02  0.13332803468E+03  0.12499498078E+03 0.  0.
          4    1    3    3  501    0  0.29009892258E+02  0.11674238074E+02 -0.39562013108E+02  0.50444300615E+02  0.12700000000E+01 0. -1.
         -4    1    3    3    0  501 -0.42363547096E+02  0.22927494902E+02  0.67437084210E+02  0.82883734060E+02  0.12700000000E+01 0. -1.
          2    1    1    2  502    0 -0.22203729851E+02  0.63948512243E+01  0.11615975865E+04  0.11618273765E+04  0.00000000000E+00 0. -1.
          2    1    1    2  503    0  0.35557384689E+02 -0.40996584200E+02 -0.22187219003E+04  0.22193854822E+04  0.00000000000E+00 0. -1.
<mgrwt>
<rscale>  0 0.35385063E+02</rscale>
<asrwt>0</asrwt>
<pdfrwt beam="1">  1        2 0.19117628E+00 0.23106271E+02</pdfrwt>
<pdfrwt beam="2">  1        2 0.34952231E+00 0.54188871E+02</pdfrwt>
<totfact> 0.22688811E+01</totfact>
</mgrwt>
</event>
<event>
 7    1  0.3113530E-004  0.1976352E+03  0.7546771E-02  0.1298646E+00
          1   -1    0    0  503    0  0.00000000000E+00  0.00000000000E+00  0.63901179252E+03  0.63901179252E+03  0.00000000000E+00 0. -1.
         -2   -1    0    0    0  501 -0.00000000000E+00 -0.00000000000E+00 -0.21828996767E+03  0.21828996767E+03  0.00000000000E+00 0.  1.
         25    2    1    2    0    0 -0.16529568378E+03 -0.14685538101E+03  0.11877944687E+02  0.25427574375E+03  0.12500360909E+03 0.  0.
          4    1    3    3  502    0 -0.98523639698E+02 -0.97343971374E+02 -0.53532578850E+02  0.14849278178E+03  0.12700000000E+01 0. -1.
         -4    1    3    3    0  502 -0.66772044078E+02 -0.49511409633E+02  0.65410523538E+02  0.10578296197E+03  0.12700000000E+01 0. -1.
          1    1    1    2  503    0  0.16401320090E+03  0.10427213096E+03  0.48125183140E+03  0.51901477107E+03  0.00000000000E+00 0. -1.
         -2    1    1    2    0  501  0.12824828719E+01  0.42583250043E+02 -0.72407951238E+02  0.84011245373E+02  0.00000000000E+00 0.  1.
<mgrwt>
<rscale>  0 0.91759289E+02</rscale>
<asrwt>0</asrwt>
<pdfrwt beam="1">  1        1 0.98309506E-01 0.19763525E+03</pdfrwt>
<pdfrwt beam="2">  1       -2 0.33583072E-01 0.42602558E+02</pdfrwt>
<totfact> 0.23195552E+02</totfact>
</mgrwt>
</event>
<event>
 7    1  0.3123384E-004  0.1124207E+03  0.7546771E-02  0.1331548E+00
         -2   -1    0    0    0  501 -0.00000000000E+00  0.00000000000E+00  0.24748992986E+03  0.24748992986E+03  0.00000000000E+00 0.  1.
          1   -1    0    0  503    0  0.00000000000E+00 -0.00000000000E+00 -0.17566614502E+03  0.17566614502E+03  0.00000000000E+00 0. -1.
         25    2    1    2    0    0 -0.29113504247E+02  0.12554939260E+03 -0.89763996204E+02  0.20072719292E+03  0.12499433927E+03 0.  0.
          4    1    3    3  502    0 -0.66703691624E+02  0.12500627000E+03 -0.66757006918E+02  0.15663352415E+03  0.12700000000E+01 0.  1.
         -4    1    3    3    0  502  0.37590187377E+02  0.54312260370E+00 -0.23006989286E+02  0.44093668765E+02  0.12700000000E+01 0.  1.
          1    1    1    2  503    0  0.51222188589E+02 -0.74432930303E+02  0.66339102454E+02  0.11209304274E+03  0.00000000000E+00 0. -1.
         -2    1    1    2    0  501 -0.22108684341E+02 -0.51116462302E+02  0.95248678592E+02  0.11033583921E+03  0.00000000000E+00 0.  1.
<mgrwt>
<rscale>  0 0.79126611E+02</rscale>
<asrwt>0</asrwt>
<pdfrwt beam="2">  1        1 0.27025561E-01 0.11242067E+03</pdfrwt>
<pdfrwt beam="1">  1       -2 0.38075374E-01 0.55692788E+02</pdfrwt>
<totfact> 0.96509270E+02</totfact>
</mgrwt>
</event>
<event>
 7    1  0.3113530E-004  0.8918848E+02  0.7546771E-02  0.1322826E+00
          3   -1    0    0  503    0 -0.00000000000E+00  0.00000000000E+00  0.81887490629E+02  0.81887490629E+02  0.00000000000E+00 0. -1.
          2   -1    0    0  502    0  0.00000000000E+00 -0.00000000000E+00 -0.28396627394E+04  0.28396627394E+04  0.00000000000E+00 0. -1.
         25    2    1    2    0    0  0.31895475298E+02 -0.28956249858E+01 -0.47546792924E+03  0.49266876579E+03  0.12500821995E+03 0.  0.
          4    1    3    3  501    0  0.52876764598E+02  0.36503695855E+02 -0.39879129215E+03  0.40393635593E+03  0.12700000000E+01 0. -1.
         -4    1    3    3    0  501 -0.20981289300E+02 -0.39399320841E+02 -0.76676637087E+02  0.88732409854E+02  0.12700000000E+01 0. -1.
          2    1    1    2  502    0 -0.66314011266E+02  0.70457490615E+02 -0.23347084376E+04  0.23367124972E+04  0.00000000000E+00 0. -1.
          3    1    1    2  503    0  0.34418535968E+02 -0.67561865630E+02  0.52401118074E+02  0.92168967017E+02  0.00000000000E+00 0. -1.
<mgrwt>
<rscale>  0 0.82235059E+02</rscale>
<asrwt>0</asrwt>
<pdfrwt beam="2">  1        2 0.43687119E+00 0.89188477E+02</pdfrwt>
<pdfrwt beam="1">  1        3 0.12598076E-01 0.75823752E+02</pdfrwt>
<totfact> 0.85273154E+01</totfact>
</mgrwt>
</event>
<event>
 7    1  0.3113530E-004  0.1822196E+03  0.7546771E-02  0.1224990E+00
          2   -1    0    0  502    0  0.00000000000E+00  0.00000000000E+00  0.26624540118E+03  0.26624540118E+03  0.00000000000E+00 0. -1.
          2   -1    0    0  503    0 -0.00000000000E+00 -0.00000000000E+00 -0.73286549313E+03  0.73286549313E+03  0.00000000000E+00 0. -1.
         25    2    1    2    0    0  0.83046934337E+02 -0.11885789175E+03 -0.17335040805E+03  0.25825867439E+03  0.12499274855E+03 0.  0.
          4    1    3    3  501    0  0.19808182737E+01 -0.10885288173E+03 -0.11106751932E+03  0.15553289122E+03  0.12700000000E+01 0.  1.
         -4    1    3    3    0  501  0.81066116063E+02 -0.10005010019E+02 -0.62282888731E+02  0.10272578317E+03  0.12700000000E+01 0.  1.
          2    1    1    2  502    0  0.93988252161E+02  0.14836070614E+02  0.19180395671E+03  0.21410898708E+03  0.00000000000E+00 0. -1.
          2    1    1    2  503    0 -0.17703518650E+03  0.10402182113E+03 -0.48507364061E+03  0.52674323284E+03  0.00000000000E+00 0. -1.
<mgrwt>
<rscale>  0 0.13167596E+03</rscale>
<asrwt>0</asrwt>
<pdfrwt beam="1">  1        2 0.40960831E-01 0.95151987E+02</pdfrwt>
<pdfrwt beam="2">  1        2 0.11274854E+00 0.18221961E+03</pdfrwt>
<totfact> 0.76766420E+02</totfact>
</mgrwt>
</event>
<event>
 7    1  0.3113530E-004  0.1325091E+03  0.7546771E-02  0.1284938E+00
          2   -1    0    0  502    0  0.00000000000E+00  0.00000000000E+00  0.25882689943E+03  0.25882689943E+03  0.00000000000E+00 0.  1.
          2   -1    0    0  503    0 -0.00000000000E+00 -0.00000000000E+00 -0.34207227021E+03  0.34207227021E+03  0.00000000000E+00 0. -1.
         25    2    1    2    0    0 -0.10960407943E+03  0.10588958571E+03  0.61932514187E+01  0.19719665973E+03  0.12499003022E+03 0.  0.
          4    1    3    3  501    0 -0.42562491151E+01 -0.33161008988E+01 -0.38588492381E+02  0.38984571640E+02  0.12700000000E+01 0. -1.
         -4    1    3    3    0  501 -0.10534783031E+03  0.10920568661E+03  0.44781743800E+02  0.15821208809E+03  0.12700000000E+01 0. -1.
          2    1    1    2  502    0  0.12575015075E+03 -0.35498932513E+02  0.12292285633E+03  0.17939705469E+03  0.00000000000E+00 0.  1.
          2    1    1    2  503    0 -0.16146071326E+02 -0.70390653200E+02 -0.21236147853E+03  0.22430545522E+03  0.00000000000E+00 0. -1.
<mgrwt>
<rscale>  0 0.97824505E+02</rscale>
<asrwt>0</asrwt>
<pdfrwt beam="1">  1        2 0.39819523E-01 0.13250910E+03</pdfrwt>
<pdfrwt beam="2">  1        2 0.52626503E-01 0.72218693E+02</pdfrwt>
<totfact> 0.18641415E+03</totfact>
</mgrwt>
</event>
<event>
 7    1  0.3113530E-004  0.9113025E+02  0.7546771E-02  0.1333153E+00
         -3   -1    0    0    0  502 -0.00000000000E+00  0.00000000000E+00  0.97999279332E+02  0.97999279332E+02  0.00000000000E+00 0.  1.
         -2   -1    0    0    0  501  0.00000000000E+00 -0.00000000000E+00 -0.42176716978E+03  0.42176716978E+03  0.00000000000E+00 0.  1.
         25    2    1    2    0    0  0.55993252570E+02 -0.30540250845E+02 -0.15019587757E+03  0.20555056965E+03  0.12499713512E+03 0.  0.
          4    1    3    3  503    0 -0.32337522839E+02 -0.25562105818E+02 -0.14815484656E+02  0.43820635810E+02  0.12700000000E+01 0. -1.
         -4    1    3    3    0  503  0.88330775409E+02 -0.49781450271E+01 -0.13538039292E+03  0.16172993384E+03  0.12700000000E+01 0. -1.
         -2    1    1    2    0  501 -0.10786034179E+03 -0.13038980224E+02 -0.21062856747E+03  0.23699844255E+03  0.00000000000E+00 0.  1.
         -3    1    1    2    0  502  0.51867089219E+02  0.43579231069E+02  0.37056554599E+02  0.77217436913E+02  0.00000000000E+00 0.  1.
<mgrwt>
<rscale>  0 0.78572204E+02</rscale>
<asrwt>0</asrwt>
<pdfrwt beam="2">  1       -2 0.64887257E-01 0.91130247E+02</pdfrwt>
<pdfrwt beam="1">  1       -3 0.15076812E-01 0.67744700E+02</pdfrwt>
<totfact> 0.30156496E+02</totfact>
</mgrwt>
</event>
<event>
 7    1  0.3113530E-004  0.1679190E+03  0.7546771E-02  0.1342767E+00
          2   -1    0    0  502    0  0.00000000000E+00  0.00000000000E+00  0.11746010268E+04  0.11746010268E+04  0.00000000000E+00 0. -1.
          2   -1    0    0  503    0 -0.00000000000E+00 -0.00000000000E+00 -0.18345455862E+03  0.18345455862E+03  0.00000000000E+00 0. -1.
         25    2    1    2    0    0 -0.18039895529E+03  0.71266477164E+02  0.20181661368E+03  0.30655827799E+03  0.12500135362E+03 0.  0.
          4    1    3    3  501    0 -0.96293009883E+02  0.10285309794E+03  0.12224305341E+03  0.18653707544E+03  0.12700000000E+01 0. -1.
         -4    1    3    3    0  501 -0.84105945407E+02 -0.31586620781E+02  0.79573560276E+02  0.12002120254E+03  0.12700000000E+01 0. -1.
          2    1    1    2  502    0  0.33816214304E+02 -0.40731922578E+00  0.86940316300E+03  0.87006066575E+03  0.00000000000E+00 0. -1.
          2    1    1    2  503    0  0.14658274099E+03 -0.70859157938E+02 -0.80073308478E+02  0.18143664169E+03  0.00000000000E+00 0. -1.
<mgrwt>
<rscale>  0 0.75357793E+02</rscale>
<asrwt>0</asrwt>
<pdfrwt beam="1">  1        2 0.18070785E+00 0.33818667E+02</pdfrwt>
<pdfrwt beam="2">  1        2 0.28223779E-01 0.16791901E+03</pdfrwt>
<totfact> 0.67815287E+02</totfact>
</mgrwt>
</event>
<event>
 7    1  0.3113530E-004  0.1920352E+03  0.7546771E-02  0.1256357E+00
          2   -1    0    0  503    0  0.00000000000E+00  0.00000000000E+00  0.57307508164E+03  0.57307508164E+03  0.00000000000E+00 0.  1.
          2   -1    0    0  502    0 -0.00000000000E+00 -0.00000000000E+00 -0.99630699395E+03  0.99630699395E+03  0.00000000000E+00 0. -1.
         25    2    1    2    0    0 -0.18212374832E+03  0.24637596012E+02  0.21415837543E+03  0.30864940057E+03  0.12499828745E+03 0.  0.
          4    1    3    3  501    0 -0.42558175776E+02 -0.50080403421E+01  0.14283757486E+03  0.14913237236E+03  0.12700000000E+01 0. -1.
         -4    1    3    3    0  501 -0.13956557254E+03  0.29645636355E+02  0.71320800565E+02  0.15951702821E+03  0.12700000000E+01 0. -1.
          2    1    1    2  502    0  0.17079227288E+03 -0.89332445872E+02 -0.93566559818E+03  0.95531167583E+03  0.00000000000E+00 0. -1.
          2    1    1    2  503    0  0.11331475443E+02  0.64694849860E+02  0.29827531044E+03  0.30542099920E+03  0.00000000000E+00 0.  1.
<mgrwt>
<rscale>  0 0.11230680E+03</rscale>
<asrwt>0</asrwt>
<pdfrwt beam="1">  1        2 0.88165398E-01 0.65679722E+02</pdfrwt>
<pdfrwt beam="2">  1        2 0.15327800E+00 0.19203517E+03</pdfrwt>
<totfact> 0.22939183E+02</totfact>
</mgrwt>
</event>
<event>
 7    1  0.3113530E-004  0.1350772E+03  0.7546771E-02  0.1244681E+00
          2   -1    0    0  502    0  0.00000000000E+00  0.00000000000E+00  0.17320322101E+02  0.17320322101E+02  0.00000000000E+00 0. -1.
          2   -1    0    0  503    0 -0.00000000000E+00 -0.00000000000E+00 -0.44313855738E+04  0.44313855738E+04  0.00000000000E+00 0. -1.
         25    2    1    2    0    0  0.17186057806E+03  0.30953713986E+02 -0.23408151652E+04  0.23506449862E+04  0.12498808970E+03 0.  0.
          4    1    3    3  501    0 -0.16730628971E+02  0.63617166800E+01 -0.43333705722E+03  0.43370843138E+03  0.12700000000E+01 0. -1.
         -4    1    3    3    0  501  0.18859120703E+03  0.24591997306E+02 -0.19074781080E+04  0.19169365548E+04  0.12700000000E+01 0. -1.
          2    1    1    2  502    0 -0.84899717518E+02  0.61638283966E+02 -0.26004104447E+03  0.28040789021E+03  0.00000000000E+00 0. -1.
          2    1    1    2  503    0 -0.86960860540E+02 -0.92591997952E+02 -0.18132090420E+04  0.18176530195E+04  0.00000000000E+00 0. -1.
<mgrwt>
<rscale>  0 0.11904487E+03</rscale>
<asrwt>0</asrwt>
<pdfrwt beam="1">  1        2 0.26646640E-02 0.10491539E+03</pdfrwt>
<pdfrwt beam="2">  1        2 0.68175187E+00 0.13507724E+03</pdfrwt>
<totfact> 0.11849837E+02</totfact>
</mgrwt>
</event>
<event>
 7    1  0.3113530E-004  0.4523700E+02  0.7546771E-02  0.1582546E+00
         -2   -1    0    0    0  501 -0.00000000000E+00  0.00000000000E+00  0.30724941685E+03  0.30724941685E+03  0.00000000000E+00 0.  1.
          1   -1    0    0  503    0  0.00000000000E+00 -0.00000000000E+00 -0.48437183087E+02  0.48437183087E+02  0.00000000000E+00 0. -1.
         25    2    1    2    0    0 -0.63147698887E+02  0.86749834468E+00  0.15861588805E+03  0.21159620032E+03  0.12500227045E+03 0.  0.
          4    1    3    3  502    0  0.76711610256E+01  0.25458904587E+02 -0.88984110161E+01  0.28067724398E+02  0.12700000000E+01 0.  1.
         -4    1    3    3    0  502 -0.70818859913E+02 -0.24591406242E+02  0.16751429907E+03  0.18352847592E+03  0.12700000000E+01 0.  1.
          1    1    1    2  503    0  0.42632840892E+02  0.67146615306E+01  0.16966207030E+01  0.43191715917E+02  0.00000000000E+00 0. -1.
         -2    1    1    2    0  501  0.20514857995E+02 -0.75821598752E+01  0.98499725007E+02  0.10089868370E+03  0.00000000000E+00 0.  1.
<mgrwt>
<rscale>  0 0.31454515E+02</rscale>
<asrwt>0</asrwt>
<pdfrwt beam="2">  1        1 0.74518745E-02 0.45236997E+02</pdfrwt>
<pdfrwt beam="1">  1       -2 0.47269140E-01 0.21871181E+02</pdfrwt>
<totfact> 0.31057752E+03</totfact>
</mgrwt>
</event>
<event>
 7    1  0.3113530E-004  0.6463340E+02  0.7546771E-02  0.1380129E+00
          1   -1    0    0  503    0  0.00000000000E+00  0.00000000000E+00  0.75475926403E+03  0.75475926403E+03  0.00000000000E+00 0. -1.
         -3   -1    0    0    0  501 -0.00000000000E+00 -0.00000000000E+00 -0.22163099524E+03  0.22163099524E+03  0.00000000000E+00 0. -1.
         25    2    1    2    0    0  0.82190325059E+02  0.26272144064E+02  0.10027013163E+03  0.18199828306E+03  0.12499520252E+03 0.  0.
          4    1    3    3  502    0 -0.35347314575E+00  0.33128919163E+02 -0.17905083120E+02  0.37680965085E+02  0.12700000000E+01 0.  1.
         -4    1    3    3    0  502  0.82543798205E+02 -0.68567750990E+01  0.11817521475E+03  0.14431731797E+03  0.12700000000E+01 0.  1.
          1    1    1    2  503    0 -0.55262122175E+02  0.32729170696E+02  0.60605579100E+03  0.60944952422E+03  0.00000000000E+00 0. -1.
         -3    1    1    2    0  501 -0.26928202884E+02 -0.59001314761E+02 -0.17319765384E+03  0.18494245200E+03  0.00000000000E+00 0. -1.
<mgrwt>
<rscale>  0 0.64429855E+02</rscale>
<asrwt>0</asrwt>
<pdfrwt beam="1">  1        1 0.11611681E+00 0.64226947E+02</pdfrwt>
<pdfrwt beam="2">  1       -3 0.34097077E-01 0.64633403E+02</pdfrwt>
<totfact> 0.11459481E+02</totfact>
</mgrwt>
</event>
<event>
 7    1  0.3113530E-004  0.6799628E+02  0.7546771E-02  0.1400373E+00
         -3   -1    0    0    0  502 -0.00000000000E+00  0.00000000000E+00  0.80015742818E+03  0.80015742818E+03  0.00000000000E+00 0.  1.
         -1   -1    0    0    0  501  0.00000000000E+00 -0.00000000000E+00 -0.25023483154E+03  0.25023483154E+03  0.00000000000E+00 0.  1.
         25    2    1    2    0    0 -0.10982597386E+03  0.38449800003E+02  0.13373598060E+03  0.21691356885E+03  0.12500420869E+03 0.  0.
          4    1    3    3  503    0 -0.10949332197E+03  0.11344912909E+02  0.14940136636E+03  0.18557983666E+03  0.12700000000E+01 0.  1.
         -4    1    3    3    0  503 -0.33265188482E+00  0.27104887094E+02 -0.15665385762E+02  0.31333732186E+02  0.12700000000E+01 0.  1.
         -1    1    1    2    0  501  0.65602561992E+02 -0.11308398277E+02 -0.20222180383E+03  0.21289723802E+03  0.00000000000E+00 0.  1.
         -3    1    1    2    0  502  0.44223411867E+02 -0.27141401725E+02  0.61840841988E+03  0.62058145285E+03  0.00000000000E+00 0.  1.
<mgrwt>
<rscale>  0 0.59398584E+02</rscale>
<asrwt>0</asrwt>
<pdfrwt beam="2">  1       -1 0.38497667E-01 0.67996280E+02</pdfrwt>
<pdfrwt beam="1">  1       -3 0.12310114E+00 0.51888013E+02</pdfrwt>
<totfact> 0.16522041E+01</totfact>
</mgrwt>
</event>
<event>
 7    1  0.3113530E-004  0.9000081E+02  0.7546771E-02  0.1469236E+00
          2   -1    0    0  502    0  0.00000000000E+00  0.00000000000E+00  0.11363138349E+03  0.11363138349E+03  0.00000000000E+00 0. -1.
          1   -1    0    0  503    0 -0.00000000000E+00 -0.00000000000E+00 -0.22517457010E+03  0.22517457010E+03  0.00000000000E+00 0. -1.
         25    2    1    2    0    0  0.72491721648E+02 -0.47820027299E+01 -0.43180673848E+02  0.15088593160E+03  0.12499630595E+03 0.  0.
          4    1    3    3  501    0  0.47935725056E+02 -0.16948973748E+02  0.39099849713E+02  0.64152261031E+02  0.12700000000E+01 0.  1.
         -4    1    3    3    0  501  0.24555996592E+02  0.12166971019E+02 -0.82280523561E+02  0.86733670566E+02  0.12700000000E+01 0.  1.
          2    1    1    2  502    0  0.23122792861E+02 -0.31451894941E+01  0.38053845853E+02  0.44639119064E+02  0.00000000000E+00 0. -1.
          1    1    1    2  503    0 -0.95614514510E+02  0.79271922240E+01 -0.10641635861E+03  0.14328090292E+03  0.00000000000E+00 0. -1.
<mgrwt>
<rscale>  0 0.45828305E+02</rscale>
<asrwt>0</asrwt>
<pdfrwt beam="1">  1        2 0.17481751E-01 0.23335719E+02</pdfrwt>
<pdfrwt beam="2">  1        1 0.34642241E-01 0.90000810E+02</pdfrwt>
<totfact> 0.48775997E+03</totfact>
</mgrwt>
</event>
<event>
 7    1  0.3113530E-004  0.4721066E+02  0.7546771E-02  0.1557029E+00
          2   -1    0    0  503    0  0.00000000000E+00  0.00000000000E+00  0.99942904867E+02  0.99942904867E+02  0.00000000000E+00 0. -1.
         -1   -1    0    0    0  501 -0.00000000000E+00 -0.00000000000E+00 -0.13025122255E+03  0.13025122255E+03  0.00000000000E+00 0.  1.
         25    2    1    2    0    0 -0.94421559167E+01 -0.30504259227E+02  0.19538035192E+02  0.13048962522E+03  0.12500457324E+03 0.  0.
          4    1    3    3  502    0 -0.28184055832E+02 -0.26126686973E+02 -0.47280640575E+02  0.60942732532E+02  0.12700000000E+01 0.  1.
         -4    1    3    3    0  502  0.18741899915E+02 -0.43775722539E+01  0.66818675767E+02  0.69546892688E+02  0.12700000000E+01 0.  1.
          2    1    1    2  503    0 -0.23807816457E+02 -0.61335043855E+01  0.57832754085E+01  0.25256252195E+02  0.00000000000E+00 0. -1.
         -1    1    1    2    0  501  0.33249972374E+02  0.36637763613E+02 -0.55629628288E+02  0.74448250005E+02  0.00000000000E+00 0.  1.
<mgrwt>
<rscale>  0 0.34068807E+02</rscale>
<asrwt>0</asrwt>
<pdfrwt beam="1">  1        2 0.15375832E-01 0.24585199E+02</pdfrwt>
<pdfrwt beam="2">  1       -1 0.20038650E-01 0.47210665E+02</pdfrwt>
<totfact> 0.71550832E+03</totfact>
</mgrwt>
</event>
<event>
 7    1  0.3113530E-004  0.8707261E+02  0.7546771E-02  0.1475720E+00
          1   -1    0    0  502    0  0.00000000000E+00  0.00000000000E+00  0.12837602695E+04  0.12837602695E+04  0.00000000000E+00 0. -1.
          1   -1    0    0  503    0 -0.00000000000E+00 -0.00000000000E+00 -0.91192842660E+02  0.91192842660E+02  0.00000000000E+00 0. -1.
         25    2    1    2    0    0  0.14546596096E+02  0.10630123926E+03  0.31775761701E+03  0.35792566531E+03  0.12501728598E+03 0.  0.
          4    1    3    3  501    0  0.41795201539E+02  0.12869741700E+01  0.16715080549E+03  0.17230641268E+03  0.12700000000E+01 0. -1.
         -4    1    3    3    0  501 -0.27248605444E+02  0.10501426509E+03  0.15060681151E+03  0.18561925262E+03  0.12700000000E+01 0. -1.
          1    1    1    2  502    0 -0.17135232255E+02 -0.83417659208E+02  0.94208168629E+03  0.94592284341E+03  0.00000000000E+00 0. -1.
          1    1    1    2  503    0  0.25886361594E+01 -0.22883580051E+02 -0.67271876439E+02  0.71104603456E+02  0.00000000000E+00 0. -1.
<mgrwt>
<rscale>  0 0.44779920E+02</rscale>
<asrwt>0</asrwt>
<pdfrwt beam="1">  1        1 0.19750157E+00 0.87072607E+02</pdfrwt>
<pdfrwt beam="2">  1        1 0.14029669E-01 0.23029530E+02</pdfrwt>
<totfact> 0.46686923E+02</totfact>
</mgrwt>
</event>
<event>
 7    1  0.3113530E-004  0.4040969E+02  0.7546771E-02  0.1516162E+00
         -1   -1    0    0    0  501 -0.00000000000E+00  0.00000000000E+00  0.29540940890E+02  0.29540940890E+02  0.00000000000E+00 0.  1.
          2   -1    0    0  503    0  0.00000000000E+00 -0.00000000000E+00 -0.45861264670E+03  0.45861264670E+03  0.00000000000E+00 0. -1.
         25    2    1    2    0    0  0.36408540898E+02  0.69581328498E+01 -0.33661761092E+03  0.36098641844E+03  0.12500312337E+03 0.  0.
          4    1    3    3  502    0 -0.28175956241E+02 -0.17463686075E+02 -0.24291248664E+02  0.41116207304E+02  0.12700000000E+01 0. -1.
         -4    1    3    3    0  502  0.64584497139E+02  0.24421818925E+02 -0.31232636226E+03  0.31987021113E+03  0.12700000000E+01 0. -1.
          2    1    1    2  503    0 -0.39392798572E+02  0.30446180150E+02 -0.52146056528E+02  0.72096974115E+02  0.00000000000E+00 0. -1.
         -1    1    1    2    0  501  0.29842576746E+01 -0.37404313000E+02 -0.40308038357E+02  0.55070195033E+02  0.00000000000E+00 0.  1.
<mgrwt>
<rscale>  0 0.38939695E+02</rscale>
<asrwt>0</asrwt>
<pdfrwt beam="2">  1        2 0.70555792E-01 0.40409692E+02</pdfrwt>
<pdfrwt beam="1">  1       -1 0.45447601E-02 0.37523172E+02</pdfrwt>
<totfact> 0.13195318E+04</totfact>
</mgrwt>
</event>
<event>
 7    1  0.3113530E-004  0.7457384E+02  0.7546771E-02  0.1384319E+00
          2   -1    0    0  503    0  0.00000000000E+00  0.00000000000E+00  0.29662134452E+03  0.29662134452E+03  0.00000000000E+00 0.  1.
          2   -1    0    0  502    0 -0.00000000000E+00 -0.00000000000E+00 -0.83618224452E+03  0.83618224452E+03  0.00000000000E+00 0. -1.
         25    2    1    2    0    0 -0.72707477004E+02 -0.34353892733E+02 -0.18476909120E+03  0.23713160784E+03  0.12500086085E+03 0.  0.
          4    1    3    3  501    0 -0.98623814495E+02  0.56288880446E+01 -0.10471730546E+03  0.14396412098E+03  0.12700000000E+01 0. -1.
         -4    1    3    3    0  501  0.25916337491E+02 -0.39982780778E+02 -0.80051785734E+02  0.93167486855E+02  0.12700000000E+01 0. -1.
          2    1    1    2  502    0  0.38541090350E+00  0.53800244685E+02 -0.61885754929E+03  0.62119182318E+03  0.00000000000E+00 0. -1.
          2    1    1    2  503    0  0.72322066100E+02 -0.19446351952E+02  0.26406574049E+03  0.27448015803E+03  0.00000000000E+00 0.  1.
<mgrwt>
<rscale>  0 0.63341881E+02</rscale>
<asrwt>0</asrwt>
<pdfrwt beam="1">  1        2 0.45634053E-01 0.74573843E+02</pdfrwt>
<pdfrwt beam="2">  1        2 0.12864342E+00 0.53801625E+02</pdfrwt>
<totfact> 0.60917189E+02</totfact>
</mgrwt>
</event>
<event>
 7    1  0.3113530E-004  0.1409628E+03  0.7546771E-02  0.1360472E+00
          1   -1    0    0  503    0 -0.00000000000E+00  0.00000000000E+00  0.20156644669E+03  0.20156644669E+03  0.00000000000E+00 0. -1.
          2   -1    0    0  502    0  0.00000000000E+00 -0.00000000000E+00 -0.32063741753E+04  0.32063741753E+04  0.00000000000E+00 0. -1.
         25    2    1    2    0    0 -0.12466749909E+03 -0.93407109836E+02 -0.55234008638E+03  0.58734281037E+03  0.12500052948E+03 0.  0.
          4    1    3    3  501    0 -0.38232654686E+02 -0.88208240354E+02 -0.16987748771E+03  0.19519836905E+03  0.12700000000E+01 0.  1.
         -4    1    3    3    0  501 -0.86434844407E+02 -0.51988694823E+01 -0.38246259868E+03  0.39214444132E+03  0.12700000000E+01 0.  1.
          2    1    1    2  502    0  0.92050885835E+02  0.10510379747E+03 -0.26330333126E+04  0.26367374915E+04  0.00000000000E+00 0. -1.
          1    1    1    2  503    0  0.32616613258E+02 -0.11696687634E+02  0.18056567042E+03  0.18386032007E+03  0.00000000000E+00 0. -1.
<mgrwt>
<rscale>  0 0.69888698E+02</rscale>
<asrwt>0</asrwt>
<pdfrwt beam="2">  1        2 0.49328833E+00 0.14096283E+03</pdfrwt>
<pdfrwt beam="1">  1        1 0.31010223E-01 0.34650483E+02</pdfrwt>
<totfact> 0.33174920E+01</totfact>
</mgrwt>
</event>
<event>
 7    1  0.3113530E-004  0.1088882E+03  0.7546771E-02  0.1352883E+00
          2   -1    0    0  503    0  0.00000000000E+00  0.00000000000E+00  0.18680495830E+04  0.18680495830E+04  0.00000000000E+00 0. -1.
          2   -1    0    0  502    0 -0.00000000000E+00 -0.00000000000E+00 -0.13880220087E+04  0.13880220087E+04  0.00000000000E+00 0. -1.
         25    2    1    2    0    0  0.14244865919E+03 -0.54520528208E+02 -0.31709014630E+03  0.37339461308E+03  0.12495306197E+03 0.  0.
          4    1    3    3  501    0 -0.17107530474E+02  0.13929988144E+02 -0.52070034819E+02  0.56565127019E+02  0.12700000000E+01 0. -1.
         -4    1    3    3    0  501  0.15955618967E+03 -0.68450516352E+02 -0.26502011148E+03  0.31682948606E+03  0.12700000000E+01 0. -1.
          2    1    1    2  502    0 -0.96893237374E+02  0.39957589999E+02 -0.10398340308E+04  0.10451027318E+04  0.00000000000E+00 0. -1.
          2    1    1    2  503    0 -0.45555421817E+02  0.14562938209E+02  0.18369517514E+04  0.18375742468E+04  0.00000000000E+00 0. -1.
<mgrwt>
<rscale>  0 0.72164692E+02</rscale>
<asrwt>0</asrwt>
<pdfrwt beam="1">  1        2 0.28739224E+00 0.47826516E+02</pdfrwt>
<pdfrwt beam="2">  1        2 0.21354185E+00 0.10888819E+03</pdfrwt>
<totfact> 0.27289368E+01</totfact>
</mgrwt>
</event>
<event>
 7    1  0.3113530E-004  0.1455024E+03  0.7546771E-02  0.1313351E+00
          1   -1    0    0  503    0 -0.00000000000E+00  0.00000000000E+00  0.62454309752E+03  0.62454309752E+03  0.00000000000E+00 0. -1.
          2   -1    0    0  502    0  0.00000000000E+00 -0.00000000000E+00 -0.78987852093E+03  0.78987852093E+03  0.00000000000E+00 0. -1.
         25    2    1    2    0    0  0.15032112320E+03 -0.29261003989E+02 -0.16770690318E+03  0.25923455909E+03  0.12499721923E+03 0.  0.
          4    1    3    3  501    0  0.33584232583E+02 -0.54169399072E+02 -0.15146604450E+02  0.65522950181E+02  0.12700000000E+01 0. -1.
         -4    1    3    3    0  501  0.11673689062E+03  0.24908395083E+02 -0.15256029873E+03  0.19371160891E+03  0.12700000000E+01 0. -1.
          2    1    1    2  502    0 -0.24677571794E+02 -0.44169631215E+02 -0.56611382639E+03  0.56837030473E+03  0.00000000000E+00 0. -1.
          1    1    1    2  503    0 -0.12564355141E+03  0.73430635203E+02  0.56848530616E+03  0.58681675463E+03  0.00000000000E+00 0. -1.
<mgrwt>
<rscale>  0 0.85801016E+02</rscale>
<asrwt>0</asrwt>
<pdfrwt beam="2">  1        2 0.12151977E+00 0.50595838E+02</pdfrwt>
<pdfrwt beam="1">  1        1 0.96083554E-01 0.14550237E+03</pdfrwt>
<totfact> 0.17853504E+02</totfact>
</mgrwt>
</event>
<event>
 7    1  0.3113530E-004  0.1557477E+03  0.7546771E-02  0.1270843E+00
         -3   -1    0    0    0  501 -0.00000000000E+00  0.00000000000E+00  0.17466087485E+03  0.17466087485E+03  0.00000000000E+00 0.  1.
          2   -1    0    0  503    0  0.00000000000E+00 -0.00000000000E+00 -0.20838403195E+04  0.20838403195E+04  0.00000000000E+00 0. -1.
         25    2    1    2    0    0  0.45470455753E+02  0.19314176429E+03 -0.76740462119E+02  0.24674449139E+03  0.12498976777E+03 0.  0.
          4    1    3    3  502    0  0.41304461757E+02  0.40833525485E+01 -0.31975862446E+02  0.52409932343E+02  0.12700000000E+01 0.  1.
         -4    1    3    3    0  502  0.41659939957E+01  0.18905841174E+03 -0.44764599673E+02  0.19433455905E+03  0.12700000000E+01 0.  1.
          2    1    1    2  503    0  0.12905019760E+02 -0.15398028508E+03 -0.19046927851E+04  0.19109503064E+04  0.00000000000E+00 0. -1.
         -3    1    1    2    0  501 -0.58375475512E+02 -0.39161479210E+02  0.72253802615E+02  0.10080639656E+03  0.00000000000E+00 0.  1.
<mgrwt>
<rscale>  0 0.10463370E+03</rscale>
<asrwt>0</asrwt>
<pdfrwt beam="2">  1        2 0.32059082E+00 0.15574774E+03</pdfrwt>
<pdfrwt beam="1">  1       -3 0.26870904E-01 0.70294506E+02</pdfrwt>
<totfact> 0.53718001E+01</totfact>
</mgrwt>
</event>
<event>
 7    1  0.3113530E-004  0.1022926E+03  0.7546771E-02  0.1370654E+00
          2   -1    0    0  503    0  0.00000000000E+00  0.00000000000E+00  0.39586256062E+03  0.39586256062E+03  0.00000000000E+00 0. -1.
         -1   -1    0    0    0  501 -0.00000000000E+00 -0.00000000000E+00 -0.75011306895E+02  0.75011306895E+02  0.00000000000E+00 0.  1.
         25    2    1    2    0    0 -0.31509380230E+02  0.12812852842E+03  0.22105141203E+03  0.28617836572E+03  0.12499827761E+03 0.  0.
          4    1    3    3  502    0 -0.20345932549E+02  0.40010554583E+02  0.18489644510E+03  0.19027114799E+03  0.12700000000E+01 0.  1.
         -4    1    3    3    0  502 -0.11163447682E+02  0.88117973838E+02  0.36154966933E+02  0.95907217724E+02  0.12700000000E+01 0.  1.
          2    1    1    2  503    0  0.20510066561E+02 -0.85664605537E+02  0.10872709812E+03  0.13993094489E+03  0.00000000000E+00 0. -1.
         -1    1    1    2    0  501  0.10999313669E+02 -0.42463922885E+02 -0.89272564242E+01  0.44764556909E+02  0.00000000000E+00 0.  1.
<mgrwt>
<rscale>  0 0.66985843E+02</rscale>
<asrwt>0</asrwt>
<pdfrwt beam="1">  1        2 0.60901931E-01 0.10229264E+03</pdfrwt>
<pdfrwt beam="2">  1       -1 0.11540201E-01 0.43865358E+02</pdfrwt>
<totfact> 0.40263769E+03</totfact>
</mgrwt>
</event>
<event>
 7    1  0.3113530E-004  0.6336804E+02  0.7546771E-02  0.1421500E+00
          2   -1    0    0  503    0  0.00000000000E+00  0.00000000000E+00  0.92408066521E+03  0.92408066521E+03  0.00000000000E+00 0. -1.
         -2   -1    0    0    0  501 -0.00000000000E+00 -0.00000000000E+00 -0.22271804154E+03  0.22271804154E+03  0.00000000000E+00 0.  1.
         25    2    1    2    0    0  0.38527757467E+02  0.32090501751E+02  0.18198839216E+03  0.22640323330E+03  0.12499784305E+03 0.  0.
          4    1    3    3  502    0  0.27909152430E+02 -0.39795321491E+02  0.12475630975E+03  0.13389674426E+03  0.12700000000E+01 0. -1.
         -4    1    3    3    0  502  0.10618605036E+02  0.71885823242E+02  0.57232082412E+02  0.92506489034E+02  0.12700000000E+01 0. -1.
          2    1    1    2  503    0 -0.64843863695E+02  0.71237656212E+01  0.71559974783E+03  0.71856695846E+03  0.00000000000E+00 0. -1.
         -2    1    1    2    0  501  0.26316106229E+02 -0.39214267372E+02 -0.19622551632E+03  0.20182851500E+03  0.00000000000E+00 0.  1.
<mgrwt>
<rscale>  0 0.54704842E+02</rscale>
<asrwt>0</asrwt>
<pdfrwt beam="1">  1        2 0.14216625E+00 0.63368039E+02</pdfrwt>
<pdfrwt beam="2">  1       -2 0.34264315E-01 0.47226012E+02</pdfrwt>
<totfact> 0.24576863E+02</totfact>
</mgrwt>
</event>
<event>
 7    1  0.3113530E-004  0.3126590E+02  0.7546771E-02  0.1586472E+00
          2   -1    0    0  503    0  0.00000000000E+00  0.00000000000E+00  0.11827454532E+03  0.11827454532E+03  0.00000000000E+00 0. -1.
         -1   -1    0    0    0  501 -0.00000000000E+00 -0.00000000000E+00 -0.14839329711E+04  0.14839329711E+04  0.00000000000E+00 0.  1.
         25    2    1    2    0    0 -0.36823757791E+02 -0.18385891757E+02 -0.99987689398E+03  0.10085004783E+04  0.12500152572E+03 0.  0.
          4    1    3    3  502    0 -0.71227843251E+02  0.24859630433E+02 -0.63344558411E+03  0.63792344981E+03  0.12700000000E+01 0.  1.
         -4    1    3    3    0  502  0.34404085460E+02 -0.43245522190E+02 -0.36643130987E+03  0.37057702848E+03  0.12700000000E+01 0.  1.
          2    1    1    2  503    0  0.28460570251E+02 -0.12009912769E+02  0.11133964913E+03  0.11554548685E+03  0.00000000000E+00 0. -1.
         -1    1    1    2    0  501  0.83631875404E+01  0.30395804526E+02 -0.47712118090E+03  0.47816155126E+03  0.00000000000E+00 0.  1.
<mgrwt>
<rscale>  0 0.31077787E+02</rscale>
<asrwt>0</asrwt>
<pdfrwt beam="1">  1        2 0.18196085E-01 0.30890809E+02</pdfrwt>
<pdfrwt beam="2">  1       -1 0.22829736E+00 0.31265897E+02</pdfrwt>
<totfact> 0.43667485E+01</totfact>
</mgrwt>
</event>
<event>
 7    1  0.3113530E-004  0.5316372E+02  0.7546771E-02  0.1519151E+00
         -2   -1    0    0    0  501 -0.00000000000E+00  0.00000000000E+00  0.13322132374E+02  0.13322132374E+02  0.00000000000E+00 0.  1.
          2   -1    0    0  503    0  0.00000000000E+00 -0.00000000000E+00 -0.12735726439E+04  0.12735726439E+04  0.00000000000E+00 0. -1.
         25    2    1    2    0    0  0.48170843198E+02  0.33033581747E+02 -0.90389724601E+03  0.91436689566E+03  0.12499976350E+03 0.  0.
          4    1    3    3  502    0  0.67627179145E+02  0.24945357509E+02 -0.87800817541E+03  0.88096292499E+03  0.12700000000E+01 0.  1.
         -4    1    3    3    0  502 -0.19456335947E+02  0.80882242376E+01 -0.25889070594E+02  0.33403970662E+02  0.12700000000E+01 0.  1.
          2    1    1    2  503    0 -0.52770895779E+02 -0.54594244146E+01 -0.32957099396E+03  0.33381373971E+03  0.00000000000E+00 0. -1.
         -2    1    1    2    0  501  0.46000525811E+01 -0.27574157332E+02 -0.26782271540E+02  0.38714140894E+02  0.00000000000E+00 0.  1.
<mgrwt>
<rscale>  0 0.38551313E+02</rscale>
<asrwt>0</asrwt>
<pdfrwt beam="2">  1        2 0.19593418E+00 0.53163719E+02</pdfrwt>
<pdfrwt beam="1">  1       -2 0.20495596E-02 0.27955226E+02</pdfrwt>
<totfact> 0.11033749E+04</totfact>
</mgrwt>
</event>
<event>
 7    1  0.3113530E-004  0.3059164E+02  0.7546771E-02  0.1605982E+00
         -1   -1    0    0    0  501 -0.00000000000E+00  0.00000000000E+00  0.11272441004E+03  0.11272441004E+03  0.00000000000E+00 0.  1.
          2   -1    0    0  503    0  0.00000000000E+00 -0.00000000000E+00 -0.97961703630E+02  0.97961703630E+02  0.00000000000E+00 0. -1.
         25    2    1    2    0    0 -0.17388235972E+01 -0.99995796515E+01  0.27902927680E+02  0.12847759809E+03  0.12499961895E+03 0.  0.
          4    1    3    3  502    0 -0.10052351947E+02  0.41378572684E+02 -0.28859057536E+02  0.51455749522E+02  0.12700000000E+01 0. -1.
         -4    1    3    3    0  502  0.83135283502E+01 -0.51378152335E+02  0.56761985215E+02  0.77021848566E+02  0.12700000000E+01 0. -1.
          2    1    1    2  503    0 -0.30304197263E+02  0.41837522871E+01 -0.32248397414E+02  0.44450053889E+02  0.00000000000E+00 0. -1.
         -1    1    1    2    0  501  0.32043020860E+02  0.58158273644E+01  0.19108176142E+02  0.37758461691E+02  0.00000000000E+00 0.  1.
<mgrwt>
<rscale>  0 0.29297840E+02</rscale>
<asrwt>0</asrwt>
<pdfrwt beam="2">  1        2 0.15071031E-01 0.30591635E+02</pdfrwt>
<pdfrwt beam="1">  1       -1 0.17342217E-01 0.28058762E+02</pdfrwt>
<totfact> 0.90003101E+03</totfact>
</mgrwt>
</event>
<event>
 7    1  0.3113530E-004  0.1015596E+03  0.7546771E-02  0.1392497E+00
          2   -1    0    0  502    0  0.00000000000E+00  0.00000000000E+00  0.16070263907E+04  0.16070263907E+04  0.00000000000E+00 0. -1.
          1   -1    0    0  503    0 -0.00000000000E+00 -0.00000000000E+00 -0.22245906635E+03  0.22245906635E+03  0.00000000000E+00 0. -1.
         25    2    1    2    0    0 -0.95867142514E+02  0.76691360109E+02  0.23990092621E+03  0.29706821180E+03  0.12499997735E+03 0.  0.
          4    1    3    3  501    0  0.30039769183E+02  0.55207335578E+01  0.42250154190E+02  0.52149349570E+02  0.12700000000E+01 0. -1.
         -4    1    3    3    0  501 -0.12590691170E+03  0.71170626551E+02  0.19765077202E+03  0.24491886223E+03  0.12700000000E+01 0. -1.
          2    1    1    2  502    0  0.36673843445E+02  0.48070816139E+01  0.13251834027E+04  0.13256994869E+04  0.00000000000E+00 0. -1.
          1    1    1    2  503    0  0.59193299069E+02 -0.81498441723E+02 -0.18051700458E+03  0.20671775831E+03  0.00000000000E+00 0. -1.
<mgrwt>
<rscale>  0 0.61289794E+02</rscale>
<asrwt>0</asrwt>
<pdfrwt beam="1">  1        2 0.24723482E+00 0.36987550E+02</pdfrwt>
<pdfrwt beam="2">  1        1 0.34224473E-01 0.10155955E+03</pdfrwt>
<totfact> 0.24693255E+02</totfact>
</mgrwt>
</event>
<event>
 7    1  0.3113530E-004  0.6485482E+02  0.7546771E-02  0.1390949E+00
          2   -1    0    0  502    0  0.00000000000E+00  0.00000000000E+00  0.41572521686E+02  0.41572521686E+02  0.00000000000E+00 0.  1.
          2   -1    0    0  503    0 -0.00000000000E+00 -0.00000000000E+00 -0.26852801218E+04  0.26852801218E+04  0.00000000000E+00 0. -1.
         25    2    1    2    0    0  0.45570190173E+02 -0.10137054062E+03 -0.75971730897E+03  0.77791348465E+03  0.12500548519E+03 0.  0.
          4    1    3    3  501    0 -0.29758455035E+02 -0.27639241250E+02 -0.42621807613E+03  0.42815062142E+03  0.12700000000E+01 0.  1.
         -4    1    3    3    0  501  0.75328645209E+02 -0.73731299366E+02 -0.33349923283E+03  0.34976286323E+03  0.12700000000E+01 0.  1.
          2    1    1    2  502    0  0.26785351373E+00  0.58643408885E+02  0.50488512980E+01  0.58860955230E+02  0.00000000000E+00 0.  1.
          2    1    1    2  503    0 -0.45838043687E+02  0.42727131730E+02 -0.18890391424E+04  0.18900782036E+04  0.00000000000E+00 0. -1.
<mgrwt>
<rscale>  0 0.61671287E+02</rscale>
<asrwt>0</asrwt>
<pdfrwt beam="1">  1        2 0.63957724E-02 0.58644021E+02</pdfrwt>
<pdfrwt beam="2">  1        2 0.41312003E+00 0.64854823E+02</pdfrwt>
<totfact> 0.60368396E+02</totfact>
</mgrwt>
</event>
<event>
 7    1  0.3113530E-004  0.1007346E+03  0.7546771E-02  0.1287753E+00
          1   -1    0    0  503    0  0.00000000000E+00  0.00000000000E+00  0.12398446429E+04  0.12398446429E+04  0.00000000000E+00 0. -1.
         -1   -1    0    0    0  501 -0.00000000000E+00 -0.00000000000E+00 -0.93109166807E+03  0.93109166807E+03  0.00000000000E+00 0.  1.
         25    2    1    2    0    0 -0.15289682263E+03 -0.78277284418E+02 -0.25000482987E+02  0.21390594189E+03  0.12500382473E+03 0.  0.
          4    1    3    3  502    0 -0.14636444158E+02 -0.72520651809E+02 -0.11137343822E+02  0.74827292907E+02  0.12700000000E+01 0.  1.
         -4    1    3    3    0  502 -0.13826037847E+03 -0.57566326083E+01 -0.13863139165E+02  0.13907864898E+03  0.12700000000E+01 0.  1.
          1    1    1    2  503    0  0.53985871660E+02  0.75127699459E+02  0.11404954110E+04  0.11442414204E+04  0.00000000000E+00 0. -1.
         -1    1    1    2    0  501  0.98910950970E+02  0.31495849585E+01 -0.80674195319E+03  0.81278894871E+03  0.00000000000E+00 0.  1.
<mgrwt>
<rscale>  0 0.96536304E+02</rscale>
<asrwt>0</asrwt>
<pdfrwt beam="1">  1        1 0.19074533E+00 0.92512948E+02</pdfrwt>
<pdfrwt beam="2">  1       -1 0.14324487E+00 0.10073463E+03</pdfrwt>
<totfact> 0.53914224E+00</totfact>
</mgrwt>
</event>
<event>
 7    1  0.3113530E-004  0.9693703E+02  0.7546771E-02  0.1378904E+00
          3   -1    0    0  503    0 -0.00000000000E+00  0.00000000000E+00  0.18841258917E+04  0.18841258917E+04  0.00000000000E+00 0. -1.
          2   -1    0    0  502    0  0.00000000000E+00 -0.00000000000E+00 -0.25413745729E+03  0.25413745729E+03  0.00000000000E+00 0.  1.
         25    2    1    2    0    0 -0.11611461255E+03 -0.75702743149E+02  0.20046053238E+03  0.27390365355E+03  0.12500111127E+03 0.  0.
          4    1    3    3  501    0 -0.11403411088E+03 -0.98204709640E+02  0.12663826546E+03  0.19668962001E+03  0.12700000000E+01 0. -1.
         -4    1    3    3    0  501 -0.20805016704E+01  0.22501966490E+02  0.73822266924E+02  0.77214033549E+02  0.12700000000E+01 0. -1.
          2    1    1    2  502    0  0.35814700178E+02  0.24253453637E+02 -0.21386839158E+03  0.21819856021E+03  0.00000000000E+00 0.  1.
          3    1    1    2  503    0  0.80299912372E+02  0.51449289513E+02  0.16433962936E+04  0.16461611352E+04  0.00000000000E+00 0. -1.
<mgrwt>
<rscale>  0 0.64752841E+02</rscale>
<asrwt>0</asrwt>
<pdfrwt beam="2">  1        2 0.39098072E-01 0.43254165E+02</pdfrwt>
<pdfrwt beam="1">  1        3 0.28986551E+00 0.96937033E+02</pdfrwt>
<totfact> 0.42482470E+00</totfact>
</mgrwt>
</event>
<event>
 7    1  0.3113530E-004  0.1004581E+03  0.7546771E-02  0.1296920E+00
          2   -1    0    0  502    0  0.00000000000E+00  0.00000000000E+00  0.19579390601E+04  0.19579390601E+04  0.00000000000E+00 0. -1.
          2   -1    0    0  503    0 -0.00000000000E+00 -0.00000000000E+00 -0.32845674939E+02  0.32845674939E+02  0.00000000000E+00 0. -1.
         25    2    1    2    0    0 -0.32196778729E+02 -0.94701362142E+01  0.28112599980E+03  0.30948898021E+03  0.12500114027E+03 0.  0.
          4    1    3    3  501    0 -0.42427112326E+02 -0.37789069135E+02  0.27218372142E+03  0.27805334868E+03  0.12700000000E+01 0. -1.
         -4    1    3    3    0  501  0.10230333598E+02  0.28318932921E+02  0.89422783836E+01  0.31435631534E+02  0.12700000000E+01 0. -1.
          2    1    1    2  502    0  0.10486297872E+03 -0.34940944622E+02  0.15520848553E+04  0.15560155886E+04  0.00000000000E+00 0. -1.
          2    1    1    2  503    0 -0.72666199990E+02  0.44411080837E+02  0.91882530100E+02  0.12528016627E+03  0.00000000000E+00 0. -1.
<mgrwt>
<rscale>  0 0.92494874E+02</rscale>
<asrwt>0</asrwt>
<pdfrwt beam="1">  1        2 0.30122130E+00 0.10045808E+03</pdfrwt>
<pdfrwt beam="2">  1        2 0.50531823E-02 0.85162907E+02</pdfrwt>
<totfact> 0.18803097E+03</totfact>
</mgrwt>
</event>
<event>
 7    1  0.3113530E-004  0.8601260E+02  0.7546771E-02  0.1472834E+00
         -2   -1    0    0    0  501 -0.00000000000E+00  0.00000000000E+00  0.73508684045E+02  0.73508684045E+02  0.00000000000E+00 0.  1.
          2   -1    0    0  503    0  0.00000000000E+00 -0.00000000000E+00 -0.10902107102E+04  0.10902107102E+04  0.00000000000E+00 0.  1.
         25    2    1    2    0    0  0.44788655956E+02 -0.57229102564E+02 -0.97031162319E+02  0.17413481372E+03  0.12500677184E+03 0.  0.
          4    1    3    3  502    0  0.41687758516E+02 -0.95324883082E+02 -0.84026008526E+02  0.13374111392E+03  0.12700000000E+01 0.  1.
         -4    1    3    3    0  502  0.31008974400E+01  0.38095780518E+02 -0.13005153793E+02  0.40393699799E+02  0.12700000000E+01 0.  1.
          2    1    1    2  503    0 -0.35583479384E+02  0.79173977681E+02 -0.94835206770E+03  0.95231630620E+03  0.00000000000E+00 0.  1.
         -2    1    1    2    0  501 -0.92051765721E+01 -0.21944875117E+02  0.28681203835E+02  0.37268274350E+02  0.00000000000E+00 0.  1.
<mgrwt>
<rscale>  0 0.45242347E+02</rscale>
<asrwt>0</asrwt>
<pdfrwt beam="2">  1        2 0.16772470E+00 0.86012598E+02</pdfrwt>
<pdfrwt beam="1">  1       -2 0.11309030E-01 0.23797328E+02</pdfrwt>
<totfact> 0.11395005E+03</totfact>
</mgrwt>
</event>
<event>
 7    1  0.3113530E-004  0.9770517E+02  0.7546771E-02  0.1378516E+00
          3   -1    0    0  503    0 -0.00000000000E+00  0.00000000000E+00  0.74648471482E+02  0.74648471482E+02  0.00000000000E+00 0. -1.
          2   -1    0    0  502    0  0.00000000000E+00 -0.00000000000E+00 -0.31756505415E+04  0.31756505415E+04  0.00000000000E+00 0. -1.
         25    2    1    2    0    0 -0.83126770301E+02 -0.71829095174E+01 -0.29363511515E+04  0.29401956758E+04  0.12502349069E+03 0.  0.
          4    1    3    3  501    0 -0.26470152090E+02  0.35542333294E+02 -0.21966958877E+04  0.21971432276E+04  0.12700000000E+01 0.  1.
         -4    1    3    3    0  501 -0.56656618211E+02 -0.42725242812E+02 -0.73965526375E+03  0.74305244825E+03  0.12700000000E+01 0.  1.
          2    1    1    2  502    0 -0.83560200448E+01  0.42231382916E+02 -0.20103919412E+03  0.20559686366E+03  0.00000000000E+00 0. -1.
          3    1    1    2  503    0  0.91482790346E+02 -0.35048473399E+02  0.36388275531E+02  0.10450647355E+03  0.00000000000E+00 0. -1.
<mgrwt>
<rscale>  0 0.64855371E+02</rscale>
<asrwt>0</asrwt>
<pdfrwt beam="2">  1        2 0.48856160E+00 0.43050119E+02</pdfrwt>
<pdfrwt beam="1">  1        3 0.11484381E-01 0.97705168E+02</pdfrwt>
<totfact> 0.75228202E+01</totfact>
</mgrwt>
</event>
<event>
 7    1  0.3113530E-004  0.1791974E+03  0.7546771E-02  0.1173314E+00
          2   -1    0    0  502    0  0.00000000000E+00  0.00000000000E+00  0.12162346725E+04  0.12162346725E+04  0.00000000000E+00 0. -1.
          1   -1    0    0  503    0 -0.00000000000E+00 -0.00000000000E+00 -0.90110884713E+02  0.90110884713E+02  0.00000000000E+00 0. -1.
         25    2    1    2    0    0  0.11250305829E+03  0.13648079719E+03  0.65725897620E+03  0.69202372909E+03  0.12499413472E+03 0.  0.
          4    1    3    3  501    0  0.11957828485E+03  0.53304463920E+02  0.35224686830E+03  0.37579223143E+03  0.12700000000E+01 0.  1.
         -4    1    3    3    0  501 -0.70752265605E+01  0.83176333270E+02  0.30501210790E+03  0.31623149766E+03  0.12700000000E+01 0.  1.
          2    1    1    2  502    0 -0.21231701354E+03  0.12344254975E+02  0.30267493578E+03  0.36992298066E+03  0.00000000000E+00 0. -1.
          1    1    1    2  503    0  0.99813955250E+02 -0.14882505217E+03  0.16618987580E+03  0.24439884745E+03  0.00000000000E+00 0. -1.
<mgrwt>
<rscale>  0 0.17442170E+03</rscale>
<asrwt>0</asrwt>
<pdfrwt beam="1">  1        2 0.18711301E+00 0.16977324E+03</pdfrwt>
<pdfrwt beam="2">  1        1 0.13863214E-01 0.17919744E+03</pdfrwt>
<totfact> 0.11112014E+03</totfact>
</mgrwt>
</event>
<event>
 7    1  0.3113530E-004  0.6671439E+02  0.7546771E-02  0.1410830E+00
          2   -1    0    0  503    0  0.00000000000E+00  0.00000000000E+00  0.25912267423E+04  0.25912267423E+04  0.00000000000E+00 0.  1.
         -3   -1    0    0    0  501 -0.00000000000E+00 -0.00000000000E+00 -0.21296367204E+03  0.21296367204E+03  0.00000000000E+00 0.  1.
         25    2    1    2    0    0 -0.10003926689E+03 -0.23356829586E+02  0.12994825871E+04  0.13095166397E+04  0.12500175570E+03 0.  0.
          4    1    3    3  502    0 -0.88984830148E+02 -0.48405328132E+02  0.53288214544E+03  0.54242637253E+03  0.12700000000E+01 0. -1.
         -4    1    3    3    0  502 -0.11054436739E+02  0.25048498546E+02  0.76660044169E+03  0.76709026715E+03  0.12700000000E+01 0. -1.
          2    1    1    2  503    0  0.34380838556E+02  0.34513078030E+02  0.12809197277E+04  0.12818457565E+04  0.00000000000E+00 0.  1.
         -3    1    1    2    0  501  0.65658428331E+02 -0.11156248445E+02 -0.20213924462E+03  0.21282801814E+03  0.00000000000E+00 0.  1.
<mgrwt>
<rscale>  0 0.57008957E+02</rscale>
<asrwt>0</asrwt>
<pdfrwt beam="1">  1        2 0.39865025E+00 0.48715445E+02</pdfrwt>
<pdfrwt beam="2">  1       -3 0.32763644E-01 0.66714389E+02</pdfrwt>
<totfact> 0.23755292E+01</totfact>
</mgrwt>
</event>
<event>
 7    1  0.3113530E-004  0.7313940E+02  0.7546771E-02  0.1510795E+00
          1   -1    0    0  503    0  0.00000000000E+00  0.00000000000E+00  0.33651527943E+03  0.33651527943E+03  0.00000000000E+00 0. -1.
         -2   -1    0    0    0  501 -0.00000000000E+00 -0.00000000000E+00 -0.69644180783E+02  0.69644180783E+02  0.00000000000E+00 0.  1.
         25    2    1    2    0    0  0.87228986991E+02 -0.11371149682E+02  0.13943637342E+03  0.20689516862E+03  0.12499963739E+03 0.  0.
          4    1    3    3  502    0  0.51349127965E+02  0.32517523516E+02  0.50093813051E+01  0.60998598996E+02  0.12700000000E+01 0.  1.
         -4    1    3    3    0  502  0.35879859026E+02 -0.43888673198E+02  0.13442699211E+03  0.14589656962E+03  0.12700000000E+01 0.  1.
          1    1    1    2  503    0 -0.69923916882E+02 -0.13808633724E+01  0.15158018531E+03  0.16693655535E+03  0.00000000000E+00 0. -1.
         -2    1    1    2    0  501 -0.17305070109E+02  0.12752013055E+02 -0.24145460076E+02  0.32327736244E+02  0.00000000000E+00 0.  1.
<mgrwt>
<rscale>  0 0.39651063E+02</rscale>
<asrwt>0</asrwt>
<pdfrwt beam="1">  1        1 0.51771580E-01 0.73139402E+02</pdfrwt>
<pdfrwt beam="2">  1       -2 0.10714490E-01 0.21496030E+02</pdfrwt>
<totfact> 0.33046873E+03</totfact>
</mgrwt>
</event>
<event>
 7    1  0.3113530E-004  0.9247465E+02  0.7546771E-02  0.1303091E+00
         -1   -1    0    0    0  501  0.00000000000E+00  0.00000000000E+00  0.34911870521E+03  0.34911870521E+03  0.00000000000E+00 0.  1.
         -3   -1    0    0    0  502 -0.00000000000E+00 -0.00000000000E+00 -0.31965951558E+03  0.31965951558E+03  0.00000000000E+00 0.  1.
         25    2    1    2    0    0  0.40813198291E+02 -0.78356835635E+02  0.72323144523E+02  0.16929783048E+03  0.12500242929E+03 0.  0.
          4    1    3    3  503    0 -0.28539108070E+02 -0.70386819706E+02  0.63332619689E+02  0.98901055072E+02  0.12700000000E+01 0.  1.
         -4    1    3    3    0  503  0.69352306361E+02 -0.79700159288E+01  0.89905248336E+01  0.70396775411E+02  0.12700000000E+01 0.  1.
         -1    1    1    2    0  501  0.51642137794E+02  0.80246888921E+02  0.20976868781E+03  0.23045471565E+03  0.00000000000E+00 0.  1.
         -3    1    1    2    0  502 -0.92455336085E+02 -0.18900532867E+01 -0.25263264270E+03  0.26902567467E+03  0.00000000000E+00 0.  1.
<mgrwt>
<rscale>  0 0.89901107E+02</rscale>
<asrwt>0</asrwt>
<pdfrwt beam="1">  1       -1 0.53710570E-01 0.87399183E+02</pdfrwt>
<pdfrwt beam="2">  1       -3 0.49178387E-01 0.92474653E+02</pdfrwt>
<totfact> 0.66233392E+01</totfact>
</mgrwt>
</event>
<event>
 7    1  0.3113530E-004  0.9506534E+02  0.7546771E-02  0.1365605E+00
          2   -1    0    0  503    0  0.00000000000E+00  0.00000000000E+00  0.31887214048E+03  0.31887214048E+03  0.00000000000E+00 0.  1.
          2   -1    0    0  502    0 -0.00000000000E+00 -0.00000000000E+00 -0.88456326917E+03  0.88456326917E+03  0.00000000000E+00 0. -1.
         25    2    1    2    0    0  0.10059419635E+03 -0.95389873856E+02 -0.22575548763E+03  0.29292681950E+03  0.12498864353E+03 0.  0.
          4    1    3    3  501    0 -0.20556496212E+02 -0.54135872721E+01 -0.81216169352E+02  0.83961631284E+02  0.12700000000E+01 0.  1.
         -4    1    3    3    0  501  0.12115069256E+03 -0.89976286584E+02 -0.14453931828E+03  0.20896518821E+03  0.12700000000E+01 0.  1.
          2    1    1    2  502    0 -0.59008873247E+02  0.69059159628E+02 -0.61976350868E+03  0.62638488275E+03  0.00000000000E+00 0. -1.
          2    1    1    2  503    0 -0.41585323102E+02  0.26330714228E+02  0.27982786762E+03  0.28412370740E+03  0.00000000000E+00 0.  1.
<mgrwt>
<rscale>  0 0.68404326E+02</rscale>
<asrwt>0</asrwt>
<pdfrwt beam="1">  1        2 0.49057253E-01 0.49220378E+02</pdfrwt>
<pdfrwt beam="2">  1        2 0.13608666E+00 0.95065337E+02</pdfrwt>
<totfact> 0.51290363E+02</totfact>
</mgrwt>
</event>
<event>
 7    1  0.3113530E-004  0.3029174E+02  0.7546771E-02  0.1613294E+00
         -1   -1    0    0    0  501 -0.00000000000E+00  0.00000000000E+00  0.61015305211E+02  0.61015305211E+02  0.00000000000E+00 0.  1.
          2   -1    0    0  503    0  0.00000000000E+00 -0.00000000000E+00 -0.17549346049E+03  0.17549346049E+03  0.00000000000E+00 0. -1.
         25    2    1    2    0    0  0.70630754651E+01  0.36026662174E+01 -0.88962525457E+02  0.15362834566E+03  0.12499788565E+03 0.  0.
          4    1    3    3  502    0 -0.32771872959E+02  0.31534865321E+02  0.69967212859E+01  0.46032710074E+02  0.12700000000E+01 0. -1.
         -4    1    3    3    0  502  0.39834948424E+02 -0.27932199103E+02 -0.95959246743E+02  0.10759563559E+03  0.12700000000E+01 0. -1.
          2    1    1    2  503    0 -0.27944347842E+02 -0.20926108655E+02 -0.39200744417E+02  0.52492732474E+02  0.00000000000E+00 0. -1.
         -1    1    1    2    0  501  0.20881272377E+02  0.17323442437E+02  0.13685114595E+02  0.30387687563E+02  0.00000000000E+00 0.  1.
<mgrwt>
<rscale>  0 0.28668212E+02</rscale>
<asrwt>0</asrwt>
<pdfrwt beam="2">  1        2 0.26998994E-01 0.30291739E+02</pdfrwt>
<pdfrwt beam="1">  1       -1 0.93869700E-02 0.27131701E+02</pdfrwt>
<totfact> 0.11880058E+04</totfact>
</mgrwt>
</event>
<event>
 7    1  0.3113530E-004  0.7922638E+02  0.7546771E-02  0.1334084E+00
          2   -1    0    0  502    0  0.00000000000E+00  0.00000000000E+00  0.30770679036E+04  0.30770679036E+04  0.00000000000E+00 0. -1.
          1   -1    0    0  503    0 -0.00000000000E+00 -0.00000000000E+00 -0.18091782517E+03  0.18091782517E+03  0.00000000000E+00 0. -1.
         25    2    1    2    0    0  0.66605853609E+02  0.33314325965E+02  0.16619701710E+04  0.16683273538E+04  0.12500050463E+03 0.  0.
          4    1    3    3  501    0  0.50107064916E+02 -0.37574740702E+02  0.10811386176E+04  0.10829519391E+04  0.12700000000E+01 0. -1.
         -4    1    3    3    0  501  0.16498788693E+02  0.70889066667E+02  0.58083155344E+03  0.58537541473E+03  0.12700000000E+01 0. -1.
          2    1    1    2  502    0 -0.82277978225E+02  0.42371632832E+02  0.14019179414E+04  0.14049693717E+04  0.00000000000E+00 0. -1.
          1    1    1    2  503    0  0.15672124616E+02 -0.75685958797E+02 -0.16773803403E+03  0.18468900321E+03  0.00000000000E+00 0. -1.
<mgrwt>
<rscale>  0 0.78252971E+02</rscale>
<asrwt>0</asrwt>
<pdfrwt beam="1">  1        2 0.47339502E+00 0.79226377E+02</pdfrwt>
<pdfrwt beam="2">  1        1 0.27833514E-01 0.77291525E+02</pdfrwt>
<totfact> 0.50626324E+01</totfact>
</mgrwt>
</event>
<event>
 7    1  0.3113530E-004  0.1625891E+03  0.7546771E-02  0.1262996E+00
          2   -1    0    0  502    0  0.00000000000E+00  0.00000000000E+00  0.85067086576E+02  0.85067086576E+02  0.00000000000E+00 0. -1.
          2   -1    0    0  503    0 -0.00000000000E+00 -0.00000000000E+00 -0.13525539059E+04  0.13525539059E+04  0.00000000000E+00 0. -1.
         25    2    1    2    0    0  0.84215949796E+02 -0.13220389471E+03 -0.43095307623E+03  0.47530421475E+03  0.12499338651E+03 0.  0.
          4    1    3    3  501    0 -0.28495793941E+02 -0.48039071662E+02 -0.16860123325E+03  0.17761686697E+03  0.12700000000E+01 0.  1.
         -4    1    3    3    0  501  0.11271174374E+03 -0.84164823051E+02 -0.26235184298E+03  0.29768734778E+03  0.12700000000E+01 0.  1.
          2    1    1    2  502    0 -0.19906095778E+02  0.16604957361E+03 -0.53022640282E+02  0.17544262290E+03  0.00000000000E+00 0. -1.
          2    1    1    2  503    0 -0.64309854017E+02 -0.33845678900E+02 -0.78351110285E+03  0.78687415486E+03  0.00000000000E+00 0. -1.
<mgrwt>
<rscale>  0 0.10870028E+03</rscale>
<asrwt>0</asrwt>
<pdfrwt beam="1">  1        2 0.13087244E-01 0.16258909E+03</pdfrwt>
<pdfrwt beam="2">  1        2 0.20808522E+00 0.72672466E+02</pdfrwt>
<totfact> 0.12500266E+03</totfact>
</mgrwt>
</event>
<event>
 7    1  0.3113530E-004  0.4928894E+02  0.7546771E-02  0.1464217E+00
          3   -1    0    0  503    0  0.00000000000E+00  0.00000000000E+00  0.65138771474E+03  0.65138771474E+03  0.00000000000E+00 0. -1.
         -3   -1    0    0    0  501 -0.00000000000E+00 -0.00000000000E+00 -0.34982077448E+02  0.34982077448E+02  0.00000000000E+00 0.  1.
         25    2    1    2    0    0  0.85838082419E+02  0.30431705967E+01  0.46686295449E+03  0.49088108097E+03  0.12500312035E+03 0.  0.
          4    1    3    3  502    0  0.96263217845E+02  0.44111142716E+02  0.28218569018E+03  0.30140135478E+03  0.12700000000E+01 0. -1.
         -4    1    3    3    0  502 -0.10425135426E+02 -0.41067972119E+02  0.18467726431E+03  0.18947972619E+03  0.12700000000E+01 0. -1.
          3    1    1    2  503    0 -0.40660110723E+02 -0.17274578254E+02  0.14048053238E+03  0.14726315098E+03  0.00000000000E+00 0. -1.
         -3    1    1    2    0  501 -0.45177971696E+02  0.14231407657E+02  0.90621504205E+01  0.48225560243E+02  0.00000000000E+00 0.  1.
<mgrwt>
<rscale>  0 0.46663312E+02</rscale>
<asrwt>0</asrwt>
<pdfrwt beam="1">  1        3 0.10021349E+00 0.44177547E+02</pdfrwt>
<pdfrwt beam="2">  1       -3 0.53818585E-02 0.49288945E+02</pdfrwt>
<totfact> 0.35514902E+02</totfact>
</mgrwt>
</event>
<event>
 7    1  0.3113530E-004  0.5554602E+02  0.7546771E-02  0.1516137E+00
          1   -1    0    0  503    0 -0.00000000000E+00  0.00000000000E+00  0.26478769098E+04  0.26478769098E+04  0.00000000000E+00 0. -1.
          2   -1    0    0  502    0  0.00000000000E+00 -0.00000000000E+00 -0.38753217489E+02  0.38753217489E+02  0.00000000000E+00 0. -1.
         25    2    1    2    0    0  0.21362255147E+02  0.60140333405E+02  0.72465828651E+03  0.73812439322E+03  0.12499912803E+03 0.  0.
          4    1    3    3  501    0 -0.38113881336E+02  0.60252652593E+02  0.25740360372E+03  0.26709788132E+03  0.12700000000E+01 0. -1.
         -4    1    3    3    0  501  0.59476136483E+02 -0.11231918731E+00  0.46725468279E+03  0.47102651190E+03  0.12700000000E+01 0. -1.
          2    1    1    2  502    0 -0.26837502350E+02 -0.50184168716E+01 -0.25724709247E+02  0.37512620624E+02  0.00000000000E+00 0. -1.
          1    1    1    2  503    0  0.54752472027E+01 -0.55121916534E+02  0.19101901151E+04  0.19109931135E+04  0.00000000000E+00 0. -1.
<mgrwt>
<rscale>  0 0.38942971E+02</rscale>
<asrwt>0</asrwt>
<pdfrwt beam="2">  1        2 0.59620355E-02 0.27302675E+02</pdfrwt>
<pdfrwt beam="1">  1        1 0.40736554E+00 0.55546023E+02</pdfrwt>
<totfact> 0.22186155E+02</totfact>
</mgrwt>
</event>
<event>
 7    1  0.3113530E-004  0.7493360E+02  0.7546771E-02  0.1358376E+00
         -1   -1    0    0    0  501 -0.00000000000E+00  0.00000000000E+00  0.34611198943E+03  0.34611198943E+03  0.00000000000E+00 0.  1.
          1   -1    0    0  503    0  0.00000000000E+00 -0.00000000000E+00 -0.89708277919E+03  0.89708277919E+03  0.00000000000E+00 0. -1.
         25    2    1    2    0    0  0.85193116620E+02  0.57751839640E+01  0.96091841536E+02  0.17930670126E+03  0.12500412488E+03 0.  0.
          4    1    3    3  502    0  0.27633015499E+01 -0.17487938065E+01 -0.29050578251E+02  0.29261632079E+02  0.12700000000E+01 0. -1.
         -4    1    3    3    0  502  0.82429815070E+02  0.75239777705E+01  0.12514241979E+03  0.15004506918E+03  0.12700000000E+01 0. -1.
          1    1    1    2  503    0 -0.29531153554E+02 -0.59407733941E+02 -0.84696637830E+03  0.84956071817E+03  0.00000000000E+00 0. -1.
         -1    1    1    2    0  501 -0.55661963066E+02  0.53632549977E+02  0.19990374700E+03  0.21432734920E+03  0.00000000000E+00 0.  1.
<mgrwt>
<rscale>  0 0.70507486E+02</rscale>
<asrwt>0</asrwt>
<pdfrwt beam="2">  1        1 0.13801273E+00 0.66342806E+02</pdfrwt>
<pdfrwt beam="1">  1       -1 0.53247999E-01 0.74933604E+02</pdfrwt>
<totfact> 0.77970296E+01</totfact>
</mgrwt>
</event>
<event>
 7    1  0.3113530E-004  0.4146296E+02  0.7546771E-02  0.1547866E+00
          2   -1    0    0  503    0  0.00000000000E+00  0.00000000000E+00  0.77859949982E+03  0.77859949982E+03  0.00000000000E+00 0. -1.
         -1   -1    0    0    0  501 -0.00000000000E+00 -0.00000000000E+00 -0.14279532159E+02  0.14279532159E+02  0.00000000000E+00 0.  1.
         25    2    1    2    0    0  0.14322363552E+02  0.20706723881E+02  0.52207386246E+03  0.53741981768E+03  0.12500017625E+03 0.  0.
          4    1    3    3  502    0 -0.13826074065E+02  0.44478232131E+02  0.71513263381E+02  0.85353577529E+02  0.12700000000E+01 0. -1.
         -4    1    3    3    0  502  0.28148437617E+02 -0.23771508250E+02  0.45056059908E+03  0.45206624015E+03  0.12700000000E+01 0. -1.
          2    1    1    2  503    0 -0.10941568089E+02 -0.50197977810E+02  0.14999968681E+03  0.15855428386E+03  0.00000000000E+00 0. -1.
         -1    1    1    2    0  501 -0.33807954635E+01  0.29491253929E+02  0.92246418399E+02  0.96904930440E+02  0.00000000000E+00 0.  1.
<mgrwt>
<rscale>  0 0.35082804E+02</rscale>
<asrwt>0</asrwt>
<pdfrwt beam="1">  1        2 0.11978451E+00 0.41462956E+02</pdfrwt>
<pdfrwt beam="2">  1       -1 0.21968517E-02 0.29684404E+02</pdfrwt>
<totfact> 0.19816730E+04</totfact>
</mgrwt>
</event>
<event>
 7    1  0.3113530E-004  0.4805970E+02  0.7546771E-02  0.1488867E+00
         -1   -1    0    0    0  501 -0.00000000000E+00  0.00000000000E+00  0.14585219813E+02  0.14585219813E+02  0.00000000000E+00 0.  1.
          2   -1    0    0  503    0  0.00000000000E+00 -0.00000000000E+00 -0.12101619168E+04  0.12101619168E+04  0.00000000000E+00 0. -1.
         25    2    1    2    0    0 -0.19724772424E+02 -0.35365468014E+02 -0.10183011993E+04  0.10267432015E+04  0.12499794516E+03 0.  0.
          4    1    3    3  502    0 -0.34614443058E+02 -0.49736411867E+02 -0.98896415564E+03  0.99081965280E+03  0.12700000000E+01 0.  1.
         -4    1    3    3    0  502  0.14889670635E+02  0.14370943853E+02 -0.29337043700E+02  0.35923548709E+02  0.12700000000E+01 0.  1.
          2    1    1    2  503    0  0.36099391158E+02 -0.11979157571E+02 -0.80347585201E+02  0.88895448172E+02  0.00000000000E+00 0. -1.
         -1    1    1    2    0  501 -0.16374618735E+02  0.47344625585E+02 -0.96927912493E+02  0.10910848698E+03  0.00000000000E+00 0.  1.
<mgrwt>
<rscale>  0 0.42754576E+02</rscale>
<asrwt>0</asrwt>
<pdfrwt beam="2">  1        2 0.18617874E+00 0.38035066E+02</pdfrwt>
<pdfrwt beam="1">  1       -1 0.22438801E-02 0.48059698E+02</pdfrwt>
<totfact> 0.11879068E+04</totfact>
</mgrwt>
</event>
<event>
 7    1  0.3915900E-004  0.9475270E+02  0.7546771E-02  0.1411249E+00
         -2   -1    0    0    0  501 -0.00000000000E+00  0.00000000000E+00  0.31037976805E+02  0.31037976805E+02  0.00000000000E+00 0.  1.
          1   -1    0    0  503    0  0.00000000000E+00 -0.00000000000E+00 -0.11178578934E+04  0.11178578934E+04  0.00000000000E+00 0. -1.
         25    2    1    2    0    0 -0.33890615574E+02 -0.10596694197E+03 -0.24978310161E+03  0.30063847967E+03  0.12495731670E+03 0.  0.
          4    1    3    3  502    0  0.29936852957E+02 -0.55594716668E+01 -0.85405402385E+01  0.31649275154E+02  0.12700000000E+01 0. -1.
         -4    1    3    3    0  502 -0.63827468531E+02 -0.10040747031E+03 -0.24124256137E+03  0.26898920452E+03  0.12700000000E+01 0. -1.
          1    1    1    2  503    0  0.80956420676E+01  0.33216047920E+02 -0.54880798890E+03  0.54987185229E+03  0.00000000000E+00 0. -1.
         -2    1    1    2    0  501  0.25794973506E+02  0.72750894055E+02 -0.28822882610E+03  0.29838553825E+03  0.00000000000E+00 0.  1.
<mgrwt>
<rscale>  0 0.56916088E+02</rscale>
<asrwt>0</asrwt>
<pdfrwt beam="2">  1        1 0.17197813E+00 0.34188379E+02</pdfrwt>
<pdfrwt beam="1">  1       -2 0.47750735E-02 0.94752697E+02</pdfrwt>
<totfact> 0.25661306E+03</totfact>
</mgrwt>
</event>
<event>
 7    1  0.3113530E-004  0.1161068E+03  0.7546771E-02  0.1277897E+00
          2   -1    0    0  502    0  0.00000000000E+00  0.00000000000E+00  0.19783928787E+04  0.19783928787E+04  0.00000000000E+00 0. -1.
          1   -1    0    0  503    0 -0.00000000000E+00 -0.00000000000E+00 -0.31885552841E+03  0.31885552841E+03  0.00000000000E+00 0. -1.
         25    2    1    2    0    0 -0.52226072767E+02  0.28190985044E+02  0.18991986871E+03  0.23498118595E+03  0.12499722758E+03 0.  0.
          4    1    3    3  501    0  0.56398912784E+01 -0.42698009910E+02  0.37123907173E+02  0.56874649957E+02  0.12700000000E+01 0.  1.
         -4    1    3    3    0  501 -0.57865964046E+02  0.70888994954E+02  0.15279596154E+03  0.17810653599E+03  0.12700000000E+01 0.  1.
          2    1    1    2  502    0  0.16195981251E+02  0.86617829206E+02  0.17525739225E+04  0.17547878254E+04  0.00000000000E+00 0. -1.
          1    1    1    2  503    0  0.36030091516E+02 -0.11480881425E+03 -0.28295644098E+03  0.30747939576E+03  0.00000000000E+00 0. -1.
<mgrwt>
<rscale>  0 0.10114946E+03</rscale>
<asrwt>0</asrwt>
<pdfrwt beam="1">  1        2 0.30436813E+00 0.88119000E+02</pdfrwt>
<pdfrwt beam="2">  1        1 0.49054698E-01 0.11610678E+03</pdfrwt>
<totfact> 0.95428491E+01</totfact>
</mgrwt>
</event>
<event>
 7    1  0.3113530E-004  0.5931688E+02  0.7546771E-02  0.1409749E+00
          1   -1    0    0  503    0 -0.00000000000E+00  0.00000000000E+00  0.41021366478E+02  0.41021366478E+02  0.00000000000E+00 0. -1.
          2   -1    0    0  502    0  0.00000000000E+00 -0.00000000000E+00 -0.45737906591E+03  0.45737906591E+03  0.00000000000E+00 0. -1.
         25    2    1    2    0    0 -0.44662223004E+02  0.26862412897E+01 -0.13859113889E+03  0.19191898263E+03  0.12499384807E+03 0.  0.
          4    1    3    3  501    0 -0.64224447707E+02  0.45530603685E+02 -0.11461279956E+03  0.13905222859E+03  0.12700000000E+01 0. -1.
         -4    1    3    3    0  501  0.19562224703E+02 -0.42844362396E+02 -0.23978339337E+02  0.52866754031E+02  0.12700000000E+01 0. -1.
          2    1    1    2  502    0  0.33010653564E+02 -0.56698909584E+02 -0.20416120647E+03  0.21444409021E+03  0.00000000000E+00 0. -1.
          1    1    1    2  503    0  0.11651569439E+02  0.54012668294E+02 -0.73605354071E+02  0.92037359559E+02  0.00000000000E+00 0. -1.
<mgrwt>
<rscale>  0 0.57249985E+02</rscale>
<asrwt>0</asrwt>
<pdfrwt beam="2">  1        2 0.70366013E-01 0.59316878E+02</pdfrwt>
<pdfrwt beam="1">  1        1 0.63109792E-02 0.55255112E+02</pdfrwt>
<totfact> 0.10017983E+04</totfact>
</mgrwt>
</event>
<event>
 7    1  0.3113530E-004  0.8383460E+02  0.7546771E-02  0.1355124E+00
          2   -1    0    0  502    0  0.00000000000E+00  0.00000000000E+00  0.33133666344E+03  0.33133666344E+03  0.00000000000E+00 0. -1.
          1   -1    0    0  503    0 -0.00000000000E+00 -0.00000000000E+00 -0.12216678158E+03  0.12216678158E+03  0.00000000000E+00 0. -1.
         25    2    1    2    0    0  0.47417802288E+02 -0.54721696124E+01  0.36660839586E+02  0.13873470140E+03  0.12499963039E+03 0.  0.
          4    1    3    3  501    0  0.48960248014E+02 -0.52289584510E+02 -0.10314451463E+02  0.72383059777E+02  0.12700000000E+01 0.  1.
         -4    1    3    3    0  501 -0.15424457256E+01  0.46817414897E+02  0.46975291048E+02  0.66351641619E+02  0.12700000000E+01 0.  1.
          2    1    1    2  502    0  0.39447596709E+02 -0.46462644270E+02  0.20066590220E+03  0.20971813108E+03  0.00000000000E+00 0. -1.
          1    1    1    2  503    0 -0.86865398997E+02  0.51934813883E+02 -0.28156859924E+02  0.10505061255E+03  0.00000000000E+00 0. -1.
<mgrwt>
<rscale>  0 0.71482239E+02</rscale>
<asrwt>0</asrwt>
<pdfrwt beam="1">  1        2 0.50974871E-01 0.60949899E+02</pdfrwt>
<pdfrwt beam="2">  1        1 0.18794890E-01 0.83834602E+02</pdfrwt>
<totfact> 0.35185991E+03</totfact>
</mgrwt>
</event>
<event>
 7    1  0.3113530E-004  0.7316136E+02  0.7546771E-02  0.1421690E+00
          2   -1    0    0  502    0  0.00000000000E+00  0.00000000000E+00  0.27524688192E+02  0.27524688192E+02  0.00000000000E+00 0. -1.
          1   -1    0    0  503    0 -0.00000000000E+00 -0.00000000000E+00 -0.14896560067E+04  0.14896560067E+04  0.00000000000E+00 0. -1.
         25    2    1    2    0    0 -0.20614673644E+02 -0.61202729313E+02 -0.69529848322E+03  0.70939201505E+03  0.12500524549E+03 0.  0.
          4    1    3    3  501    0  0.13994807319E+02 -0.18680365024E+01 -0.40574093776E+01  0.14745157277E+02  0.12700000000E+01 0.  1.
         -4    1    3    3    0  501 -0.34609480963E+02 -0.59334692810E+02 -0.69124107385E+03  0.69464685777E+03  0.12700000000E+01 0.  1.
          2    1    1    2  502    0  0.38155914378E+02 -0.14574424516E+02 -0.40439029654E+01  0.41044376023E+02  0.00000000000E+00 0. -1.
          1    1    1    2  503    0 -0.17541240733E+02  0.75777153829E+02 -0.76278893234E+03  0.76674430384E+03  0.00000000000E+00 0. -1.
<mgrwt>
<rscale>  0 0.54664907E+02</rscale>
<asrwt>0</asrwt>
<pdfrwt beam="1">  1        2 0.42345660E-02 0.40844677E+02</pdfrwt>
<pdfrwt beam="2">  1        1 0.22917792E+00 0.73161358E+02</pdfrwt>
<totfact> 0.18185991E+03</totfact>
</mgrwt>
</event>
<event>
 7    1  0.3113530E-004  0.3183971E+03  0.7546771E-02  0.1230847E+00
          1   -1    0    0  502    0  0.00000000000E+00  0.00000000000E+00  0.39567268548E+04  0.39567268548E+04  0.00000000000E+00 0. -1.
          3   -1    0    0  503    0 -0.00000000000E+00 -0.00000000000E+00 -0.13991657837E+03  0.13991657837E+03  0.00000000000E+00 0. -1.
         25    2    1    2    0    0  0.42564091268E+01 -0.28739638335E+03  0.69647091784E+03  0.76375432427E+03  0.12503651572E+03 0.  0.
          4    1    3    3  501    0  0.74461743727E+01 -0.16131165610E+03  0.53510628020E+03  0.55894296660E+03  0.12700000000E+01 0.  1.
         -4    1    3    3    0  501 -0.31897652459E+01 -0.12608472725E+03  0.16136463764E+03  0.20481135767E+03  0.12700000000E+01 0.  1.
          1    1    1    2  502    0 -0.40269185876E+02  0.32385982883E+03  0.32116449656E+04  0.32281837279E+04  0.00000000000E+00 0. -1.
          3    1    1    2  503    0  0.36012776749E+02 -0.36463445475E+02 -0.91305606995E+02  0.10470538102E+03  0.00000000000E+00 0. -1.
<mgrwt>
<rscale>  0 0.12774063E+03</rscale>
<asrwt>0</asrwt>
<pdfrwt beam="1">  1        1 0.60872712E+00 0.31839714E+03</pdfrwt>
<pdfrwt beam="2">  1        3 0.21525630E-01 0.51249419E+02</pdfrwt>
<totfact> 0.12575721E+00</totfact>
</mgrwt>
</event>
<event>
 7    1  0.3113530E-004  0.1359008E+03  0.7546771E-02  0.1278123E+00
         -1   -1    0    0    0  501  0.00000000000E+00  0.00000000000E+00  0.60117261700E+03  0.60117261700E+03  0.00000000000E+00 0.  1.
         -1   -1    0    0    0  502 -0.00000000000E+00 -0.00000000000E+00 -0.64586180671E+03  0.64586180671E+03  0.00000000000E+00 0.  1.
         25    2    1    2    0    0 -0.96921742119E+02 -0.27393778157E+02  0.10741880452E+03  0.19316444499E+03  0.12501783900E+03 0.  0.
          4    1    3    3  503    0 -0.93844786320E+02  0.24340859648E+02  0.10249553356E+03  0.14108957675E+03  0.12700000000E+01 0.  1.
         -4    1    3    3    0  503 -0.30769557985E+01 -0.51734637805E+02  0.49232709626E+01  0.52074868245E+02  0.12700000000E+01 0.  1.
         -1    1    1    2    0  501 -0.36196178824E+02  0.65827181330E+02  0.43969378903E+03  0.44606502808E+03  0.00000000000E+00 0.  1.
         -1    1    1    2    0  502  0.13311792094E+03 -0.38433403173E+02 -0.59180178325E+03  0.60780495064E+03  0.00000000000E+00 0.  1.
<mgrwt>
<rscale>  0 0.10104058E+03</rscale>
<asrwt>0</asrwt>
<pdfrwt beam="1">  1       -1 0.92488095E-01 0.75122441E+02</pdfrwt>
<pdfrwt beam="2">  1       -1 0.99363354E-01 0.13590079E+03</pdfrwt>
<totfact> 0.11316731E+01</totfact>
</mgrwt>
</event>
<event>
 7    1  0.3113530E-004  0.5517990E+02  0.7546771E-02  0.1507580E+00
         -1   -1    0    0    0  501 -0.00000000000E+00  0.00000000000E+00  0.42474915869E+02  0.42474915869E+02  0.00000000000E+00 0.  1.
          2   -1    0    0  503    0  0.00000000000E+00 -0.00000000000E+00 -0.34194239797E+03  0.34194239797E+03  0.00000000000E+00 0. -1.
         25    2    1    2    0    0  0.18640728131E+02 -0.51776158720E+02 -0.12923971555E+03  0.18803656797E+03  0.12500639769E+03 0.  0.
          4    1    3    3  502    0 -0.44873913159E+02  0.11924552236E+02 -0.39609832239E+02  0.61044366965E+02  0.12700000000E+01 0. -1.
         -4    1    3    3    0  502  0.63514641289E+02 -0.63700710956E+02 -0.89629883310E+02  0.12699220101E+03  0.12700000000E+01 0. -1.
          2    1    1    2  503    0 -0.43203078860E+02  0.36132946896E+02 -0.15181896103E+03  0.16192928334E+03  0.00000000000E+00 0. -1.
         -1    1    1    2    0  501  0.24562350729E+02  0.15643211824E+02 -0.18408805521E+02  0.34451462527E+02  0.00000000000E+00 0.  1.
<mgrwt>
<rscale>  0 0.40085921E+02</rscale>
<asrwt>0</asrwt>
<pdfrwt beam="2">  1        2 0.52606520E-01 0.55179900E+02</pdfrwt>
<pdfrwt beam="1">  1       -1 0.65346027E-02 0.29120768E+02</pdfrwt>
<totfact> 0.10313101E+04</totfact>
</mgrwt>
</event>
<event>
 7    1  0.3113530E-004  0.2111509E+03  0.7546771E-02  0.1164507E+00
          2   -1    0    0  502    0  0.00000000000E+00  0.00000000000E+00  0.76614528864E+03  0.76614528864E+03  0.00000000000E+00 0.  1.
          2   -1    0    0  503    0 -0.00000000000E+00 -0.00000000000E+00 -0.10163476323E+04  0.10163476323E+04  0.00000000000E+00 0. -1.
         25    2    1    2    0    0 -0.30651617149E+03  0.73967727025E+02 -0.20576435656E+03  0.39672094586E+03  0.12500060172E+03 0.  0.
          4    1    3    3  501    0 -0.10412317818E+03  0.55217332679E+02 -0.16553905960E+02  0.11902199278E+03  0.12700000000E+01 0.  1.
         -4    1    3    3    0  501 -0.20239299332E+03  0.18750394346E+02 -0.18921045060E+03  0.27769895309E+03  0.12700000000E+01 0.  1.
          2    1    1    2  502    0  0.11121424361E+03 -0.11416303357E+03  0.64690482463E+03  0.66624894622E+03  0.00000000000E+00 0.  1.
          2    1    1    2  503    0  0.19530192789E+03  0.40195306549E+02 -0.69134281171E+03  0.71952302883E+03  0.00000000000E+00 0. -1.
<mgrwt>
<rscale>  0 0.18344783E+03</rscale>
<asrwt>0</asrwt>
<pdfrwt beam="1">  1        2 0.11786851E+00 0.15937944E+03</pdfrwt>
<pdfrwt beam="2">  1        2 0.15636117E+00 0.21115086E+03</pdfrwt>
<totfact> 0.15492244E+02</totfact>
</mgrwt>
</event>
<event>
 7    1  0.3113530E-004  0.3877925E+02  0.7546771E-02  0.1610458E+00
          2   -1    0    0  503    0  0.00000000000E+00  0.00000000000E+00  0.15707862204E+04  0.15707862204E+04  0.00000000000E+00 0. -1.
         -2   -1    0    0    0  501 -0.00000000000E+00 -0.00000000000E+00 -0.72995330760E+01  0.72995330760E+01  0.00000000000E+00 0.  1.
         25    2    1    2    0    0 -0.25790017095E+01  0.55557323073E+02  0.92819010413E+03  0.93821934669E+03  0.12500162275E+03 0.  0.
          4    1    3    3  502    0 -0.27055075382E+02  0.84648671862E+02  0.78672178076E+03  0.79172605614E+03  0.12700000000E+01 0.  1.
         -4    1    3    3    0  502  0.24476073673E+02 -0.29091348788E+02  0.14146832337E+03  0.14649329055E+03  0.12700000000E+01 0.  1.
          2    1    1    2  503    0  0.81903616094E+01 -0.19935715880E+02  0.47814642617E+03  0.47863192502E+03  0.00000000000E+00 0. -1.
         -2    1    1    2    0  501 -0.56113599000E+01 -0.35621607194E+02  0.15715015702E+03  0.16123448176E+03  0.00000000000E+00 0.  1.
<mgrwt>
<rscale>  0 0.28910101E+02</rscale>
<asrwt>0</asrwt>
<pdfrwt beam="1">  1        2 0.24165915E+00 0.21552605E+02</pdfrwt>
<pdfrwt beam="2">  1       -2 0.11230063E-02 0.38779253E+02</pdfrwt>
<totfact> 0.20828319E+04</totfact>
</mgrwt>
</event>
<event>
 7    1  0.3113530E-004  0.4543230E+02  0.7546771E-02  0.1548702E+00
         -1   -1    0    0    0  501 -0.00000000000E+00  0.00000000000E+00  0.27397073500E+03  0.27397073500E+03  0.00000000000E+00 0.  1.
          3   -1    0    0  503    0  0.00000000000E+00 -0.00000000000E+00 -0.25682709039E+03  0.25682709039E+03  0.00000000000E+00 0. -1.
         25    2    1    2    0    0  0.37101687216E+02  0.17281349220E+01  0.63246416242E+02  0.14493760596E+03  0.12500911491E+03 0.  0.
          4    1    3    3  502    0 -0.83069200206E+01 -0.25239460251E+02 -0.28551875645E+02  0.39023810383E+02  0.12700000000E+01 0. -1.
         -4    1    3    3    0  502  0.45408607236E+02  0.26967595173E+02  0.91798291887E+02  0.10591379558E+03  0.12700000000E+01 0. -1.
          3    1    1    2  503    0 -0.37579006926E+00  0.26942923850E+02 -0.21191760418E+03  0.21362381263E+03  0.00000000000E+00 0. -1.
         -1    1    1    2    0  501 -0.36725897146E+02 -0.28671058772E+02  0.16581483255E+03  0.17223640679E+03  0.00000000000E+00 0.  1.
<mgrwt>
<rscale>  0 0.34988541E+02</rscale>
<asrwt>0</asrwt>
<pdfrwt beam="2">  1        3 0.39511860E-01 0.26945544E+02</pdfrwt>
<pdfrwt beam="1">  1       -1 0.42149344E-01 0.45432297E+02</pdfrwt>
<totfact> 0.13983086E+02</totfact>
</mgrwt>
</event>
<event>
 7    1  0.3113530E-004  0.4389159E+02  0.7546771E-02  0.1528462E+00
          2   -1    0    0  503    0  0.00000000000E+00  0.00000000000E+00  0.68826273189E+03  0.68826273189E+03  0.00000000000E+00 0. -1.
         -1   -1    0    0    0  501 -0.00000000000E+00 -0.00000000000E+00 -0.19332497866E+02  0.19332497866E+02  0.00000000000E+00 0.  1.
         25    2    1    2    0    0 -0.22845141091E+02 -0.10892974198E+02  0.52566776870E+03  0.54091755531E+03  0.12499856490E+03 0.  0.
          4    1    3    3  502    0 -0.71983786876E+02  0.10597569365E+02  0.33720816680E+03  0.34497091864E+03  0.12700000000E+01 0.  1.
         -4    1    3    3    0  502  0.49138645785E+02 -0.21490543564E+02  0.18845960190E+03  0.19594663667E+03  0.12700000000E+01 0.  1.
          2    1    1    2  503    0  0.36789949561E+01 -0.31613823610E+02  0.92152607085E+02  0.97493957965E+02  0.00000000000E+00 0. -1.
         -1    1    1    2    0  501  0.19166146135E+02  0.42506797808E+02  0.51109858238E+02  0.69183716485E+02  0.00000000000E+00 0.  1.
<mgrwt>
<rscale>  0 0.37375728E+02</rscale>
<asrwt>0</asrwt>
<pdfrwt beam="1">  1        2 0.10588656E+00 0.31827172E+02</pdfrwt>
<pdfrwt beam="2">  1       -1 0.29742310E-02 0.43891587E+02</pdfrwt>
<totfact> 0.16026469E+04</totfact>
</mgrwt>
</event>
<event>
 7    1  0.3113530E-004  0.3723089E+02  0.7546771E-02  0.1573653E+00
          1   -1    0    0  503    0  0.00000000000E+00  0.00000000000E+00  0.21437276612E+04  0.21437276612E+04  0.00000000000E+00 0. -1.
         -3   -1    0    0    0  501 -0.00000000000E+00 -0.00000000000E+00 -0.10941825915E+03  0.10941825915E+03  0.00000000000E+00 0.  1.
         25    2    1    2    0    0  0.28277448654E+02 -0.43528424204E+02  0.38398721234E+03  0.40714279686E+03  0.12499895993E+03 0.  0.
          4    1    3    3  502    0  0.12968479143E+02 -0.75140200709E+02  0.12986286367E+03  0.15059949360E+03  0.12700000000E+01 0.  1.
         -4    1    3    3    0  502  0.15308969511E+02  0.31611776505E+02  0.25412434867E+03  0.25654330326E+03  0.12700000000E+01 0.  1.
          1    1    1    2  503    0 -0.27345416295E+02  0.63724829001E+01  0.17445157946E+04  0.17447417396E+04  0.00000000000E+00 0. -1.
         -3    1    1    2    0  501 -0.93203235922E+00  0.37155941304E+02 -0.94193604893E+02  0.10126138386E+03  0.00000000000E+00 0.  1.
<mgrwt>
<rscale>  0 0.32332228E+02</rscale>
<asrwt>0</asrwt>
<pdfrwt beam="1">  1        1 0.32980422E+00 0.28078111E+02</pdfrwt>
<pdfrwt beam="2">  1       -3 0.16833580E-01 0.37230887E+02</pdfrwt>
<totfact> 0.51098574E+01</totfact>
</mgrwt>
</event>
<event>
 7    1  0.3113530E-004  0.3909626E+02  0.7546771E-02  0.1556591E+00
         -1   -1    0    0    0  501 -0.00000000000E+00  0.00000000000E+00  0.16628212203E+02  0.16628212203E+02  0.00000000000E+00 0.  1.
          2   -1    0    0  503    0  0.00000000000E+00 -0.00000000000E+00 -0.71404711635E+03  0.71404711635E+03  0.00000000000E+00 0. -1.
         25    2    1    2    0    0 -0.14935697313E+02  0.12421458008E+02 -0.31238288208E+03  0.33702601479E+03  0.12500440773E+03 0.  0.
          4    1    3    3  502    0  0.29233769378E+02  0.56736849391E+02 -0.16393841119E+03  0.17592924406E+03  0.12700000000E+01 0.  1.
         -4    1    3    3    0  502 -0.44169466691E+02 -0.44315391383E+02 -0.14844447089E+03  0.16109677072E+03  0.12700000000E+01 0.  1.
          2    1    1    2  503    0  0.26584239920E+02  0.28666977874E+02 -0.17469095086E+03  0.17901241785E+03  0.00000000000E+00 0. -1.
         -1    1    1    2    0  501 -0.11648542607E+02 -0.41088435882E+02 -0.21034507121E+03  0.21463689592E+03  0.00000000000E+00 0.  1.
<mgrwt>
<rscale>  0 0.34116259E+02</rscale>
<asrwt>0</asrwt>
<pdfrwt beam="2">  1        2 0.10985338E+00 0.39096259E+02</pdfrwt>
<pdfrwt beam="1">  1       -1 0.25581869E-02 0.29770602E+02</pdfrwt>
<totfact> 0.17773444E+04</totfact>
</mgrwt>
</event>
<event>
 7    1  0.3113530E-004  0.1097164E+03  0.7546771E-02  0.1272673E+00
          2   -1    0    0  502    0  0.00000000000E+00  0.00000000000E+00  0.38900893642E+03  0.38900893642E+03  0.00000000000E+00 0. -1.
          2   -1    0    0  503    0 -0.00000000000E+00 -0.00000000000E+00 -0.12683791769E+04  0.12683791769E+04  0.00000000000E+00 0.  1.
         25    2    1    2    0    0  0.11884215920E+03  0.14745463731E+03 -0.14668363295E+03  0.27019702395E+03  0.12499605878E+03 0.  0.
          4    1    3    3  501    0  0.33812379971E+02  0.11165312107E+03 -0.13300119900E+03  0.17691983586E+03  0.12700000000E+01 0.  1.
         -4    1    3    3    0  501  0.85029779226E+02  0.35801516244E+02 -0.13682433945E+02  0.93277188097E+02  0.12700000000E+01 0.  1.
          2    1    1    2  502    0 -0.31988661852E+02 -0.10197403197E+03  0.31617912226E+03  0.33375322476E+03  0.00000000000E+00 0. -1.
          2    1    1    2  503    0 -0.86853497346E+02 -0.45480605343E+02 -0.10488657298E+04  0.10534378646E+04  0.00000000000E+00 0.  1.
<mgrwt>
<rscale>  0 0.10371448E+03</rscale>
<asrwt>0</asrwt>
<pdfrwt beam="1">  1        2 0.59847528E-01 0.10971640E+03</pdfrwt>
<pdfrwt beam="2">  1        2 0.19513526E+00 0.98040887E+02</pdfrwt>
<totfact> 0.25157219E+02</totfact>
</mgrwt>
</event>
<event>
 7    1  0.3113530E-004  0.1106491E+03  0.7546771E-02  0.1402260E+00
          2   -1    0    0  502    0  0.00000000000E+00  0.00000000000E+00  0.10253279992E+04  0.10253279992E+04  0.00000000000E+00 0. -1.
          2   -1    0    0  503    0 -0.00000000000E+00 -0.00000000000E+00 -0.25550108439E+04  0.25550108439E+04  0.00000000000E+00 0. -1.
         25    2    1    2    0    0 -0.67058823924E+02  0.99185332746E+02  0.69084277623E+03  0.71219554704E+03  0.12499655854E+03 0.  0.
          4    1    3    3  501    0 -0.98565001848E+02  0.94652847304E+02  0.48435489138E+03  0.50326483564E+03  0.12700000000E+01 0.  1.
         -4    1    3    3    0  501  0.31506177924E+02  0.45324854418E+01  0.20648788486E+03  0.20893071139E+03  0.12700000000E+01 0.  1.
          2    1    1    2  502    0 -0.16538224782E+02 -0.26708709492E+02  0.32184090999E+03  0.32337043678E+03  0.00000000000E+00 0. -1.
          2    1    1    2  503    0  0.83597048706E+02 -0.72476623254E+02 -0.25423665310E+04  0.25447728593E+04  0.00000000000E+00 0. -1.
<mgrwt>
<rscale>  0 0.58957455E+02</rscale>
<asrwt>0</asrwt>
<pdfrwt beam="1">  1        2 0.15774277E+00 0.31414456E+02</pdfrwt>
<pdfrwt beam="2">  1        2 0.39307859E+00 0.11064911E+03</pdfrwt>
<totfact> 0.18702063E+01</totfact>
</mgrwt>
</event>
<event>
 7    1  0.3113530E-004  0.9941906E+02  0.7546771E-02  0.1301459E+00
         -1   -1    0    0    0  501 -0.00000000000E+00  0.00000000000E+00  0.69671443884E+03  0.69671443884E+03  0.00000000000E+00 0.  1.
          1   -1    0    0  503    0  0.00000000000E+00 -0.00000000000E+00 -0.10477888589E+04  0.10477888589E+04  0.00000000000E+00 0. -1.
         25    2    1    2    0    0  0.17854173468E+02  0.46147877822E+02 -0.17045252468E+03  0.21708810405E+03  0.12499913444E+03 0.  0.
          4    1    3    3  502    0  0.49681275556E+02 -0.46043067286E+01 -0.17620074288E+02  0.52929280169E+02  0.12700000000E+01 0. -1.
         -4    1    3    3    0  502 -0.31827102088E+02  0.50752184551E+02 -0.15283245039E+03  0.16415882388E+03  0.12700000000E+01 0. -1.
          1    1    1    2  503    0 -0.10030363646E+03 -0.42687633830E+02 -0.84798823930E+03  0.85496614410E+03  0.00000000000E+00 0. -1.
         -1    1    1    2    0  501  0.82449462990E+02 -0.34602439921E+01  0.66736634395E+03  0.67244904957E+03  0.00000000000E+00 0.  1.
<mgrwt>
<rscale>  0 0.90577391E+02</rscale>
<asrwt>0</asrwt>
<pdfrwt beam="2">  1        1 0.16119829E+00 0.99419060E+02</pdfrwt>
<pdfrwt beam="1">  1       -1 0.10718684E+00 0.82522041E+02</pdfrwt>
<totfact> 0.14562740E+01</totfact>
</mgrwt>
</event>
<event>
 7    1  0.3113530E-004  0.5954263E+02  0.7546771E-02  0.1464397E+00
         -1   -1    0    0    0  501 -0.00000000000E+00  0.00000000000E+00  0.17751879200E+04  0.17751879200E+04  0.00000000000E+00 0.  1.
          2   -1    0    0  503    0  0.00000000000E+00 -0.00000000000E+00 -0.13149339932E+02  0.13149339932E+02  0.00000000000E+00 0. -1.
         25    2    1    2    0    0  0.92943016471E+02  0.65956076606E+01  0.13225439078E+04  0.13317008267E+04  0.12499118976E+03 0.  0.
          4    1    3    3  502    0  0.12094867990E+03  0.21313014116E+02  0.11170990254E+04  0.11238303578E+04  0.12700000000E+01 0.  1.
         -4    1    3    3    0  502 -0.28005663429E+02 -0.14717406456E+02  0.20544488238E+03  0.20787046888E+03  0.12700000000E+01 0.  1.
          2    1    1    2  503    0 -0.56422779458E+02 -0.69978131309E+01  0.98809498469E+02  0.11399919481E+03  0.00000000000E+00 0. -1.
         -1    1    1    2    0  501 -0.36520237013E+02  0.40220547034E+00  0.34068517385E+03  0.34263723844E+03  0.00000000000E+00 0.  1.
<mgrwt>
<rscale>  0 0.46633067E+02</rscale>
<asrwt>0</asrwt>
<pdfrwt beam="2">  1        2 0.20229768E-02 0.59542632E+02</pdfrwt>
<pdfrwt beam="1">  1       -1 0.27310564E+00 0.36522452E+02</pdfrwt>
<totfact> 0.36751582E+02</totfact>
</mgrwt>
</event>
<event>
 7    1  0.3113530E-004  0.7993327E+02  0.7546771E-02  0.1372469E+00
          2   -1    0    0  502    0  0.00000000000E+00  0.00000000000E+00  0.27114056020E+02  0.27114056020E+02  0.00000000000E+00 0. -1.
          2   -1    0    0  503    0 -0.00000000000E+00 -0.00000000000E+00 -0.92054753312E+03  0.92054753312E+03  0.00000000000E+00 0. -1.
         25    2    1    2    0    0 -0.45613466536E+02 -0.11581235590E+01 -0.40360823727E+03  0.42497852515E+03  0.12500083224E+03 0.  0.
          4    1    3    3  501    0 -0.36347391468E+02 -0.59509212308E+02 -0.27041315495E+03  0.27926218234E+03  0.12700000000E+01 0.  1.
         -4    1    3    3    0  501 -0.92660750680E+01  0.58351088749E+02 -0.13319508233E+03  0.14571634281E+03  0.12700000000E+01 0.  1.
          2    1    1    2  502    0  0.87018401596E+02 -0.35499232675E+02 -0.14067105464E+03  0.16917666314E+03  0.00000000000E+00 0. -1.
          2    1    1    2  503    0 -0.41404935059E+02  0.36657356234E+02 -0.34915418519E+03  0.35350640086E+03  0.00000000000E+00 0. -1.
<mgrwt>
<rscale>  0 0.66485629E+02</rscale>
<asrwt>0</asrwt>
<pdfrwt beam="1">  1        2 0.41713938E-02 0.79933266E+02</pdfrwt>
<pdfrwt beam="2">  1        2 0.14162268E+00 0.55300365E+02</pdfrwt>
<totfact> 0.87487239E+03</totfact>
</mgrwt>
</event>
<event>
 7    1  0.3113530E-004  0.1593159E+03  0.7546771E-02  0.1374780E+00
          1   -1    0    0  503    0  0.00000000000E+00  0.00000000000E+00  0.27952801368E+04  0.27952801368E+04  0.00000000000E+00 0. -1.
         -1   -1    0    0    0  501 -0.00000000000E+00 -0.00000000000E+00 -0.76264349857E+03  0.76264349857E+03  0.00000000000E+00 0.  1.
         25    2    1    2    0    0 -0.16618103082E+03  0.78867533209E+02  0.28965572354E+03  0.36518694891E+03  0.12499938671E+03 0.  0.
          4    1    3    3  502    0  0.11279638448E+02  0.16018165328E+02 -0.10952986527E+00  0.19632543411E+02  0.12700000000E+01 0.  1.
         -4    1    3    3    0  502 -0.17746066927E+03  0.62849367881E+02  0.28976525340E+03  0.34555440550E+03  0.12700000000E+01 0.  1.
          1    1    1    2  503    0  0.14517151987E+03 -0.61556392676E+02  0.24650832827E+04  0.24701213634E+04  0.00000000000E+00 0. -1.
         -1    1    1    2    0  501  0.21009510949E+02 -0.17311140533E+02 -0.72210236800E+03  0.72261532298E+03  0.00000000000E+00 0.  1.
<mgrwt>
<rscale>  0 0.65855969E+02</rscale>
<asrwt>0</asrwt>
<pdfrwt beam="1">  1        1 0.43004309E+00 0.15931592E+03</pdfrwt>
<pdfrwt beam="2">  1       -1 0.11732977E+00 0.27222695E+02</pdfrwt>
<totfact> 0.86769285E-01</totfact>
</mgrwt>
</event>
<event>
 7    1  0.3113530E-004  0.7318927E+02  0.7546771E-02  0.1487128E+00
         -1   -1    0    0    0  501 -0.00000000000E+00  0.00000000000E+00  0.26610026579E+03  0.26610026579E+03  0.00000000000E+00 0.  1.
          2   -1    0    0  503    0  0.00000000000E+00 -0.00000000000E+00 -0.12001059155E+03  0.12001059155E+03  0.00000000000E+00 0. -1.
         25    2    1    2    0    0  0.65056483475E+02  0.47594049129E+02  0.13432134232E+03  0.20042210287E+03  0.12501702589E+03 0.  0.
          4    1    3    3  502    0  0.29268482611E+02  0.72413007333E+02  0.23858561290E+02  0.81676995245E+02  0.12700000000E+01 0.  1.
         -4    1    3    3    0  502  0.35788000864E+02 -0.24818958204E+02  0.11046278103E+03  0.11874510763E+03  0.12700000000E+01 0.  1.
          2    1    1    2  503    0 -0.42551685439E+02 -0.59111712498E+02 -0.69442766658E+02  0.10063368387E+03  0.00000000000E+00 0. -1.
         -1    1    1    2    0  501 -0.22504798036E+02  0.11517663369E+02  0.81211098566E+02  0.85055070598E+02  0.00000000000E+00 0.  1.
<mgrwt>
<rscale>  0 0.43014980E+02</rscale>
<asrwt>0</asrwt>
<pdfrwt beam="2">  1        2 0.18463168E-01 0.73189266E+02</pdfrwt>
<pdfrwt beam="1">  1       -1 0.40938502E-01 0.25280872E+02</pdfrwt>
<totfact> 0.19290670E+03</totfact>
</mgrwt>
</event>
<event>
 7    1  0.3113530E-004  0.2821595E+03  0.7546771E-02  0.1200159E+00
          2   -1    0    0  503    0  0.00000000000E+00  0.00000000000E+00  0.24868966849E+03  0.24868966849E+03  0.00000000000E+00 0. -1.
          2   -1    0    0  502    0 -0.00000000000E+00 -0.00000000000E+00 -0.88017769073E+03  0.88017769073E+03  0.00000000000E+00 0. -1.
         25    2    1    2    0    0  0.34186126214E+03  0.36451331847E+02 -0.20940734950E+03  0.42151349202E+03  0.12499745510E+03 0.  0.
          4    1    3    3  501    0  0.32504218429E+02 -0.73781306849E+01 -0.73639713584E+02  0.80841705480E+02  0.12700000000E+01 0.  1.
         -4    1    3    3    0  501  0.30935704371E+03  0.43829462532E+02 -0.13576763591E+03  0.34067178654E+03  0.12700000000E+01 0.  1.
          2    1    1    2  502    0 -0.26225318942E+03 -0.28400703510E+02 -0.51868954465E+03  0.58191251839E+03  0.00000000000E+00 0. -1.
          2    1    1    2  503    0 -0.79608072720E+02 -0.80506283366E+01  0.96608871920E+02  0.12544134881E+03  0.00000000000E+00 0. -1.
<mgrwt>
<rscale>  0 0.15025559E+03</rscale>
<asrwt>0</asrwt>
<pdfrwt beam="1">  1        2 0.38259949E-01 0.80014110E+02</pdfrwt>
<pdfrwt beam="2">  1        2 0.13541195E+00 0.28215949E+03</pdfrwt>
<totfact> 0.64117803E+02</totfact>
</mgrwt>
</event>
<event>
 7    1  0.3113530E-004  0.4203723E+02  0.7546771E-02  0.1565386E+00
          2   -1    0    0  502    0  0.00000000000E+00  0.00000000000E+00  0.11632413627E+04  0.11632413627E+04  0.00000000000E+00 0. -1.
          3   -1    0    0  503    0 -0.00000000000E+00 -0.00000000000E+00 -0.15606037650E+03  0.15606037650E+03  0.00000000000E+00 0. -1.
         25    2    1    2    0    0 -0.34810005688E+02  0.56680832517E+02  0.31175284859E+03  0.34240044618E+03  0.12499509456E+03 0.  0.
          4    1    3    3  501    0  0.33289798667E+02 -0.18674997574E+02  0.62500572418E+02  0.73245482334E+02  0.12700000000E+01 0. -1.
         -4    1    3    3    0  501 -0.68099804356E+02  0.75355830091E+02  0.24925227618E+03  0.26915496384E+03  0.12700000000E+01 0. -1.
          2    1    1    2  502    0  0.16807213634E+02 -0.37661538469E+02  0.83443271768E+03  0.83545127580E+03  0.00000000000E+00 0. -1.
          3    1    1    2  503    0  0.18002792054E+02 -0.19019294047E+02 -0.13900458011E+03  0.14145001718E+03  0.00000000000E+00 0. -1.
<mgrwt>
<rscale>  0 0.33179650E+02</rscale>
<asrwt>0</asrwt>
<pdfrwt beam="1">  1        2 0.17896020E+00 0.42037229E+02</pdfrwt>
<pdfrwt beam="2">  1        3 0.24009289E-01 0.26188434E+02</pdfrwt>
<totfact> 0.19273632E+02</totfact>
</mgrwt>
</event>
<event>
 7    1  0.3113530E-004  0.4663933E+02  0.7546771E-02  0.1486031E+00
          1   -1    0    0  503    0 -0.00000000000E+00  0.00000000000E+00  0.24225785830E+03  0.24225785830E+03  0.00000000000E+00 0.  1.
          2   -1    0    0  502    0  0.00000000000E+00 -0.00000000000E+00 -0.38401785234E+03  0.38401785234E+03  0.00000000000E+00 0. -1.
         25    2    1    2    0    0  0.19848166501E+02  0.18220062784E+02  0.12692849978E+03  0.18017036691E+03  0.12499838660E+03 0.  0.
          4    1    3    3  501    0  0.67530830318E+02  0.23762582287E+02  0.10569677611E+03  0.12766555816E+03  0.12700000000E+01 0.  1.
         -4    1    3    3    0  501 -0.47682663818E+02 -0.55425195033E+01  0.21231723667E+02  0.52504808742E+02  0.12700000000E+01 0.  1.
          2    1    1    2  502    0 -0.45228285493E+02  0.12668508219E+02 -0.35124866775E+03  0.35437510565E+03  0.00000000000E+00 0. -1.
          1    1    1    2  503    0  0.25380118992E+02 -0.30888571003E+02  0.82560173932E+02  0.91730238081E+02  0.00000000000E+00 0.  1.
<mgrwt>
<rscale>  0 0.43180495E+02</rscale>
<asrwt>0</asrwt>
<pdfrwt beam="2">  1        2 0.59079670E-01 0.46639329E+02</pdfrwt>
<pdfrwt beam="1">  1        1 0.37270440E-01 0.39978172E+02</pdfrwt>
<totfact> 0.12854098E+03</totfact>
</mgrwt>
</event>
<event>
 7    1  0.3113530E-004  0.2994045E+02  0.7546771E-02  0.1613671E+00
          1   -1    0    0  503    0 -0.00000000000E+00  0.00000000000E+00  0.52567264355E+03  0.52567264355E+03  0.00000000000E+00 0. -1.
          2   -1    0    0  502    0  0.00000000000E+00 -0.00000000000E+00 -0.79652210876E+03  0.79652210876E+03  0.00000000000E+00 0. -1.
         25    2    1    2    0    0 -0.76362824495E+01  0.17917514875E+01 -0.79259426538E+02  0.14821905423E+03  0.12500123263E+03 0.  0.
          4    1    3    3  501    0  0.46818303761E+02  0.19632361080E+02 -0.46855115563E+00  0.50785978467E+02  0.12700000000E+01 0.  1.
         -4    1    3    3    0  501 -0.54454586211E+02 -0.17840609592E+02 -0.78790875382E+02  0.97433075767E+02  0.12700000000E+01 0.  1.
          2    1    1    2  502    0 -0.11771062747E+02 -0.24730375105E+02 -0.68204825322E+03  0.68259795568E+03  0.00000000000E+00 0. -1.
          1    1    1    2  503    0  0.19407345196E+02  0.22938623617E+02  0.49045821455E+03  0.49137774239E+03  0.00000000000E+00 0. -1.
<mgrwt>
<rscale>  0 0.28636247E+02</rscale>
<asrwt>0</asrwt>
<pdfrwt beam="2">  1        2 0.12254186E+00 0.27388855E+02</pdfrwt>
<pdfrwt beam="1">  1        1 0.80872714E-01 0.29940449E+02</pdfrwt>
<totfact> 0.23753494E+02</totfact>
</mgrwt>
</event>
<event>
 7    1  0.3113530E-004  0.9816466E+02  0.7546771E-02  0.1389485E+00
         -1   -1    0    0    0  501 -0.00000000000E+00  0.00000000000E+00  0.16172754212E+03  0.16172754212E+03  0.00000000000E+00 0.  1.
          2   -1    0    0  503    0  0.00000000000E+00 -0.00000000000E+00 -0.11033255136E+04  0.11033255136E+04  0.00000000000E+00 0. -1.
         25    2    1    2    0    0 -0.83332378413E+02 -0.30715195817E+02 -0.31774667492E+02  0.15659523202E+03  0.12499891460E+03 0.  0.
          4    1    3    3  502    0 -0.59174249949E+02 -0.67605036958E+02 -0.56385550909E+02  0.10608004586E+03  0.12700000000E+01 0.  1.
         -4    1    3    3    0  502 -0.24158128464E+02  0.36889841141E+02  0.24610883417E+02  0.50515186161E+02  0.12700000000E+01 0.  1.
          2    1    1    2  503    0  0.98656226990E+02 -0.53685526534E+01 -0.10027471648E+04  0.10076029719E+04  0.00000000000E+00 0. -1.
         -1    1    1    2    0  501 -0.15323848577E+02  0.36083748471E+02  0.92923860764E+02  0.10085485183E+03  0.00000000000E+00 0.  1.
<mgrwt>
<rscale>  0 0.62034881E+02</rscale>
<asrwt>0</asrwt>
<pdfrwt beam="2">  1        2 0.16974238E+00 0.98164656E+02</pdfrwt>
<pdfrwt beam="1">  1       -1 0.24881161E-01 0.39202771E+02</pdfrwt>
<totfact> 0.36777751E+02</totfact>
</mgrwt>
</event>
<event>
 7    1  0.3113530E-004  0.1024472E+03  0.7546771E-02  0.1377956E+00
          2   -1    0    0  502    0  0.00000000000E+00  0.00000000000E+00  0.21645629892E+04  0.21645629892E+04  0.00000000000E+00 0. -1.
          2   -1    0    0  503    0 -0.00000000000E+00 -0.00000000000E+00 -0.73609025756E+03  0.73609025756E+03  0.00000000000E+00 0. -1.
         25    2    1    2    0    0 -0.12277217231E+03 -0.58098806678E+02  0.19613608931E+03  0.26933740752E+03  0.12499918371E+03 0.  0.
          4    1    3    3  501    0 -0.48685566739E+02 -0.88862338021E+02  0.84969171461E+02  0.13224285435E+03  0.12700000000E+01 0. -1.
         -4    1    3    3    0  501 -0.74086605570E+02  0.30763531343E+02  0.11116691785E+03  0.13709455318E+03  0.12700000000E+01 0. -1.
          2    1    1    2  502    0  0.81574718273E+02  0.60098375862E+02  0.19298880714E+04  0.19325460454E+04  0.00000000000E+00 0. -1.
          2    1    1    2  503    0  0.41197454036E+02 -0.19995691845E+01 -0.69755142911E+03  0.69876979382E+03  0.00000000000E+00 0. -1.
<mgrwt>
<rscale>  0 0.65004081E+02</rscale>
<asrwt>0</asrwt>
<pdfrwt beam="1">  1        2 0.33300969E+00 0.10244716E+03</pdfrwt>
<pdfrwt beam="2">  1        2 0.11324466E+00 0.41245951E+02</pdfrwt>
<totfact> 0.44453599E+01</totfact>
</mgrwt>
</event>
<event>
 7    1  0.3113530E-004  0.5014463E+02  0.7546771E-02  0.1514110E+00
          2   -1    0    0  503    0  0.00000000000E+00  0.00000000000E+00  0.20406207026E+03  0.20406207026E+03  0.00000000000E+00 0. -1.
         -1   -1    0    0    0  501 -0.00000000000E+00 -0.00000000000E+00 -0.29922910103E+03  0.29922910103E+03  0.00000000000E+00 0.  1.
         25    2    1    2    0    0 -0.43287155709E+02 -0.53018448449E+02  0.59095957072E+02  0.15428491686E+03  0.12500707861E+03 0.  0.
          4    1    3    3  502    0 -0.21133760739E+02 -0.93492907670E+02  0.45868423455E+02  0.10626892677E+03  0.12700000000E+01 0. -1.
         -4    1    3    3    0  502 -0.22153394970E+02  0.40474459221E+02  0.13227533617E+02  0.48015990082E+02  0.12700000000E+01 0. -1.
          2    1    1    2  503    0  0.13319331963E+02  0.46544540076E+02  0.90337251440E+02  0.10249203780E+03  0.00000000000E+00 0. -1.
         -1    1    1    2    0  501  0.29967823747E+02  0.64739083727E+01 -0.24460023927E+03  0.24651421663E+03  0.00000000000E+00 0.  1.
<mgrwt>
<rscale>  0 0.39209572E+02</rscale>
<asrwt>0</asrwt>
<pdfrwt beam="1">  1        2 0.31394165E-01 0.50144632E+02</pdfrwt>
<pdfrwt beam="2">  1       -1 0.46035246E-01 0.30659125E+02</pdfrwt>
<totfact> 0.88204840E+02</totfact>
</mgrwt>
</event>
<event>
 7    1  0.3113530E-004  0.2131283E+03  0.7546771E-02  0.1183776E+00
         -2   -1    0    0    0  501  0.00000000000E+00  0.00000000000E+00  0.19765429436E+03  0.19765429436E+03  0.00000000000E+00 0.  1.
         -1   -1    0    0    0  502 -0.00000000000E+00 -0.00000000000E+00 -0.75419063352E+03  0.75419063352E+03  0.00000000000E+00 0.  1.
         25    2    1    2    0    0  0.22989036515E+02  0.17661502242E+03 -0.82461462916E+02  0.23269772621E+03  0.12500790764E+03 0.  0.
          4    1    3    3  503    0 -0.50913007524E+02  0.90618685441E+02 -0.45035118717E+02  0.11328572419E+03  0.12700000000E+01 0.  1.
         -4    1    3    3    0  503  0.73902044040E+02  0.85996336978E+02 -0.37426344200E+02  0.11941200202E+03  0.12700000000E+01 0.  1.
         -2    1    1    2    0  501 -0.12256668978E+03  0.32763270889E+02  0.57438485634E+02  0.13926666864E+03  0.00000000000E+00 0.  1.
         -1    1    1    2    0  502  0.99577653265E+02 -0.20937829331E+03 -0.53151336187E+03  0.57988053303E+03  0.00000000000E+00 0.  1.
<mgrwt>
<rscale>  0 0.16443726E+03</rscale>
<asrwt>0</asrwt>
<pdfrwt beam="1">  1       -2 0.30408353E-01 0.12687011E+03</pdfrwt>
<pdfrwt beam="2">  1       -1 0.11602933E+00 0.21312831E+03</pdfrwt>
<totfact> 0.53371555E+01</totfact>
</mgrwt>
</event>
<event>
 7    1  0.3113530E-004  0.7751928E+02  0.7546771E-02  0.1456699E+00
         -2   -1    0    0    0  501 -0.00000000000E+00  0.00000000000E+00  0.36318311107E+02  0.36318311107E+02  0.00000000000E+00 0.  1.
          1   -1    0    0  503    0  0.00000000000E+00 -0.00000000000E+00 -0.48630533149E+03  0.48630533149E+03  0.00000000000E+00 0. -1.
         25    2    1    2    0    0 -0.60428275026E+02 -0.47573703724E+02 -0.19042408283E+03  0.24042123998E+03  0.12500483031E+03 0.  0.
          4    1    3    3  502    0  0.17091666595E+02  0.19489176071E+02 -0.21414366808E+01  0.26041346009E+02  0.12700000000E+01 0. -1.
         -4    1    3    3    0  502 -0.77519941621E+02 -0.67062879795E+02 -0.18828264615E+03  0.21437989397E+03  0.12700000000E+01 0. -1.
          1    1    1    2  503    0  0.19821497573E+02 -0.22070861430E+02 -0.81798419034E+02  0.87011470777E+02  0.00000000000E+00 0. -1.
         -2    1    1    2    0  501  0.40606777454E+02  0.69644565154E+02 -0.17776451852E+03  0.19519093185E+03  0.00000000000E+00 0.  1.
<mgrwt>
<rscale>  0 0.47954275E+02</rscale>
<asrwt>0</asrwt>
<pdfrwt beam="2">  1        1 0.74816199E-01 0.29665042E+02</pdfrwt>
<pdfrwt beam="1">  1       -2 0.55874329E-02 0.77519275E+02</pdfrwt>
<totfact> 0.64012941E+03</totfact>
</mgrwt>
</event>
<event>
 7    1  0.3113530E-004  0.7160895E+02  0.7546771E-02  0.1363152E+00
          1   -1    0    0  503    0  0.00000000000E+00  0.00000000000E+00  0.17623074279E+04  0.17623074279E+04  0.00000000000E+00 0. -1.
          1   -1    0    0  502    0 -0.00000000000E+00 -0.00000000000E+00 -0.12798247208E+04  0.12798247208E+04  0.00000000000E+00 0. -1.
         25    2    1    2    0    0  0.30422081439E+02 -0.40675415712E+02 -0.28598264501E+03  0.31621353987E+03  0.12499974826E+03 0.  0.
          4    1    3    3  501    0 -0.39842543890E+02 -0.24694078251E+02 -0.46174670775E+02  0.65809869514E+02  0.12700000000E+01 0. -1.
         -4    1    3    3    0  501  0.70264625329E+02 -0.15981337462E+02 -0.23980797423E+03  0.25040367035E+03  0.12700000000E+01 0. -1.
          1    1    1    2  502    0 -0.62407388020E+02 -0.23526383427E+02 -0.97685290746E+03  0.97912704774E+03  0.00000000000E+00 0. -1.
          1    1    1    2  503    0  0.31985306580E+02  0.64201799140E+02  0.17453182595E+04  0.17467915611E+04  0.00000000000E+00 0. -1.
<mgrwt>
<rscale>  0 0.69108116E+02</rscale>
<asrwt>0</asrwt>
<pdfrwt beam="1">  1        1 0.27112422E+00 0.71608947E+02</pdfrwt>
<pdfrwt beam="2">  1        1 0.19689611E+00 0.66694623E+02</pdfrwt>
<totfact> 0.75957895E+00</totfact>
</mgrwt>
</event>
<event>
 7    1  0.3113530E-004  0.1501462E+03  0.7546771E-02  0.1377363E+00
         -1   -1    0    0    0  501 -0.00000000000E+00  0.00000000000E+00  0.12687107698E+03  0.12687107698E+03  0.00000000000E+00 0.  1.
          2   -1    0    0  503    0  0.00000000000E+00 -0.00000000000E+00 -0.95166481041E+03  0.95166481041E+03  0.00000000000E+00 0. -1.
         25    2    1    2    0    0  0.51151035863E+02  0.11620302465E+03 -0.16663001780E+03  0.24394733429E+03  0.12500067066E+03 0.  0.
          4    1    3    3  502    0 -0.25209836505E+02  0.46526005458E+02 -0.11875937476E+03  0.13002156373E+03  0.12700000000E+01 0.  1.
         -4    1    3    3    0  502  0.76360872368E+02  0.69677019191E+02 -0.47870643034E+02  0.11392577056E+03  0.12700000000E+01 0.  1.
          2    1    1    2  503    0 -0.58655310126E+02 -0.14346885536E+03 -0.73580748355E+03  0.75195505897E+03  0.00000000000E+00 0. -1.
         -1    1    1    2    0  501  0.75042742623E+01  0.27265830710E+02  0.77643767913E+02  0.82633494131E+02  0.00000000000E+00 0.  1.
<mgrwt>
<rscale>  0 0.65161991E+02</rscale>
<asrwt>0</asrwt>
<pdfrwt beam="2">  1        2 0.14640997E+00 0.15014621E+03</pdfrwt>
<pdfrwt beam="1">  1       -1 0.19518628E-01 0.28279669E+02</pdfrwt>
<totfact> 0.63375126E+02</totfact>
</mgrwt>
</event>
<event>
 7    1  0.3113530E-004  0.6618952E+02  0.7546771E-02  0.1395135E+00
          1   -1    0    0  503    0  0.00000000000E+00  0.00000000000E+00  0.11658329837E+04  0.11658329837E+04  0.00000000000E+00 0. -1.
         -2   -1    0    0    0  501 -0.00000000000E+00 -0.00000000000E+00 -0.19075950974E+02  0.19075950974E+02  0.00000000000E+00 0.  1.
         25    2    1    2    0    0  0.20340761719E+02 -0.10611082627E+02  0.82942745175E+03  0.83910736689E+03  0.12499973519E+03 0.  0.
          4    1    3    3  502    0 -0.52926835149E+02 -0.20588584483E+01  0.31724460018E+03  0.32163836528E+03  0.12700000000E+01 0.  1.
         -4    1    3    3    0  502  0.73267596868E+02 -0.85522241785E+01  0.51218285157E+03  0.51746900162E+03  0.12700000000E+01 0.  1.
          1    1    1    2  503    0  0.53482680905E+02 -0.15084228351E+02  0.94112552889E+02  0.10929365816E+03  0.00000000000E+00 0. -1.
         -2    1    1    2    0  501 -0.73823442623E+02  0.25695310978E+02  0.22321702810E+03  0.23650790963E+03  0.00000000000E+00 0.  1.
<mgrwt>
<rscale>  0 0.60647307E+02</rscale>
<asrwt>0</asrwt>
<pdfrwt beam="1">  1        1 0.17935886E+00 0.55569156E+02</pdfrwt>
<pdfrwt beam="2">  1       -2 0.29347626E-02 0.66189521E+02</pdfrwt>
<totfact> 0.44868875E+03</totfact>
</mgrwt>
</event>
<event>
 7    1  0.3113530E-004  0.4345944E+02  0.7546771E-02  0.1503585E+00
          2   -1    0    0  503    0  0.00000000000E+00  0.00000000000E+00  0.34143856705E+03  0.34143856705E+03  0.00000000000E+00 0. -1.
         -1   -1    0    0    0  501 -0.00000000000E+00 -0.00000000000E+00 -0.41902614349E+02  0.41902614349E+02  0.00000000000E+00 0.  1.
         25    2    1    2    0    0 -0.47094803446E+02  0.10538024894E+02  0.22267990539E+03  0.25988470769E+03  0.12499900219E+03 0.  0.
          4    1    3    3  502    0 -0.35003254450E+02  0.13985526297E+02  0.23746117314E+03  0.24043761024E+03  0.12700000000E+01 0.  1.
         -4    1    3    3    0  502 -0.12091548996E+02 -0.34475014031E+01 -0.14781267753E+02  0.19447097455E+02  0.12700000000E+01 0.  1.
          2    1    1    2  503    0  0.25319986872E+02  0.28329165371E+02  0.68203676296E+02  0.78072945417E+02  0.00000000000E+00 0. -1.
         -1    1    1    2    0  501  0.21774816574E+02 -0.38867190266E+02  0.86523710217E+01  0.45383528292E+02  0.00000000000E+00 0.  1.
<mgrwt>
<rscale>  0 0.40635634E+02</rscale>
<asrwt>0</asrwt>
<pdfrwt beam="1">  1        2 0.52529009E-01 0.37995307E+02</pdfrwt>
<pdfrwt beam="2">  1       -1 0.64465563E-02 0.43459441E+02</pdfrwt>
<totfact> 0.10985922E+04</totfact>
</mgrwt>
</event>
<event>
 7    1  0.3113530E-004  0.1366199E+03  0.7546771E-02  0.1236540E+00
         -1   -1    0    0    0  501 -0.00000000000E+00  0.00000000000E+00  0.10744624857E+03  0.10744624857E+03  0.00000000000E+00 0.  1.
          1   -1    0    0  503    0  0.00000000000E+00 -0.00000000000E+00 -0.77638853571E+03  0.77638853571E+03  0.00000000000E+00 0. -1.
         25    2    1    2    0    0 -0.64891933411E+02  0.31208355765E+01 -0.13662418529E+03  0.19624458300E+03  0.12500026284E+03 0.  0.
          4    1    3    3  502    0 -0.58219761250E+02 -0.38508413262E+02 -0.13733212828E+03  0.15405896550E+03  0.12700000000E+01 0.  1.
         -4    1    3    3    0  502 -0.66721721609E+01  0.41629248839E+02  0.70794298964E+00  0.42185617496E+02  0.12700000000E+01 0.  1.
          1    1    1    2  503    0  0.15196234009E+03 -0.74614055164E+02 -0.54826422795E+03  0.57380612900E+03  0.00000000000E+00 0. -1.
         -1    1    1    2    0  501 -0.87070406680E+02  0.71493219587E+02  0.15946126102E+02  0.11378407228E+03  0.00000000000E+00 0.  1.
<mgrwt>
<rscale>  0 0.12406352E+03</rscale>
<asrwt>0</asrwt>
<pdfrwt beam="2">  1        1 0.11944439E+00 0.13661990E+03</pdfrwt>
<pdfrwt beam="1">  1       -1 0.16530192E-01 0.11266116E+03</pdfrwt>
<totfact> 0.66546302E+02</totfact>
</mgrwt>
</event>
<event>
 7    1  0.3113530E-004  0.1160071E+03  0.7546771E-02  0.1413277E+00
          2   -1    0    0  503    0  0.00000000000E+00  0.00000000000E+00  0.26280405533E+03  0.26280405533E+03  0.00000000000E+00 0. -1.
          2   -1    0    0  502    0 -0.00000000000E+00 -0.00000000000E+00 -0.32110939660E+03  0.32110939660E+03  0.00000000000E+00 0. -1.
         25    2    1    2    0    0  0.12709500943E+03 -0.67803414104E+01 -0.89330744397E+02  0.19950985160E+03  0.12500033816E+03 0.  0.
          4    1    3    3  501    0  0.54545185528E+02  0.12264050505E+02  0.26203917928E+02  0.61756314769E+02  0.12700000000E+01 0. -1.
         -4    1    3    3    0  501  0.72549823904E+02 -0.19044391915E+02 -0.11553466232E+03  0.13775353683E+03  0.12700000000E+01 0. -1.
          2    1    1    2  502    0 -0.11174013252E+03 -0.16018654395E+02 -0.15756101300E+03  0.19382447555E+03  0.00000000000E+00 0. -1.
          2    1    1    2  503    0 -0.15354876906E+02  0.22798995805E+02  0.18858641613E+03  0.19057912478E+03  0.00000000000E+00 0. -1.
<mgrwt>
<rscale>  0 0.56469055E+02</rscale>
<asrwt>0</asrwt>
<pdfrwt beam="1">  1        2 0.40431393E-01 0.27487569E+02</pdfrwt>
<pdfrwt beam="2">  1        2 0.49401445E-01 0.11600714E+03</pdfrwt>
<totfact> 0.19141609E+03</totfact>
</mgrwt>
</event>
<event>
 7    1  0.3113530E-004  0.7335928E+02  0.7546771E-02  0.1408931E+00
          3   -1    0    0  503    0  0.00000000000E+00  0.00000000000E+00  0.21411149750E+03  0.21411149750E+03  0.00000000000E+00 0. -1.
         -3   -1    0    0    0  501 -0.00000000000E+00 -0.00000000000E+00 -0.11857858203E+03  0.11857858203E+03  0.00000000000E+00 0.  1.
         25    2    1    2    0    0  0.45335679136E+02  0.93486768278E+02  0.10633947553E+03  0.19422976699E+03  0.12498807417E+03 0.  0.
          4    1    3    3  502    0  0.78685108613E+02  0.20890745582E+02  0.41823466468E+02  0.91534609935E+02  0.12700000000E+01 0.  1.
         -4    1    3    3    0  502 -0.33349429477E+02  0.72596022696E+02  0.64516009061E+02  0.10269515706E+03  0.12700000000E+01 0.  1.
          3    1    1    2  503    0 -0.38175619759E+02 -0.23757770545E+02  0.33024299258E+02  0.55789012778E+02  0.00000000000E+00 0. -1.
         -3    1    1    2    0  501 -0.71600593767E+01 -0.69728997733E+02 -0.43830859325E+02  0.82671299761E+02  0.00000000000E+00 0.  1.
<mgrwt>
<rscale>  0 0.57433144E+02</rscale>
<asrwt>0</asrwt>
<pdfrwt beam="1">  1        3 0.32940230E-01 0.44964537E+02</pdfrwt>
<pdfrwt beam="2">  1       -3 0.18242859E-01 0.73359278E+02</pdfrwt>
<totfact> 0.47739631E+02</totfact>
</mgrwt>
</event>
<event>
 7    1  0.7382392E-004  0.1032808E+03  0.7546771E-02  0.1376392E+00
         -1   -1    0    0    0  501 -0.00000000000E+00  0.00000000000E+00  0.11971409790E+03  0.11971409790E+03  0.00000000000E+00 0.  1.
          2   -1    0    0  503    0  0.00000000000E+00 -0.00000000000E+00 -0.27027463928E+03  0.27027463928E+03  0.00000000000E+00 0. -1.
         25    2    1    2    0    0 -0.68878378196E+02  0.91526264821E+02 -0.18006989554E+03  0.24732661260E+03  0.12499599147E+03 0.  0.
          4    1    3    3  502    0 -0.71265899315E+02  0.82539865279E+02 -0.19859030118E+03  0.22656429195E+03  0.12700000000E+01 0. -1.
         -4    1    3    3    0  502  0.23875211188E+01  0.89863995426E+01  0.18520405636E+02  0.20762320649E+02  0.12700000000E+01 0. -1.
          2    1    1    2  503    0  0.27679093917E+02 -0.87060530534E+02 -0.73680954306E+00  0.91357600150E+02  0.00000000000E+00 0. -1.
         -1    1    1    2    0  501  0.41199284280E+02 -0.44657342877E+01  0.30246163705E+02  0.51304524427E+02  0.00000000000E+00 0.  1.
<mgrwt>
<rscale>  0 0.65421846E+02</rscale>
<asrwt>0</asrwt>
<pdfrwt beam="2">  1        2 0.41580713E-01 0.10328078E+03</pdfrwt>
<pdfrwt beam="1">  1       -1 0.18417554E-01 0.41440606E+02</pdfrwt>
<totfact> 0.29544060E+03</totfact>
</mgrwt>
</event>
<event>
 7    1  0.3113530E-004  0.7238162E+02  0.7546771E-02  0.1377460E+00
          1   -1    0    0  503    0 -0.00000000000E+00  0.00000000000E+00  0.17206767730E+04  0.17206767730E+04  0.00000000000E+00 0. -1.
          2   -1    0    0  502    0  0.00000000000E+00 -0.00000000000E+00 -0.12659549370E+02  0.12659549370E+02  0.00000000000E+00 0. -1.
         25    2    1    2    0    0  0.30901013297E+02 -0.80174747571E+02  0.72022836148E+03  0.73602882515E+03  0.12500670380E+03 0.  0.
          4    1    3    3  501    0  0.27517310277E+02 -0.11019412986E+03  0.64546434233E+03  0.65538216236E+03  0.12700000000E+01 0. -1.
         -4    1    3    3    0  501  0.33837030208E+01  0.30019382289E+02  0.74764019150E+02  0.80646662787E+02  0.12700000000E+01 0. -1.
          2    1    1    2  502    0  0.26375575238E+02  0.67716212019E+02  0.39514665103E+03  0.40177360809E+03  0.00000000000E+00 0. -1.
          1    1    1    2  503    0 -0.57276588535E+02  0.12458535552E+02  0.59264221114E+03  0.59553388915E+03  0.00000000000E+00 0. -1.
<mgrwt>
<rscale>  0 0.65136115E+02</rscale>
<asrwt>0</asrwt>
<pdfrwt beam="2">  1        2 0.19476243E-02 0.72381625E+02</pdfrwt>
<pdfrwt beam="1">  1        1 0.26471932E+00 0.58615891E+02</pdfrwt>
<totfact> 0.39694509E+03</totfact>
</mgrwt>
</event>
<event>
 7    1  0.3113530E-004  0.1030174E+03  0.7546771E-02  0.1376225E+00
          1   -1    0    0  503    0  0.00000000000E+00  0.00000000000E+00  0.23855934045E+02  0.23855934045E+02  0.00000000000E+00 0. -1.
          1   -1    0    0  502    0 -0.00000000000E+00 -0.00000000000E+00 -0.25676383401E+04  0.25676383401E+04  0.00000000000E+00 0. -1.
         25    2    1    2    0    0 -0.68540021964E+02  0.18292547892E+02 -0.79364949086E+03  0.80655853629E+03  0.12499922478E+03 0.  0.
          4    1    3    3  501    0 -0.75508037100E+02  0.12388600105E+02 -0.22173544254E+03  0.23457016106E+03  0.12700000000E+01 0. -1.
         -4    1    3    3    0  501  0.69680151359E+01  0.59039477868E+01 -0.57191404831E+03  0.57198837523E+03  0.12700000000E+01 0. -1.
          1    1    1    2  502    0  0.10582730831E+03 -0.36745029851E+02 -0.17379898586E+04  0.17415964989E+04  0.00000000000E+00 0. -1.
          1    1    1    2  503    0 -0.37287286344E+02  0.18452481959E+02 -0.12143056656E+02  0.43339239014E+02  0.00000000000E+00 0. -1.
<mgrwt>
<rscale>  0 0.65466526E+02</rscale>
<asrwt>0</asrwt>
<pdfrwt beam="1">  1        1 0.36701427E-02 0.41603315E+02</pdfrwt>
<pdfrwt beam="2">  1        1 0.39502139E+00 0.10301742E+03</pdfrwt>
<totfact> 0.41254883E+02</totfact>
</mgrwt>
</event>
<event>
 7    1  0.3113530E-004  0.8540243E+02  0.7546771E-02  0.1481201E+00
          1   -1    0    0  503    0 -0.00000000000E+00  0.00000000000E+00  0.14474198319E+04  0.14474198319E+04  0.00000000000E+00 0. -1.
          2   -1    0    0  502    0  0.00000000000E+00 -0.00000000000E+00 -0.39235645526E+02  0.39235645526E+02  0.00000000000E+00 0.  1.
         25    2    1    2    0    0  0.10444227646E+02  0.67151642492E+02  0.43723866647E+03  0.45981268534E+03  0.12502651386E+03 0.  0.
          4    1    3    3  501    0 -0.24043839031E+02  0.35112461847E+02  0.35812805711E+02  0.55634172279E+02  0.12700000000E+01 0. -1.
         -4    1    3    3    0  501  0.34488066677E+02  0.32039180645E+02  0.40142586076E+03  0.40417851306E+03  0.12700000000E+01 0. -1.
          2    1    1    2  502    0 -0.24697200521E+02 -0.84673036107E+02  0.42119415352E+02  0.97742109179E+02  0.00000000000E+00 0.  1.
          1    1    1    2  503    0  0.14252972875E+02  0.17521393615E+02  0.92882610457E+03  0.92910068292E+03  0.00000000000E+00 0. -1.
<mgrwt>
<rscale>  0 0.43919647E+02</rscale>
<asrwt>0</asrwt>
<pdfrwt beam="2">  1        2 0.60362543E-02 0.85402432E+02</pdfrwt>
<pdfrwt beam="1">  1        1 0.22267993E+00 0.22586422E+02</pdfrwt>
<totfact> 0.15010973E+03</totfact>
</mgrwt>
</event>
<event>
 7    1  0.3257620E-004  0.5846123E+02  0.7546771E-02  0.1438152E+00
          2   -1    0    0  503    0  0.00000000000E+00  0.00000000000E+00  0.14343559281E+04  0.14343559281E+04  0.00000000000E+00 0. -1.
         -1   -1    0    0    0  501 -0.00000000000E+00 -0.00000000000E+00 -0.14173699230E+02  0.14173699230E+02  0.00000000000E+00 0.  1.
         25    2    1    2    0    0 -0.81653668063E+01 -0.88033077173E+02  0.58137198935E+03  0.60119954325E+03  0.12502401737E+03 0.  0.
          4    1    3    3  502    0 -0.63980647399E+02 -0.31526421256E+02  0.32797038512E+03  0.33563912897E+03  0.12700000000E+01 0. -1.
         -4    1    3    3    0  502  0.55815280593E+02 -0.56506655917E+02  0.25340160422E+03  0.26556041428E+03  0.12700000000E+01 0. -1.
          2    1    1    2  503    0  0.21812884344E+02  0.39494460456E+02  0.66018917180E+03  0.66172906608E+03  0.00000000000E+00 0. -1.
         -1    1    1    2    0  501 -0.13647517538E+02  0.48538616716E+02  0.17862106773E+03  0.18560101801E+03  0.00000000000E+00 0.  1.
<mgrwt>
<rscale>  0 0.51357969E+02</rscale>
<asrwt>0</asrwt>
<pdfrwt beam="1">  1        2 0.22067003E+00 0.45117783E+02</pdfrwt>
<pdfrwt beam="2">  1       -1 0.21805703E-02 0.58461229E+02</pdfrwt>
<totfact> 0.96828552E+03</totfact>
</mgrwt>
</event>
<event>
 7    1  0.3113530E-004  0.2083451E+03  0.7546771E-02  0.1185089E+00
          2   -1    0    0  502    0  0.00000000000E+00  0.00000000000E+00  0.44309734662E+03  0.44309734662E+03  0.00000000000E+00 0. -1.
          1   -1    0    0  503    0 -0.00000000000E+00 -0.00000000000E+00 -0.31619406949E+03  0.31619406949E+03  0.00000000000E+00 0. -1.
         25    2    1    2    0    0  0.23349498294E+02 -0.11031824479E+03  0.12591046547E+03  0.21022031139E+03  0.12499527912E+03 0.  0.
          4    1    3    3  501    0  0.36046050745E+02 -0.12813216133E+03  0.70487663671E+02  0.15062301342E+03  0.12700000000E+01 0. -1.
         -4    1    3    3    0  501 -0.12696552451E+02  0.17813916540E+02  0.55422801796E+02  0.59597297972E+02  0.12700000000E+01 0. -1.
          2    1    1    2  502    0  0.32404462067E+02 -0.12372322283E+03  0.19962377563E+03  0.23708044379E+03  0.00000000000E+00 0. -1.
          1    1    1    2  503    0 -0.55753960361E+02  0.23404146762E+03 -0.19863096396E+03  0.31199066093E+03  0.00000000000E+00 0. -1.
<mgrwt>
<rscale>  0 0.16323780E+03</rscale>
<asrwt>0</asrwt>
<pdfrwt beam="1">  1        2 0.68168822E-01 0.12789638E+03</pdfrwt>
<pdfrwt beam="2">  1        1 0.48645242E-01 0.20834506E+03</pdfrwt>
<totfact> 0.80172082E+02</totfact>
</mgrwt>
</event>
<event>
 7    1  0.3113530E-004  0.8755574E+02  0.7546771E-02  0.1461114E+00
          1   -1    0    0  503    0 -0.00000000000E+00  0.00000000000E+00  0.90519479904E+03  0.90519479904E+03  0.00000000000E+00 0. -1.
          2   -1    0    0  502    0  0.00000000000E+00 -0.00000000000E+00 -0.32521501326E+04  0.32521501326E+04  0.00000000000E+00 0.  1.
         25    2    1    2    0    0 -0.42482748972E+02 -0.69310852788E+02 -0.28273190336E+02  0.15177287321E+03  0.12500741369E+03 0.  0.
          4    1    3    3  501    0 -0.74495163978E+02 -0.38224662332E+02  0.19925835132E+02  0.86077326121E+02  0.12700000000E+01 0.  1.
         -4    1    3    3    0  501  0.32012415006E+02 -0.31086190457E+02 -0.48199025468E+02  0.65695547092E+02  0.12700000000E+01 0.  1.
          2    1    1    2  502    0  0.65424375079E+02  0.58329757717E+02 -0.31613277812E+04  0.31625426558E+04  0.00000000000E+00 0.  1.
          1    1    1    2  503    0 -0.22941626107E+02  0.10981095071E+02  0.84264563794E+03  0.84302940268E+03  0.00000000000E+00 0. -1.
<mgrwt>
<rscale>  0 0.47190225E+02</rscale>
<asrwt>0</asrwt>
<pdfrwt beam="2">  1        2 0.50033078E+00 0.87555741E+02</pdfrwt>
<pdfrwt beam="1">  1        1 0.13926074E+00 0.25434281E+02</pdfrwt>
<totfact> 0.52901019E+00</totfact>
</mgrwt>
</event>
<event>
 7    1  0.3113530E-004  0.5569004E+02  0.7546771E-02  0.1502646E+00
          1   -1    0    0  503    0  0.00000000000E+00  0.00000000000E+00  0.10620434118E+04  0.10620434118E+04  0.00000000000E+00 0. -1.
         -2   -1    0    0    0  501 -0.00000000000E+00 -0.00000000000E+00 -0.14731669944E+02  0.14731669944E+02  0.00000000000E+00 0.  1.
         25    2    1    2    0    0  0.59026791813E+02 -0.33540352217E+02  0.51354518373E+03  0.53288208133E+03  0.12500215794E+03 0.  0.
          4    1    3    3  502    0 -0.22783215340E+02  0.18315222192E+02  0.25695852783E+03  0.25861906385E+03  0.12700000000E+01 0. -1.
         -4    1    3    3    0  502  0.81810007153E+02 -0.51855574409E+02  0.25658665591E+03  0.27426301748E+03  0.12700000000E+01 0. -1.
          1    1    1    2  503    0 -0.28119099018E+02 -0.99927180389E+01  0.37906659096E+03  0.38023942264E+03  0.00000000000E+00 0. -1.
         -2    1    1    2    0  501 -0.30907692795E+02  0.43533070256E+02  0.15469996719E+03  0.16365357781E+03  0.00000000000E+00 0.  1.
<mgrwt>
<rscale>  0 0.40766357E+02</rscale>
<asrwt>0</asrwt>
<pdfrwt beam="1">  1        1 0.16339123E+00 0.29841886E+02</pdfrwt>
<pdfrwt beam="2">  1       -2 0.22664116E-02 0.55690043E+02</pdfrwt>
<totfact> 0.78025846E+03</totfact>
</mgrwt>
</event>
<event>
 7    1  0.3113530E-004  0.5681103E+02  0.7546771E-02  0.1532082E+00
         -1   -1    0    0    0  501 -0.00000000000E+00  0.00000000000E+00  0.11455418851E+02  0.11455418851E+02  0.00000000000E+00 0.  1.
          1   -1    0    0  503    0  0.00000000000E+00 -0.00000000000E+00 -0.13123911013E+04  0.13123911013E+04  0.00000000000E+00 0. -1.
         25    2    1    2    0    0 -0.48468581102E+02  0.14874674262E+01 -0.87516906572E+03  0.88538010956E+03  0.12500251556E+03 0.  0.
          4    1    3    3  502    0 -0.40928360194E+02  0.35547118482E+02 -0.15223817215E+03  0.16160693754E+03  0.12700000000E+01 0.  1.
         -4    1    3    3    0  502 -0.75402209080E+01 -0.34059651056E+02 -0.72293089357E+03  0.72377317202E+03  0.12700000000E+01 0.  1.
          1    1    1    2  503    0 -0.83052916707E+01  0.22526966634E+02 -0.32547753603E+02  0.40445004143E+02  0.00000000000E+00 0. -1.
         -1    1    1    2    0  501  0.56773872772E+02 -0.24014434061E+02 -0.39321886310E+03  0.39802140642E+03  0.00000000000E+00 0.  1.
<mgrwt>
<rscale>  0 0.36932206E+02</rscale>
<asrwt>0</asrwt>
<pdfrwt beam="2">  1        1 0.20190623E+00 0.24009209E+02</pdfrwt>
<pdfrwt beam="1">  1       -1 0.17623729E-02 0.56811029E+02</pdfrwt>
<totfact> 0.79544544E+03</totfact>
</mgrwt>
</event>
<event>
 7    1  0.3998348E-004  0.9726033E+02  0.7546771E-02  0.1431014E+00
         -1   -1    0    0    0  501 -0.00000000000E+00  0.00000000000E+00  0.20465405715E+02  0.20465405715E+02  0.00000000000E+00 0.  1.
          2   -1    0    0  503    0  0.00000000000E+00 -0.00000000000E+00 -0.10053135169E+04  0.10053135169E+04  0.00000000000E+00 0. -1.
         25    2    1    2    0    0  0.69737763387E+02 -0.69408366202E+02 -0.51274809047E+03  0.53685749150E+03  0.12499793983E+03 0.  0.
          4    1    3    3  502    0  0.75110153765E+01 -0.92201027705E+02 -0.31426710142E+03  0.32760169230E+03  0.12700000000E+01 0.  1.
         -4    1    3    3    0  502  0.62226748011E+02  0.22792661502E+02 -0.19848098905E+03  0.20925579920E+03  0.12700000000E+01 0.  1.
          2    1    1    2  503    0 -0.86524825534E+02  0.46232404343E+02 -0.38135897441E+03  0.39377486970E+03  0.00000000000E+00 0. -1.
         -1    1    1    2    0  501  0.16787062147E+02  0.23175961860E+02 -0.90741046301E+02  0.95146561406E+02  0.00000000000E+00 0.  1.
<mgrwt>
<rscale>  0 0.52756948E+02</rscale>
<asrwt>0</asrwt>
<pdfrwt beam="2">  1        2 0.15466361E+00 0.97260334E+02</pdfrwt>
<pdfrwt beam="1">  1       -1 0.31485241E-02 0.28616965E+02</pdfrwt>
<totfact> 0.83705462E+03</totfact>
</mgrwt>
</event>
<event>
 7    1  0.3113530E-004  0.7473656E+02  0.7546771E-02  0.1408581E+00
          2   -1    0    0  502    0  0.00000000000E+00  0.00000000000E+00  0.21122600776E+04  0.21122600776E+04  0.00000000000E+00 0. -1.
          2   -1    0    0  503    0 -0.00000000000E+00 -0.00000000000E+00 -0.16179890169E+04  0.16179890169E+04  0.00000000000E+00 0. -1.
         25    2    1    2    0    0 -0.36179900573E+02 -0.34971057148E+02 -0.51435757214E+02  0.14423340796E+03  0.12500271521E+03 0.  0.
          4    1    3    3  501    0 -0.80487122391E+02 -0.14349243898E+02 -0.48915752225E+02  0.95280855301E+02  0.12700000000E+01 0. -1.
         -4    1    3    3    0  501  0.44307221818E+02 -0.20621813250E+02 -0.25200049895E+01  0.48952552662E+02  0.12700000000E+01 0. -1.
          2    1    1    2  502    0  0.14498681985E+02  0.73553367280E+02  0.20648587437E+04  0.20662192384E+04  0.00000000000E+00 0. -1.
          2    1    1    2  503    0  0.21681218588E+02 -0.38582310132E+02 -0.15191519258E+04  0.15197964481E+04  0.00000000000E+00 0. -1.
<mgrwt>
<rscale>  0 0.57511787E+02</rscale>
<asrwt>0</asrwt>
<pdfrwt beam="1">  1        2 0.32496309E+00 0.74736559E+02</pdfrwt>
<pdfrwt beam="2">  1        2 0.24892139E+00 0.44256863E+02</pdfrwt>
<totfact> 0.16235890E+01</totfact>
</mgrwt>
</event>
<event>
 7    1  0.3113530E-004  0.1128102E+03  0.7546771E-02  0.1340349E+00
         -2   -1    0    0    0  501  0.00000000000E+00  0.00000000000E+00  0.46049388751E+03  0.46049388751E+03  0.00000000000E+00 0.  1.
         -1   -1    0    0    0  502 -0.00000000000E+00 -0.00000000000E+00 -0.11228346334E+03  0.11228346334E+03  0.00000000000E+00 0.  1.
         25    2    1    2    0    0  0.95048478133E+02 -0.45439367477E+02  0.18115194004E+03  0.24400718497E+03  0.12499812647E+03 0.  0.
          4    1    3    3  503    0  0.61578209647E+02 -0.32019355461E+02  0.11258296438E+02  0.70324086672E+02  0.12700000000E+01 0. -1.
         -4    1    3    3    0  503  0.33470268486E+02 -0.13420012016E+02  0.16989364361E+03  0.17368309829E+03  0.12700000000E+01 0. -1.
         -2    1    1    2    0  501 -0.23163546665E+02 -0.45887372363E+02  0.20117837814E+03  0.20764137513E+03  0.00000000000E+00 0.  1.
         -1    1    1    2    0  502 -0.71884931468E+02  0.91326739840E+02 -0.34119894012E+02  0.12112879075E+03  0.00000000000E+00 0.  1.
<mgrwt>
<rscale>  0 0.76149257E+02</rscale>
<asrwt>0</asrwt>
<pdfrwt beam="1">  1       -2 0.70845213E-01 0.51402343E+02</pdfrwt>
<pdfrwt beam="2">  1       -1 0.17274379E-01 0.11281022E+03</pdfrwt>
<totfact> 0.34981984E+02</totfact>
</mgrwt>
</event>
<event>
 7    1  0.3113530E-004  0.8662522E+02  0.7546771E-02  0.1420835E+00
         -1   -1    0    0    0  501 -0.00000000000E+00  0.00000000000E+00  0.73095622391E+03  0.73095622391E+03  0.00000000000E+00 0.  1.
          3   -1    0    0  503    0  0.00000000000E+00 -0.00000000000E+00 -0.41046083471E+02  0.41046083471E+02  0.00000000000E+00 0. -1.
         25    2    1    2    0    0  0.37727160712E+02  0.55774104413E+02  0.28506672151E+03  0.31846993767E+03  0.12500390439E+03 0.  0.
          4    1    3    3  502    0 -0.70555634180E+01  0.64827258153E+02  0.59388313683E+02  0.88209631430E+02  0.12700000000E+01 0. -1.
         -4    1    3    3    0  502  0.44782724130E+02 -0.90531537404E+01  0.22567840782E+03  0.23026030624E+03  0.12700000000E+01 0. -1.
          3    1    1    2  503    0 -0.72307568871E+02 -0.58922972895E+02  0.69311157273E+02  0.11620816569E+03  0.00000000000E+00 0. -1.
         -1    1    1    2    0  501  0.34580408159E+02  0.31488684816E+01  0.33553226166E+03  0.33732420402E+03  0.00000000000E+00 0.  1.
<mgrwt>
<rscale>  0 0.54844588E+02</rscale>
<asrwt>0</asrwt>
<pdfrwt beam="2">  1        3 0.63147826E-02 0.86625216E+02</pdfrwt>
<pdfrwt beam="1">  1       -1 0.11245479E+00 0.34723479E+02</pdfrwt>
<totfact> 0.54952888E+02</totfact>
</mgrwt>
</event>
<event>
 7    1  0.3113530E-004  0.4060051E+02  0.7546771E-02  0.1609081E+00
          1   -1    0    0  502    0  0.00000000000E+00  0.00000000000E+00  0.29964301262E+03  0.29964301262E+03  0.00000000000E+00 0. -1.
          1   -1    0    0  503    0 -0.00000000000E+00 -0.00000000000E+00 -0.58635083040E+03  0.58635083040E+03  0.00000000000E+00 0. -1.
         25    2    1    2    0    0  0.19335208422E+01  0.26658319497E+02 -0.19211926448E+03  0.23075779654E+03  0.12499977751E+03 0.  0.
          4    1    3    3  501    0 -0.35987974730E+02 -0.38209386814E+02 -0.84944426574E+02  0.99861204038E+02  0.12700000000E+01 0. -1.
         -4    1    3    3    0  501  0.37921495572E+02  0.64867706311E+02 -0.10717483790E+03  0.13089659250E+03  0.12700000000E+01 0. -1.
          1    1    1    2  502    0  0.18398349084E+02  0.96055973002E+01  0.27878422883E+03  0.27955574219E+03  0.00000000000E+00 0. -1.
          1    1    1    2  503    0 -0.20331869927E+02 -0.36263916797E+02 -0.37337278213E+03  0.37568030429E+03  0.00000000000E+00 0. -1.
<mgrwt>
<rscale>  0 0.29028614E+02</rscale>
<asrwt>0</asrwt>
<pdfrwt beam="1">  1        1 0.46098925E-01 0.20754921E+02</pdfrwt>
<pdfrwt beam="2">  1        1 0.90207819E-01 0.40600513E+02</pdfrwt>
<totfact> 0.40256458E+02</totfact>
</mgrwt>
</event>
<event>
 7    1  0.3113530E-004  0.1152499E+03  0.7546771E-02  0.1306755E+00
         -1   -1    0    0    0  501 -0.00000000000E+00  0.00000000000E+00  0.13233812459E+04  0.13233812459E+04  0.00000000000E+00 0.  1.
          2   -1    0    0  503    0  0.00000000000E+00 -0.00000000000E+00 -0.11349618414E+04  0.11349618414E+04  0.00000000000E+00 0. -1.
         25    2    1    2    0    0 -0.55275376829E+02 -0.45999241169E+02  0.78114489012E+03  0.79434554290E+03  0.12500481869E+03 0.  0.
          4    1    3    3  502    0 -0.77130144173E+00 -0.14329351233E+01 -0.48143361556E+01  0.52382193158E+01  0.12700000000E+01 0. -1.
         -4    1    3    3    0  502 -0.54504075387E+02 -0.44566306045E+02  0.78595922627E+03  0.78910732358E+03  0.12700000000E+01 0. -1.
          2    1    1    2  503    0  0.33913276250E+02  0.11036350542E+03 -0.11232439260E+04  0.11291621367E+04  0.00000000000E+00 0. -1.
         -1    1    1    2    0  501  0.21362100579E+02 -0.64364264253E+02  0.53051844032E+03  0.53483540774E+03  0.00000000000E+00 0.  1.
<mgrwt>
<rscale>  0 0.88407353E+02</rscale>
<asrwt>0</asrwt>
<pdfrwt beam="2">  1        2 0.17460951E+00 0.11524987E+03</pdfrwt>
<pdfrwt beam="1">  1       -1 0.20359711E+00 0.67816649E+02</pdfrwt>
<totfact> 0.47254757E+00</totfact>
</mgrwt>
</event>
<event>
 7    1  0.3113530E-004  0.1124410E+03  0.7546771E-02  0.1329824E+00
          2   -1    0    0  502    0  0.00000000000E+00  0.00000000000E+00  0.13742811936E+04  0.13742811936E+04  0.00000000000E+00 0. -1.
          1   -1    0    0  503    0 -0.00000000000E+00 -0.00000000000E+00 -0.40297820002E+03  0.40297820002E+03  0.00000000000E+00 0. -1.
         25    2    1    2    0    0  0.35558972505E+02 -0.63937678996E+02 -0.44307881620E+02  0.15146168264E+03  0.12499994245E+03 0.  0.
          4    1    3    3  501    0 -0.21445977906E+02  0.21759619476E+02  0.13478898923E+02  0.33417130700E+02  0.12700000000E+01 0. -1.
         -4    1    3    3    0  501  0.57004950410E+02 -0.85697298471E+02 -0.57786780543E+02  0.11804455194E+03  0.12700000000E+01 0. -1.
          2    1    1    2  502    0  0.52741126138E+02 -0.20354839822E+02  0.13078580515E+04  0.13090793057E+04  0.00000000000E+00 0. -1.
          1    1    1    2  503    0 -0.88300098643E+02  0.84292518818E+02 -0.29224717630E+03  0.31671840522E+03  0.00000000000E+00 0. -1.
<mgrwt>
<rscale>  0 0.79728258E+02</rscale>
<asrwt>0</asrwt>
<pdfrwt beam="1">  1        2 0.21142787E+00 0.56532698E+02</pdfrwt>
<pdfrwt beam="2">  1        1 0.61996647E-01 0.11244104E+03</pdfrwt>
<totfact> 0.14907440E+02</totfact>
</mgrwt>
</event>
<event>
 7    1  0.3113530E-004  0.4849126E+02  0.7546771E-02  0.1523807E+00
         -1   -1    0    0    0  501 -0.00000000000E+00  0.00000000000E+00  0.43966265804E+01  0.43966265804E+01  0.00000000000E+00 0.  1.
          2   -1    0    0  503    0  0.00000000000E+00 -0.00000000000E+00 -0.28757239228E+04  0.28757239228E+04  0.00000000000E+00 0. -1.
         25    2    1    2    0    0  0.10861071323E+01 -0.42088697879E+02 -0.14578265087E+04  0.14637834744E+04  0.12502516764E+03 0.  0.
          4    1    3    3  502    0 -0.24449701971E+01 -0.64574551029E+02 -0.36231585743E+03  0.36803565584E+03  0.12700000000E+01 0.  1.
         -4    1    3    3    0  502  0.35310773294E+01  0.22485853150E+02 -0.10955106512E+04  0.10957478186E+04  0.12700000000E+01 0.  1.
          2    1    1    2  503    0 -0.30763574138E+02  0.40672762366E+02 -0.11566312987E+04  0.11577549966E+04  0.00000000000E+00 0. -1.
         -1    1    1    2    0  501  0.29677467005E+02  0.14159355131E+01 -0.25686948894E+03  0.25858207840E+03  0.00000000000E+00 0.  1.
<mgrwt>
<rscale>  0 0.37957012E+02</rscale>
<asrwt>0</asrwt>
<pdfrwt beam="2">  1        2 0.44241856E+00 0.48491260E+02</pdfrwt>
<pdfrwt beam="1">  1       -1 0.67640486E-03 0.29711226E+02</pdfrwt>
<totfact> 0.81060728E+03</totfact>
</mgrwt>
</event>
<event>
 7    1  0.3113530E-004  0.8788585E+02  0.7546771E-02  0.1347558E+00
          1   -1    0    0  502    0  0.00000000000E+00  0.00000000000E+00  0.84658704305E+03  0.84658704305E+03  0.00000000000E+00 0. -1.
          1   -1    0    0  503    0 -0.00000000000E+00 -0.00000000000E+00 -0.15842678745E+04  0.15842678745E+04  0.00000000000E+00 0. -1.
         25    2    1    2    0    0  0.11830278756E+03  0.27119530996E+01  0.38373734366E+03  0.42057647315E+03  0.12500926613E+03 0.  0.
          4    1    3    3  501    0  0.11768350843E+03 -0.43597275855E+02  0.26899358119E+03  0.29683209098E+03  0.12700000000E+01 0. -1.
         -4    1    3    3    0  501  0.61927913550E+00  0.46309228955E+02  0.11474376247E+03  0.12374438217E+03  0.12700000000E+01 0. -1.
          1    1    1    2  502    0 -0.43826283928E+02  0.43867773688E+02  0.44102746535E+03  0.44536541169E+03  0.00000000000E+00 0. -1.
          1    1    1    2  503    0 -0.74476503633E+02 -0.46579726787E+02 -0.15624456405E+04  0.15649130327E+04  0.00000000000E+00 0. -1.
<mgrwt>
<rscale>  0 0.73822218E+02</rscale>
<asrwt>0</asrwt>
<pdfrwt beam="1">  1        1 0.13024416E+00 0.62009070E+02</pdfrwt>
<pdfrwt beam="2">  1        1 0.24373352E+00 0.87885852E+02</pdfrwt>
<totfact> 0.19355176E+01</totfact>
</mgrwt>
</event>
<event>
 7    1  0.3113530E-004  0.2929516E+03  0.7546771E-02  0.1137283E+00
          1   -1    0    0  503    0 -0.00000000000E+00  0.00000000000E+00  0.29363130254E+03  0.29363130254E+03  0.00000000000E+00 0. -1.
          2   -1    0    0  502    0  0.00000000000E+00 -0.00000000000E+00 -0.17322250952E+04  0.17322250952E+04  0.00000000000E+00 0.  1.
         25    2    1    2    0    0 -0.18752484795E+03 -0.17332451225E+03 -0.20081042331E+03  0.34807553866E+03  0.12499919743E+03 0.  0.
          4    1    3    3  501    0 -0.44136632681E+02 -0.12067176990E+03 -0.11729378907E+03  0.17398035593E+03  0.12700000000E+01 0.  1.
         -4    1    3    3    0  501 -0.14338821527E+03 -0.52652742346E+02 -0.83516634235E+02  0.17409518273E+03  0.12700000000E+01 0.  1.
          2    1    1    2  502    0  0.30182061656E+03  0.63475162230E+02 -0.14102173852E+04  0.14435504336E+04  0.00000000000E+00 0.  1.
          1    1    1    2  503    0 -0.11429576861E+03  0.10984935002E+03  0.17243401583E+03  0.23423042551E+03  0.00000000000E+00 0. -1.
<mgrwt>
<rscale>  0 0.21550024E+03</rscale>
<asrwt>0</asrwt>
<pdfrwt beam="2">  1        2 0.26649616E+00 0.29295155E+03</pdfrwt>
<pdfrwt beam="1">  1        1 0.45174048E-01 0.15852572E+03</pdfrwt>
<totfact> 0.12595655E+02</totfact>
</mgrwt>
</event>
<event>
 7    1  0.3113530E-004  0.6451714E+02  0.7546771E-02  0.1471429E+00
          1   -1    0    0  503    0  0.00000000000E+00  0.00000000000E+00  0.16630895180E+02  0.16630895180E+02  0.00000000000E+00 0. -1.
         -2   -1    0    0    0  501 -0.00000000000E+00 -0.00000000000E+00 -0.24123362831E+04  0.24123362831E+04  0.00000000000E+00 0.  1.
         25    2    1    2    0    0  0.45859035007E+02  0.35973334461E+02 -0.56750906393E+03  0.58402754259E+03  0.12499800389E+03 0.  0.
          4    1    3    3  502    0 -0.13118316785E+02  0.25966496215E+01 -0.43484146873E+03  0.43504890375E+03  0.12700000000E+01 0.  1.
         -4    1    3    3    0  502  0.58977351793E+02  0.33376684840E+02 -0.13266759520E+03  0.14897863885E+03  0.12700000000E+01 0.  1.
          1    1    1    2  503    0 -0.66443574099E+02 -0.11412688621E+02 -0.13000119106E+03  0.14644216496E+03  0.00000000000E+00 0. -1.
         -2    1    1    2    0  501  0.20584539091E+02 -0.24560645841E+02 -0.16981951329E+04  0.16984974707E+04  0.00000000000E+00 0.  1.
<mgrwt>
<rscale>  0 0.45469977E+02</rscale>
<asrwt>0</asrwt>
<pdfrwt beam="1">  1        1 0.25586000E-02 0.64517143E+02</pdfrwt>
<pdfrwt beam="2">  1       -2 0.37112855E+00 0.32046038E+02</pdfrwt>
<totfact> 0.59736660E+01</totfact>
</mgrwt>
</event>
<event>
 7    1  0.3113530E-004  0.3631194E+02  0.7546771E-02  0.1541450E+00
         -2   -1    0    0    0  501 -0.00000000000E+00  0.00000000000E+00  0.10537374525E+02  0.10537374525E+02  0.00000000000E+00 0.  1.
          2   -1    0    0  503    0  0.00000000000E+00 -0.00000000000E+00 -0.11455043782E+04  0.11455043782E+04  0.00000000000E+00 0. -1.
         25    2    1    2    0    0  0.64019622837E+01  0.72826680415E+01 -0.56224518012E+03  0.57605404794E+03  0.12499840480E+03 0.  0.
          4    1    3    3  502    0  0.39747686766E+02 -0.24158194700E+01 -0.51922689231E+03  0.52075319815E+03  0.12700000000E+01 0.  1.
         -4    1    3    3    0  502 -0.33345724482E+02  0.96984875115E+01 -0.43018287817E+02  0.55300849794E+02  0.12700000000E+01 0.  1.
          2    1    1    2  503    0 -0.36620222681E+02 -0.27417562520E+02 -0.18512055327E+03  0.19068923065E+03  0.00000000000E+00 0.  1.
         -2    1    1    2    0  501  0.30218260398E+02  0.20134894479E+02 -0.38760127032E+03  0.38929847417E+03  0.00000000000E+00 0. -1.
<mgrwt>
<rscale>  0 0.35818546E+02</rscale>
<asrwt>0</asrwt>
<pdfrwt beam="2">  1        2 0.17623140E+00 0.35331852E+02</pdfrwt>
<pdfrwt beam="1">  1       -2 0.16211349E-02 0.36311943E+02</pdfrwt>
<totfact> 0.19200651E+04</totfact>
</mgrwt>
</event>
<event>
 7    1  0.3113530E-004  0.8080916E+02  0.7546771E-02  0.1397883E+00
          2   -1    0    0  503    0  0.00000000000E+00  0.00000000000E+00  0.37540837905E+03  0.37540837905E+03  0.00000000000E+00 0. -1.
         -3   -1    0    0    0  501 -0.00000000000E+00 -0.00000000000E+00 -0.18249506899E+03  0.18249506899E+03  0.00000000000E+00 0.  1.
         25    2    1    2    0    0  0.64094882597E+02  0.16864782177E+02  0.49886286113E+02  0.15002531581E+03  0.12500551583E+03 0.  0.
          4    1    3    3  502    0  0.52339285376E+02 -0.46633262231E+02  0.48806294637E+02  0.85426747779E+02  0.12700000000E+01 0.  1.
         -4    1    3    3    0  502  0.11755597221E+02  0.63498044408E+02  0.10799914763E+01  0.64598568028E+02  0.12700000000E+01 0.  1.
          2    1    1    2  503    0 -0.57635582682E+02 -0.60925089032E+02  0.26504006500E+03  0.27799273897E+03  0.00000000000E+00 0. -1.
         -3    1    1    2    0  501 -0.64592999154E+01  0.44060306855E+02 -0.12201304106E+03  0.12988539326E+03  0.00000000000E+00 0.  1.
<mgrwt>
<rscale>  0 0.59987780E+02</rscale>
<asrwt>0</asrwt>
<pdfrwt beam="1">  1        2 0.57755135E-01 0.80809159E+02</pdfrwt>
<pdfrwt beam="2">  1       -3 0.28076164E-01 0.44531261E+02</pdfrwt>
<totfact> 0.56933525E+02</totfact>
</mgrwt>
</event>
<event>
 7    1  0.3113530E-004  0.1374156E+03  0.7546771E-02  0.1343190E+00
          2   -1    0    0  502    0  0.00000000000E+00  0.00000000000E+00  0.27860255621E+04  0.27860255621E+04  0.00000000000E+00 0. -1.
          2   -1    0    0  503    0 -0.00000000000E+00 -0.00000000000E+00 -0.10004342609E+04  0.10004342609E+04  0.00000000000E+00 0. -1.
         25    2    1    2    0    0 -0.93777513620E+02 -0.32213768834E+02 -0.16145625120E+03  0.22699233470E+03  0.12500179997E+03 0.  0.
          4    1    3    3  501    0 -0.78419147427E+02 -0.45249254673E+02 -0.32095922267E+02  0.96066741685E+02  0.12700000000E+01 0. -1.
         -4    1    3    3    0  501 -0.15358366193E+02  0.13035485839E+02 -0.12936032894E+03  0.13092559301E+03  0.12700000000E+01 0. -1.
          2    1    1    2  502    0  0.12383853183E+03  0.60351536250E+02  0.27510070752E+04  0.27544542505E+04  0.00000000000E+00 0. -1.
          2    1    1    2  503    0 -0.30061018211E+02 -0.28137767416E+02 -0.80395952285E+03  0.80501323788E+03  0.00000000000E+00 0. -1.
<mgrwt>
<rscale>  0 0.75220468E+02</rscale>
<asrwt>0</asrwt>
<pdfrwt beam="1">  1        2 0.42861932E+00 0.13741563E+03</pdfrwt>
<pdfrwt beam="2">  1        2 0.15391296E+00 0.41175220E+02</pdfrwt>
<totfact> 0.13810285E+01</totfact>
</mgrwt>
</event>
<event>
 7    1  0.3113530E-004  0.4191440E+02  0.7546771E-02  0.1541285E+00
         -1   -1    0    0    0  501 -0.00000000000E+00  0.00000000000E+00  0.46441574925E+03  0.46441574925E+03  0.00000000000E+00 0.  1.
          2   -1    0    0  503    0  0.00000000000E+00 -0.00000000000E+00 -0.55022435809E+03  0.55022435809E+03  0.00000000000E+00 0. -1.
         25    2    1    2    0    0  0.13365642743E+02 -0.13918674362E+02  0.93627257751E+01  0.12683121110E+03  0.12500450221E+03 0.  0.
          4    1    3    3  502    0 -0.12349971447E+02 -0.26659052683E+02 -0.51626687248E+02  0.59415104316E+02  0.12700000000E+01 0. -1.
         -4    1    3    3    0  502  0.25715614191E+02  0.12740378321E+02  0.60989413023E+02  0.67416106784E+02  0.12700000000E+01 0. -1.
          2    1    1    2  503    0 -0.16869865646E+01  0.42247703142E+02 -0.48998603939E+03  0.49180690636E+03  0.00000000000E+00 0. -1.
         -1    1    1    2    0  501 -0.11678656179E+02 -0.28329028780E+02  0.39481470477E+03  0.39600198988E+03  0.00000000000E+00 0.  1.
<mgrwt>
<rscale>  0 0.35837636E+02</rscale>
<asrwt>0</asrwt>
<pdfrwt beam="2">  1        2 0.84649901E-01 0.41914404E+02</pdfrwt>
<pdfrwt beam="1">  1       -1 0.71448577E-01 0.30641881E+02</pdfrwt>
<totfact> 0.14381855E+02</totfact>
</mgrwt>
</event>
<event>
 7    1  0.3113530E-004  0.2161039E+03  0.7546771E-02  0.1161259E+00
         -2   -1    0    0    0  501 -0.00000000000E+00  0.00000000000E+00  0.66352800671E+03  0.66352800671E+03  0.00000000000E+00 0.  1.
          2   -1    0    0  503    0  0.00000000000E+00 -0.00000000000E+00 -0.37493097244E+04  0.37493097244E+04  0.00000000000E+00 0. -1.
         25    2    1    2    0    0 -0.63571587443E+02  0.36338509379E+03  0.58630654202E+02  0.39389130784E+03  0.12499094233E+03 0.  0.
          4    1    3    3  502    0 -0.16725340700E+02  0.20415008741E+03 -0.27855609297E+02  0.20672334914E+03  0.12700000000E+01 0.  1.
         -4    1    3    3    0  502 -0.46846246743E+02  0.15923500638E+03  0.86486263499E+02  0.18716795870E+03  0.12700000000E+01 0.  1.
          2    1    1    2  503    0  0.16909788904E+01 -0.21399893924E+03 -0.35634104257E+04  0.35698308457E+04  0.00000000000E+00 0. -1.
         -2    1    1    2    0  501  0.61880608552E+02 -0.14938615455E+03  0.41899805379E+03  0.44911557752E+03  0.00000000000E+00 0.  1.
<mgrwt>
<rscale>  0 0.18693055E+03</rscale>
<asrwt>0</asrwt>
<pdfrwt beam="2">  1        2 0.57681689E+00 0.21610392E+03</pdfrwt>
<pdfrwt beam="1">  1       -2 0.10208123E+00 0.16169549E+03</pdfrwt>
<totfact> 0.60386437E-01</totfact>
</mgrwt>
</event>
<event>
 7    1  0.3113530E-004  0.2208919E+03  0.7546771E-02  0.1145596E+00
          1   -1    0    0  502    0  0.00000000000E+00  0.00000000000E+00  0.16266198057E+04  0.16266198057E+04  0.00000000000E+00 0. -1.
          1   -1    0    0  503    0 -0.00000000000E+00 -0.00000000000E+00 -0.88500621279E+03  0.88500621279E+03  0.00000000000E+00 0. -1.
         25    2    1    2    0    0  0.64983815933E+02 -0.38670835858E+03  0.17114347693E+03  0.44573412018E+03  0.12499026070E+03 0.  0.
          4    1    3    3  501    0  0.21498979495E+02 -0.34316199457E+03  0.11538592468E+03  0.36268152027E+03  0.12700000000E+01 0. -1.
         -4    1    3    3    0  501  0.43484836438E+02 -0.43546364013E+02  0.55757552245E+02  0.83052599906E+02  0.12700000000E+01 0. -1.
          1    1    1    2  502    0  0.69690155666E+01  0.21060717279E+03  0.12974416234E+04  0.13144423588E+04  0.00000000000E+00 0. -1.
          1    1    1    2  503    0 -0.71952831500E+02  0.17610118579E+03 -0.72697150751E+03  0.75144953944E+03  0.00000000000E+00 0. -1.
<mgrwt>
<rscale>  0 0.20499040E+03</rscale>
<asrwt>0</asrwt>
<pdfrwt beam="1">  1        1 0.25024920E+00 0.22089187E+03</pdfrwt>
<pdfrwt beam="2">  1        1 0.13615480E+00 0.19023364E+03</pdfrwt>
<totfact> 0.14601389E+01</totfact>
</mgrwt>
</event>
<event>
 7    1  0.3113530E-004  0.4840665E+02  0.7546771E-02  0.1575726E+00
         -2   -1    0    0    0  501 -0.00000000000E+00  0.00000000000E+00  0.11589010791E+02  0.11589010791E+02  0.00000000000E+00 0.  1.
          1   -1    0    0  503    0  0.00000000000E+00 -0.00000000000E+00 -0.10621153825E+04  0.10621153825E+04  0.00000000000E+00 0. -1.
         25    2    1    2    0    0 -0.31957437584E+01  0.32210438228E+02 -0.50123969329E+03  0.51760440472E+03  0.12500145816E+03 0.  0.
          4    1    3    3  502    0 -0.62597465471E+02  0.30128540470E+02 -0.28406257239E+03  0.29243688134E+03  0.12700000000E+01 0. -1.
         -4    1    3    3    0  502  0.59401721713E+02  0.20818977573E+01 -0.21717712090E+03  0.22516752338E+03  0.12700000000E+01 0. -1.
          1    1    1    2  503    0  0.17471671671E+02 -0.48043934115E+02 -0.49717029220E+03  0.49979173499E+03  0.00000000000E+00 0. -1.
         -2    1    1    2    0  501 -0.14275927912E+02  0.15833495887E+02 -0.52116386220E+02  0.56308253590E+02  0.00000000000E+00 0.  1.
<mgrwt>
<rscale>  0 0.32124502E+02</rscale>
<asrwt>0</asrwt>
<pdfrwt beam="2">  1        1 0.16340239E+00 0.48406654E+02</pdfrwt>
<pdfrwt beam="1">  1       -2 0.17829245E-02 0.21319046E+02</pdfrwt>
<totfact> 0.88972977E+03</totfact>
</mgrwt>
</event>
<event>
 7    1  0.3113530E-004  0.1889532E+03  0.7546771E-02  0.1289183E+00
          2   -1    0    0  502    0  0.00000000000E+00  0.00000000000E+00  0.10769524076E+04  0.10769524076E+04  0.00000000000E+00 0. -1.
          1   -1    0    0  503    0 -0.00000000000E+00 -0.00000000000E+00 -0.92815248078E+03  0.92815248078E+03  0.00000000000E+00 0. -1.
         25    2    1    2    0    0 -0.15841219391E+03  0.10197140478E+02 -0.18469171835E+03  0.27374889849E+03  0.12501609395E+03 0.  0.
          4    1    3    3  501    0 -0.13394962494E+03 -0.45112293638E+02 -0.13509872902E+03  0.19552723733E+03  0.12700000000E+01 0.  1.
         -4    1    3    3    0  501 -0.24462568968E+02  0.55309434115E+02 -0.49592989335E+02  0.78221661155E+02  0.12700000000E+01 0.  1.
          2    1    1    2  502    0  0.18811993051E+03  0.28345324133E+02  0.10227947533E+04  0.10403372882E+04  0.00000000000E+00 0. -1.
          1    1    1    2  503    0 -0.29707736606E+02 -0.38542464611E+02 -0.68930310818E+03  0.69101870173E+03  0.00000000000E+00 0. -1.
<mgrwt>
<rscale>  0 0.95890551E+02</rscale>
<asrwt>0</asrwt>
<pdfrwt beam="1">  1        2 0.16568499E+00 0.18895320E+03</pdfrwt>
<pdfrwt beam="2">  1        1 0.14279269E+00 0.48662832E+02</pdfrwt>
<totfact> 0.66415482E+01</totfact>
</mgrwt>
</event>
<event>
 7    1  0.3113530E-004  0.3418160E+02  0.7546771E-02  0.1565328E+00
         -1   -1    0    0    0  501 -0.00000000000E+00  0.00000000000E+00  0.73840394289E+01  0.73840394289E+01  0.00000000000E+00 0.  1.
          2   -1    0    0  503    0  0.00000000000E+00 -0.00000000000E+00 -0.15532486434E+04  0.15532486434E+04  0.00000000000E+00 0. -1.
         25    2    1    2    0    0  0.12090474912E+02 -0.22877946824E+01 -0.73571327951E+03  0.74635372680E+03  0.12497376633E+03 0.  0.
          4    1    3    3  502    0 -0.12653557207E+02 -0.27138931467E+02 -0.41165481262E+02  0.50919975046E+02  0.12700000000E+01 0. -1.
         -4    1    3    3    0  502  0.24744032119E+02  0.24851136785E+02 -0.69454779825E+03  0.69543375175E+03  0.12700000000E+01 0. -1.
          2    1    1    2  503    0  0.24987606471E+02 -0.20339126302E+02 -0.50808533094E+03  0.50910584760E+03  0.00000000000E+00 0. -1.
         -1    1    1    2    0  501 -0.37078081382E+02  0.22626920985E+02 -0.30206599354E+03  0.30517310845E+03  0.00000000000E+00 0.  1.
<mgrwt>
<rscale>  0 0.33185766E+02</rscale>
<asrwt>0</asrwt>
<pdfrwt beam="2">  1        2 0.23896139E+00 0.32218947E+02</pdfrwt>
<pdfrwt beam="1">  1       -1 0.11360058E-02 0.34181596E+02</pdfrwt>
<totfact> 0.19701777E+04</totfact>
</mgrwt>
</event>
<event>
 7    1  0.3113530E-004  0.7425476E+02  0.7546771E-02  0.1351378E+00
          2   -1    0    0  502    0  0.00000000000E+00  0.00000000000E+00  0.43981722922E+02  0.43981722922E+02  0.00000000000E+00 0. -1.
          1   -1    0    0  503    0 -0.00000000000E+00 -0.00000000000E+00 -0.62393010277E+03  0.62393010277E+03  0.00000000000E+00 0. -1.
         25    2    1    2    0    0  0.36367000382E+02  0.64809524592E+02 -0.25414931622E+03  0.29281029992E+03  0.12499265422E+03 0.  0.
          4    1    3    3  501    0  0.36288252254E+02 -0.95171866706E+00 -0.69135517809E+01  0.36975033716E+02  0.12700000000E+01 0.  1.
         -4    1    3    3    0  501  0.78748128409E-01  0.65761243259E+02 -0.24723576444E+03  0.25583526621E+03  0.12700000000E+01 0.  1.
          2    1    1    2  502    0  0.34014273734E+02 -0.74434999358E+02 -0.64160216020E+02  0.10399073645E+03  0.00000000000E+00 0. -1.
          1    1    1    2  503    0 -0.70381274116E+02  0.96254747664E+01 -0.26163884761E+03  0.27111078932E+03  0.00000000000E+00 0. -1.
<mgrwt>
<rscale>  0 0.72627770E+02</rscale>
<asrwt>0</asrwt>
<pdfrwt beam="1">  1        2 0.67664191E-02 0.74254764E+02</pdfrwt>
<pdfrwt beam="2">  1        1 0.95989244E-01 0.71036424E+02</pdfrwt>
<totfact> 0.45326878E+03</totfact>
</mgrwt>
</event>
<event>
 7    1  0.3113530E-004  0.6980625E+02  0.7546771E-02  0.1390216E+00
          1   -1    0    0  503    0 -0.00000000000E+00  0.00000000000E+00  0.21787779050E+04  0.21787779050E+04  0.00000000000E+00 0. -1.
          2   -1    0    0  502    0  0.00000000000E+00 -0.00000000000E+00 -0.61760298855E+03  0.61760298855E+03  0.00000000000E+00 0. -1.
         25    2    1    2    0    0 -0.31748423310E+02  0.15740960919E+02 -0.18160885371E+03  0.22331212028E+03  0.12502314620E+03 0.  0.
          4    1    3    3  501    0  0.21972824726E+02  0.53332445310E+02 -0.50322916358E+02  0.76558236395E+02  0.12700000000E+01 0. -1.
         -4    1    3    3    0  501 -0.53721248036E+02 -0.37591484390E+02 -0.13128593735E+03  0.14675388389E+03  0.12700000000E+01 0. -1.
          2    1    1    2  502    0  0.30934047902E+02 -0.70540734020E+02 -0.41121812399E+03  0.41836975987E+03  0.00000000000E+00 0. -1.
          1    1    1    2  503    0  0.81437540720E+00  0.54799773101E+02  0.21540018941E+04  0.21546990133E+04  0.00000000000E+00 0. -1.
<mgrwt>
<rscale>  0 0.61852963E+02</rscale>
<asrwt>0</asrwt>
<pdfrwt beam="2">  1        2 0.95015845E-01 0.69806249E+02</pdfrwt>
<pdfrwt beam="1">  1        1 0.33519660E+00 0.54805824E+02</pdfrwt>
<totfact> 0.21980057E+01</totfact>
</mgrwt>
</event>
<event>
 7    1  0.3113530E-004  0.1181178E+03  0.7546771E-02  0.1320553E+00
          2   -1    0    0  502    0  0.00000000000E+00  0.00000000000E+00  0.14478660977E+04  0.14478660977E+04  0.00000000000E+00 0. -1.
          1   -1    0    0  503    0 -0.00000000000E+00 -0.00000000000E+00 -0.38630369047E+03  0.38630369047E+03  0.00000000000E+00 0. -1.
         25    2    1    2    0    0 -0.28279015059E+02 -0.12167045111E+03  0.10167469679E+03  0.20387451008E+03  0.12499468199E+03 0.  0.
          4    1    3    3  501    0 -0.22121839195E+02 -0.14748369250E+03  0.93719222443E+02  0.17614119586E+03  0.12700000000E+01 0. -1.
         -4    1    3    3    0  501 -0.61571758639E+01  0.25813241387E+02  0.79554743486E+01  0.27733314220E+02  0.12700000000E+01 0. -1.
          2    1    1    2  502    0  0.58016031845E+02  0.68942268615E+01  0.12839218060E+04  0.12852504014E+04  0.00000000000E+00 0. -1.
          1    1    1    2  503    0 -0.29737016786E+02  0.11477622425E+03 -0.32403409559E+03  0.34504487669E+03  0.00000000000E+00 0. -1.
<mgrwt>
<rscale>  0 0.83071918E+02</rscale>
<asrwt>0</asrwt>
<pdfrwt beam="1">  1        2 0.22274863E+00 0.58424227E+02</pdfrwt>
<pdfrwt beam="2">  1        1 0.59431338E-01 0.11811784E+03</pdfrwt>
<totfact> 0.14380365E+02</totfact>
</mgrwt>
</event>
<event>
 7    1  0.3113530E-004  0.5022053E+02  0.7546771E-02  0.1483850E+00
          1   -1    0    0  502    0  0.00000000000E+00  0.00000000000E+00  0.20129713150E+04  0.20129713150E+04  0.00000000000E+00 0. -1.
          1   -1    0    0  503    0 -0.00000000000E+00 -0.00000000000E+00 -0.22852953440E+03  0.22852953440E+03  0.00000000000E+00 0. -1.
         25    2    1    2    0    0  0.14249525584E+02  0.75404029947E+02 -0.12964842679E+03  0.19571089589E+03  0.12492086891E+03 0.  0.
          4    1    3    3  501    0  0.19592442332E+02 -0.32232714846E+02 -0.44552056580E+02  0.58389299948E+02  0.12700000000E+01 0.  1.
         -4    1    3    3    0  501 -0.53429167477E+01  0.10763674479E+03 -0.85096370215E+02  0.13732159594E+03  0.12700000000E+01 0.  1.
          1    1    1    2  502    0  0.84418843046E+01 -0.36742556960E+02  0.19721094818E+04  0.19724697942E+04  0.00000000000E+00 0. -1.
          1    1    1    2  503    0 -0.22691409889E+02 -0.38661472987E+02 -0.58019274322E+02  0.73320159364E+02  0.00000000000E+00 0. -1.
<mgrwt>
<rscale>  0 0.43512159E+02</rscale>
<asrwt>0</asrwt>
<pdfrwt beam="1">  1        1 0.30968788E+00 0.37699879E+02</pdfrwt>
<pdfrwt beam="2">  1        1 0.35158391E-01 0.50220531E+02</pdfrwt>
<totfact> 0.61737078E+01</totfact>
</mgrwt>
</event>
<event>
 7    1  0.3113530E-004  0.8545970E+02  0.7546771E-02  0.1398013E+00
          2   -1    0    0  503    0  0.00000000000E+00  0.00000000000E+00  0.33414270185E+03  0.33414270185E+03  0.00000000000E+00 0. -1.
          2   -1    0    0  502    0 -0.00000000000E+00 -0.00000000000E+00 -0.79610151421E+03  0.79610151421E+03  0.00000000000E+00 0. -1.
         25    2    1    2    0    0 -0.56528376178E+02 -0.10928990552E+03 -0.16485627427E+03  0.24072888213E+03  0.12503224688E+03 0.  0.
          4    1    3    3  501    0 -0.66421058575E+02 -0.95454284824E+01 -0.10300420848E+03  0.12294044124E+03  0.12700000000E+01 0.  1.
         -4    1    3    3    0  501  0.98926823971E+01 -0.99744477036E+02 -0.61852065794E+02  0.11778844089E+03  0.12700000000E+01 0.  1.
          2    1    1    2  502    0  0.61084013356E+01  0.41618717733E+02 -0.58652974232E+03  0.58803619689E+03  0.00000000000E+00 0. -1.
          2    1    1    2  503    0  0.50419974843E+02  0.67671187786E+02  0.28942720423E+03  0.30147913704E+03  0.00000000000E+00 0. -1.
<mgrwt>
<rscale>  0 0.59956881E+02</rscale>
<asrwt>0</asrwt>
<pdfrwt beam="1">  1        2 0.51406570E-01 0.85459697E+02</pdfrwt>
<pdfrwt beam="2">  1        2 0.12247716E+00 0.42064596E+02</pdfrwt>
<totfact> 0.57664562E+02</totfact>
</mgrwt>
</event>
<event>
 7    1  0.3113530E-004  0.8403977E+02  0.7546771E-02  0.1333661E+00
          2   -1    0    0  502    0  0.00000000000E+00  0.00000000000E+00  0.22542321022E+04  0.22542321022E+04  0.00000000000E+00 0.  1.
          3   -1    0    0  503    0 -0.00000000000E+00 -0.00000000000E+00 -0.44510361050E+02  0.44510361050E+02  0.00000000000E+00 0. -1.
         25    2    1    2    0    0  0.70158537849E+02 -0.15159070137E+02  0.37201229793E+03  0.39896116882E+03  0.12499938628E+03 0.  0.
          4    1    3    3  501    0 -0.35000012392E+02  0.81312520845E+01  0.79705454870E+02  0.87439639546E+02  0.12700000000E+01 0.  1.
         -4    1    3    3    0  501  0.10515855024E+03 -0.23290322222E+02  0.29230684306E+03  0.31152152927E+03  0.12700000000E+01 0.  1.
          2    1    1    2  502    0 -0.62030430982E+00  0.73131474420E+02  0.18003617195E+04  0.18018465302E+04  0.00000000000E+00 0.  1.
          3    1    1    2  503    0 -0.69538233539E+02 -0.57972404283E+02  0.37347723737E+02  0.97934764259E+02  0.00000000000E+00 0. -1.
<mgrwt>
<rscale>  0 0.78397535E+02</rscale>
<asrwt>0</asrwt>
<pdfrwt beam="1">  1        2 0.34680485E+00 0.73134105E+02</pdfrwt>
<pdfrwt beam="2">  1        3 0.68477496E-02 0.84039771E+02</pdfrwt>
<totfact> 0.48648781E+02</totfact>
</mgrwt>
</event>
<event>
 7    1  0.3113530E-004  0.8240144E+02  0.7546771E-02  0.1455702E+00
          2   -1    0    0  502    0  0.00000000000E+00  0.00000000000E+00  0.38394097637E+04  0.38394097637E+04  0.00000000000E+00 0. -1.
          1   -1    0    0  503    0 -0.00000000000E+00 -0.00000000000E+00 -0.20345805442E+02  0.20345805442E+02  0.00000000000E+00 0. -1.
         25    2    1    2    0    0 -0.48442066036E+02  0.90979370833E+02  0.15014333558E+04  0.15101519586E+04  0.12503174107E+03 0.  0.
          4    1    3    3  501    0 -0.48944276549E+02 -0.31397967460E+01  0.90571442314E+03  0.90704224252E+03  0.12700000000E+01 0. -1.
         -4    1    3    3    0  501  0.50221051279E+00  0.94119167579E+02  0.59571893269E+03  0.60310971604E+03  0.12700000000E+01 0. -1.
          2    1    1    2  502    0  0.25115250770E+02 -0.75291665957E+02  0.23200326295E+04  0.23213898882E+04  0.00000000000E+00 0. -1.
          1    1    1    2  503    0  0.23326815266E+02 -0.15687704876E+02 -0.24020271615E+01  0.28213722357E+02  0.00000000000E+00 0. -1.
<mgrwt>
<rscale>  0 0.48129101E+02</rscale>
<asrwt>0</asrwt>
<pdfrwt beam="1">  1        2 0.59067785E+00 0.82401438E+02</pdfrwt>
<pdfrwt beam="2">  1        1 0.31301270E-02 0.28111286E+02</pdfrwt>
<totfact> 0.24934775E+02</totfact>
</mgrwt>
</event>
<event>
 7    1  0.3113530E-004  0.9006628E+02  0.7546771E-02  0.1417059E+00
          2   -1    0    0  503    0  0.00000000000E+00  0.00000000000E+00  0.12221601647E+04  0.12221601647E+04  0.00000000000E+00 0. -1.
         -1   -1    0    0    0  501 -0.00000000000E+00 -0.00000000000E+00 -0.19735226219E+02  0.19735226219E+02  0.00000000000E+00 0.  1.
         25    2    1    2    0    0  0.11356477238E+03 -0.64876147794E+01  0.60499502708E+03  0.62815757959E+03  0.12499566126E+03 0.  0.
          4    1    3    3  502    0  0.40831288519E+01  0.17755327325E+02  0.67147584269E+01  0.19458275113E+02  0.12700000000E+01 0.  1.
         -4    1    3    3    0  502  0.10948164353E+03 -0.24242942104E+02  0.59828026865E+03  0.60869930448E+03  0.12700000000E+01 0.  1.
          2    1    1    2  503    0 -0.81607005351E+02  0.19170610297E+02  0.54247253546E+03  0.54891134744E+03  0.00000000000E+00 0. -1.
         -1    1    1    2    0  501 -0.31957767030E+02 -0.12682995518E+02  0.54957375897E+02  0.64826463843E+02  0.00000000000E+00 0.  1.
<mgrwt>
<rscale>  0 0.55648046E+02</rscale>
<asrwt>0</asrwt>
<pdfrwt beam="1">  1        2 0.18802458E+00 0.90066278E+02</pdfrwt>
<pdfrwt beam="2">  1       -1 0.30361896E-02 0.34382514E+02</pdfrwt>
<totfact> 0.68766665E+03</totfact>
</mgrwt>
</event>
<event>
 7    1  0.3113530E-004  0.4700303E+02  0.7546771E-02  0.1485334E+00
         -2   -1    0    0    0  501 -0.00000000000E+00  0.00000000000E+00  0.12434469016E+02  0.12434469016E+02  0.00000000000E+00 0.  1.
          1   -1    0    0  503    0  0.00000000000E+00 -0.00000000000E+00 -0.12387715111E+04  0.12387715111E+04  0.00000000000E+00 0. -1.
         25    2    1    2    0    0 -0.68550903879E+02 -0.71243546714E+01 -0.70507968246E+03  0.71938316096E+03  0.12499916316E+03 0.  0.
          4    1    3    3  502    0  0.42279053277E+00  0.45469908722E+02 -0.12849679933E+03  0.13631115761E+03  0.12700000000E+01 0. -1.
         -4    1    3    3    0  502 -0.68973694412E+02 -0.52594263393E+02 -0.57658288314E+03  0.58307200335E+03  0.12700000000E+01 0. -1.
          1    1    1    2  503    0  0.39904087116E+02 -0.20595950304E+02 -0.42870969097E+03  0.43105513391E+03  0.00000000000E+00 0. -1.
         -2    1    1    2    0  501  0.28646816763E+02  0.27720304976E+02 -0.92547668668E+02  0.10076768527E+03  0.00000000000E+00 0.  1.
<mgrwt>
<rscale>  0 0.43286024E+02</rscale>
<asrwt>0</asrwt>
<pdfrwt beam="2">  1        1 0.19058019E+00 0.47003031E+02</pdfrwt>
<pdfrwt beam="1">  1       -2 0.19129956E-02 0.39862958E+02</pdfrwt>
<totfact> 0.69387514E+03</totfact>
</mgrwt>
</event>
<event>
 7    1  0.3113530E-004  0.7851909E+02  0.7546771E-02  0.1346594E+00
          1   -1    0    0  503    0 -0.00000000000E+00  0.00000000000E+00  0.44867279000E+03  0.44867279000E+03  0.00000000000E+00 0. -1.
          2   -1    0    0  502    0  0.00000000000E+00 -0.00000000000E+00 -0.15508492210E+04  0.15508492210E+04  0.00000000000E+00 0. -1.
         25    2    1    2    0    0 -0.18189165814E+02 -0.11077463602E+02 -0.22604300087E+03  0.25917715693E+03  0.12499521782E+03 0.  0.
          4    1    3    3  501    0 -0.29959726806E+02 -0.20719573007E+01 -0.23812453127E+03  0.24001413194E+03  0.12700000000E+01 0.  1.
         -4    1    3    3    0  501  0.11770560992E+02 -0.90055063016E+01  0.12081530402E+02  0.19163024988E+02  0.12700000000E+01 0.  1.
          2    1    1    2  502    0 -0.53925334964E+02  0.44603615970E+02 -0.13036335472E+04  0.13055105705E+04  0.00000000000E+00 0. -1.
          1    1    1    2  503    0  0.72114500778E+02 -0.33526152368E+02  0.42750011705E+03  0.43483428359E+03  0.00000000000E+00 0. -1.
<mgrwt>
<rscale>  0 0.74127538E+02</rscale>
<asrwt>0</asrwt>
<pdfrwt beam="2">  1        2 0.23859219E+00 0.69981600E+02</pdfrwt>
<pdfrwt beam="1">  1        1 0.69026583E-01 0.78519094E+02</pdfrwt>
<totfact> 0.10487270E+02</totfact>
</mgrwt>
</event>
<event>
 7    1  0.3113530E-004  0.1709279E+03  0.7546771E-02  0.1236196E+00
         -3   -1    0    0    0  501 -0.00000000000E+00  0.00000000000E+00  0.32052126834E+03  0.32052126834E+03  0.00000000000E+00 0.  1.
          1   -1    0    0  503    0  0.00000000000E+00 -0.00000000000E+00 -0.11498782714E+04  0.11498782714E+04  0.00000000000E+00 0. -1.
         25    2    1    2    0    0  0.46190268476E+02  0.24360831470E+03 -0.16008999851E+03  0.32052359682E+03  0.12501206584E+03 0.  0.
          4    1    3    3  502    0  0.32778770090E+02  0.11212101303E+03 -0.14690508461E+03  0.18769199800E+03  0.12700000000E+01 0. -1.
         -4    1    3    3    0  502  0.13411498386E+02  0.13148730167E+03 -0.13184913898E+02  0.13283159882E+03  0.12700000000E+01 0. -1.
          1    1    1    2  503    0  0.66003614803E+01 -0.90123989039E+02 -0.87958282705E+03  0.88421255805E+03  0.00000000000E+00 0. -1.
         -3    1    1    2    0  501 -0.52790629957E+02 -0.15348432566E+03  0.21031582253E+03  0.26566338483E+03  0.00000000000E+00 0.  1.
<mgrwt>
<rscale>  0 0.12428177E+03</rscale>
<asrwt>0</asrwt>
<pdfrwt beam="2">  1        1 0.17690435E+00 0.90365359E+02</pdfrwt>
<pdfrwt beam="1">  1       -3 0.49310964E-01 0.17092787E+03</pdfrwt>
<totfact> 0.29877978E+01</totfact>
</mgrwt>
</event>
<event>
 7    1  0.3113530E-004  0.6283491E+02  0.7546771E-02  0.1515496E+00
          1   -1    0    0  503    0  0.00000000000E+00  0.00000000000E+00  0.75641075316E+03  0.75641075316E+03  0.00000000000E+00 0. -1.
         -1   -1    0    0    0  501 -0.00000000000E+00 -0.00000000000E+00 -0.27366883640E+02  0.27366883640E+02  0.00000000000E+00 0.  1.
         25    2    1    2    0    0  0.60550641608E+02  0.49063568835E+02  0.54757386721E+03  0.56704362114E+03  0.12501085651E+03 0.  0.
          4    1    3    3  502    0  0.51162409336E+02  0.60198910458E+02  0.54671838468E+03  0.55239850289E+03  0.12700000000E+01 0. -1.
         -4    1    3    3    0  502  0.93882322728E+01 -0.11135341622E+02  0.85548252699E+00  0.14645118252E+02  0.12700000000E+01 0. -1.
          1    1    1    2  503    0 -0.24232415580E+02  0.59839518910E+00  0.14105410743E+03  0.14312172883E+03  0.00000000000E+00 0. -1.
         -1    1    1    2    0  501 -0.36318226028E+02 -0.49661964025E+02  0.40415894889E+02  0.73612286830E+02  0.00000000000E+00 0.  1.
<mgrwt>
<rscale>  0 0.39026988E+02</rscale>
<asrwt>0</asrwt>
<pdfrwt beam="1">  1        1 0.11637087E+00 0.24239803E+02</pdfrwt>
<pdfrwt beam="2">  1       -1 0.42102904E-02 0.62834909E+02</pdfrwt>
<totfact> 0.55542754E+03</totfact>
</mgrwt>
</event>
<event>
 7    1  0.3113530E-004  0.1125193E+03  0.7546771E-02  0.1293106E+00
         -3   -1    0    0    0  501 -0.00000000000E+00  0.00000000000E+00  0.21948346198E+03  0.21948346198E+03  0.00000000000E+00 0.  1.
          1   -1    0    0  503    0  0.00000000000E+00 -0.00000000000E+00 -0.11615766988E+04  0.11615766988E+04  0.00000000000E+00 0. -1.
         25    2    1    2    0    0  0.82828854239E+02 -0.12238364755E+03  0.41765581049E+02  0.19800660552E+03  0.12499550307E+03 0.  0.
          4    1    3    3  502    0 -0.31059374779E+02 -0.11797170325E+02 -0.20784654695E+01  0.33313524402E+02  0.12700000000E+01 0. -1.
         -4    1    3    3    0  502  0.11388822902E+03 -0.11058647723E+03  0.43844046519E+02  0.16469308112E+03  0.12700000000E+01 0. -1.
          1    1    1    2  503    0 -0.10229058623E+03  0.46048856015E+02 -0.10644567467E+04  0.10703513567E+04  0.00000000000E+00 0. -1.
         -3    1    1    2    0  501  0.19461731988E+02  0.76334791537E+02  0.80597928880E+02  0.11270219852E+03  0.00000000000E+00 0.  1.
<mgrwt>
<rscale>  0 0.94148237E+02</rscale>
<asrwt>0</asrwt>
<pdfrwt beam="2">  1        1 0.17870411E+00 0.11251927E+03</pdfrwt>
<pdfrwt beam="1">  1       -3 0.33766687E-01 0.78776643E+02</pdfrwt>
<totfact> 0.57321609E+01</totfact>
</mgrwt>
</event>
<event>
 7    1  0.3113530E-004  0.3602303E+02  0.7546771E-02  0.1618984E+00
          1   -1    0    0  502    0  0.00000000000E+00  0.00000000000E+00  0.23488251503E+03  0.23488251503E+03  0.00000000000E+00 0. -1.
          1   -1    0    0  503    0 -0.00000000000E+00 -0.00000000000E+00 -0.16440647200E+04  0.16440647200E+04  0.00000000000E+00 0. -1.
         25    2    1    2    0    0 -0.23829730962E+01 -0.25213804108E+02 -0.46576445375E+03  0.48290984326E+03  0.12499590335E+03 0.  0.
          4    1    3    3  501    0  0.26521664450E+01 -0.18931652479E+01 -0.45767109295E+03  0.45768445493E+03  0.12700000000E+01 0.  1.
         -4    1    3    3    0  501 -0.50351395412E+01 -0.23320638860E+02 -0.80933608034E+01  0.25225388325E+02  0.12700000000E+01 0.  1.
          1    1    1    2  502    0 -0.21969111086E+02 -0.20291401502E+01  0.22548593029E+03  0.22656271541E+03  0.00000000000E+00 0. -1.
          1    1    1    2  503    0  0.24352084182E+02  0.27242944258E+02 -0.11689036815E+04  0.11694746764E+04  0.00000000000E+00 0. -1.
<mgrwt>
<rscale>  0 0.28191533E+02</rscale>
<asrwt>0</asrwt>
<pdfrwt beam="1">  1        1 0.36135771E-01 0.22062621E+02</pdfrwt>
<pdfrwt beam="2">  1        1 0.25293304E+00 0.36023033E+02</pdfrwt>
<totfact> 0.98632701E+01</totfact>
</mgrwt>
</event>
<event>
 7    1  0.3113530E-004  0.7639877E+02  0.7546771E-02  0.1454282E+00
          1   -1    0    0  503    0  0.00000000000E+00  0.00000000000E+00  0.22791758295E+03  0.22791758295E+03  0.00000000000E+00 0. -1.
         -2   -1    0    0    0  501 -0.00000000000E+00 -0.00000000000E+00 -0.91604922756E+02  0.91604922756E+02  0.00000000000E+00 0.  1.
         25    2    1    2    0    0 -0.76318368148E+02  0.46538497704E+02  0.11688522141E+02  0.15411708648E+03  0.12500051884E+03 0.  0.
          4    1    3    3  502    0  0.22535569789E+01  0.65249609472E+02 -0.18516751037E+02  0.67875422829E+02  0.12700000000E+01 0. -1.
         -4    1    3    3    0  502 -0.78571925127E+02 -0.18711111767E+02  0.30205273179E+02  0.86241663652E+02  0.12700000000E+01 0. -1.
          1    1    1    2  503    0  0.11289026479E+02 -0.28480920016E+02  0.76810211601E+02  0.82694700737E+02  0.00000000000E+00 0. -1.
         -2    1    1    2    0  501  0.65029341668E+02 -0.18057577689E+02  0.47813926448E+02  0.82710718484E+02  0.00000000000E+00 0.  1.
<mgrwt>
<rscale>  0 0.48379781E+02</rscale>
<asrwt>0</asrwt>
<pdfrwt beam="1">  1        1 0.35064244E-01 0.30636660E+02</pdfrwt>
<pdfrwt beam="2">  1       -2 0.14093065E-01 0.76398773E+02</pdfrwt>
<totfact> 0.37703374E+03</totfact>
</mgrwt>
</event>
<event>
 7    1  0.3113530E-004  0.1051562E+03  0.7546771E-02  0.1335241E+00
         -1   -1    0    0    0  501 -0.00000000000E+00  0.00000000000E+00  0.87521900265E+02  0.87521900265E+02  0.00000000000E+00 0.  1.
          1   -1    0    0  503    0  0.00000000000E+00 -0.00000000000E+00 -0.36716747724E+03  0.36716747724E+03  0.00000000000E+00 0. -1.
         25    2    1    2    0    0  0.16842279685E+02  0.11852963685E+03 -0.24265381868E+03  0.29805986529E+03  0.12500348148E+03 0.  0.
          4    1    3    3  502    0  0.32997815017E+02  0.70840217792E+02 -0.37269899930E+02  0.86590129885E+02  0.12700000000E+01 0.  1.
         -4    1    3    3    0  502 -0.16155535333E+02  0.47689419055E+02 -0.20538391875E+03  0.21146973540E+03  0.12700000000E+01 0.  1.
          1    1    1    2  503    0  0.29369733612E+02 -0.84067345685E+02 -0.17575548538E+01  0.89067327691E+02  0.00000000000E+00 0.  1.
         -1    1    1    2    0  501 -0.46212013297E+02 -0.34462291162E+02 -0.35234203441E+02  0.67562184521E+02  0.00000000000E+00 0. -1.
<mgrwt>
<rscale>  0 0.77858594E+02</rscale>
<asrwt>0</asrwt>
<pdfrwt beam="2">  1        1 0.56487304E-01 0.10515620E+03</pdfrwt>
<pdfrwt beam="1">  1       -1 0.13464908E-01 0.57647200E+02</pdfrwt>
<totfact> 0.24079829E+03</totfact>
</mgrwt>
</event>
<event>
 7    1  0.3113530E-004  0.1467711E+03  0.7546771E-02  0.1360202E+00
         -2   -1    0    0    0  501 -0.00000000000E+00  0.00000000000E+00  0.23050390671E+03  0.23050390671E+03  0.00000000000E+00 0.  1.
          1   -1    0    0  503    0  0.00000000000E+00 -0.00000000000E+00 -0.16470464404E+03  0.16470464404E+03  0.00000000000E+00 0. -1.
         25    2    1    2    0    0 -0.27645158222E+02 -0.15764147262E+03 -0.59976751406E+01  0.20316444966E+03  0.12499893134E+03 0.  0.
          4    1    3    3  502    0 -0.83728681299E+01 -0.15317274147E+03  0.35246124383E+02  0.15740360807E+03  0.12700000000E+01 0. -1.
         -4    1    3    3    0  502 -0.19272290092E+02 -0.44687311479E+01 -0.41243799524E+02  0.45760841586E+02  0.12700000000E+01 0. -1.
          1    1    1    2  503    0  0.44242596676E+02  0.12870924261E+03  0.31436061659E+02  0.13968429570E+03  0.00000000000E+00 0. -1.
         -2    1    1    2    0  501 -0.16597438454E+02  0.28932230008E+02  0.40360876151E+02  0.52359805387E+02  0.00000000000E+00 0.  1.
<mgrwt>
<rscale>  0 0.69968104E+02</rscale>
<asrwt>0</asrwt>
<pdfrwt beam="2">  1        1 0.25339176E-01 0.14677113E+03</pdfrwt>
<pdfrwt beam="1">  1       -2 0.35462139E-01 0.33354893E+02</pdfrwt>
<totfact> 0.11820091E+03</totfact>
</mgrwt>
</event>
<event>
 7    1  0.3113530E-004  0.1040156E+03  0.7546771E-02  0.1469243E+00
          2   -1    0    0  502    0  0.00000000000E+00  0.00000000000E+00  0.14967028290E+03  0.14967028290E+03  0.00000000000E+00 0. -1.
          3   -1    0    0  503    0 -0.00000000000E+00 -0.00000000000E+00 -0.32844299591E+03  0.32844299591E+03  0.00000000000E+00 0. -1.
         25    2    1    2    0    0  0.30904344811E+02  0.83828466962E+02 -0.11310542986E+03  0.19079109249E+03  0.12500444916E+03 0.  0.
          4    1    3    3  501    0  0.67090056455E+02  0.82956925537E+01 -0.34433900391E+02  0.75876218845E+02  0.12700000000E+01 0. -1.
         -4    1    3    3    0  501 -0.36185711644E+02  0.75532774408E+02 -0.78671529465E+02  0.11491487365E+03  0.12700000000E+01 0. -1.
          2    1    1    2  502    0 -0.47409953647E+02 -0.95457004883E+02  0.84369081829E+02  0.13593338609E+03  0.00000000000E+00 0. -1.
          3    1    1    2  503    0  0.16505608836E+02  0.11628537921E+02 -0.15003636498E+03  0.15138880022E+03  0.00000000000E+00 0. -1.
<mgrwt>
<rscale>  0 0.45827187E+02</rscale>
<asrwt>0</asrwt>
<pdfrwt beam="1">  1        2 0.23026197E-01 0.10401558E+03</pdfrwt>
<pdfrwt beam="2">  1        3 0.50529692E-01 0.20190543E+02</pdfrwt>
<totfact> 0.47132832E+02</totfact>
</mgrwt>
</event>
<event>
 7    1  0.3113530E-004  0.1332503E+03  0.7546771E-02  0.1315800E+00
          2   -1    0    0  502    0  0.00000000000E+00  0.00000000000E+00  0.39044646568E+03  0.39044646568E+03  0.00000000000E+00 0. -1.
          2   -1    0    0  503    0 -0.00000000000E+00 -0.00000000000E+00 -0.54089446880E+03  0.54089446880E+03  0.00000000000E+00 0. -1.
         25    2    1    2    0    0 -0.47981354064E+02 -0.17255927863E+03 -0.12467311967E+03  0.25147489138E+03  0.12496927322E+03 0.  0.
          4    1    3    3  501    0  0.18964911096E+01 -0.12056548239E+03 -0.13230197928E+03  0.17901133720E+03  0.12700000000E+01 0. -1.
         -4    1    3    3    0  501 -0.49877845173E+02 -0.51993796233E+02  0.76288596093E+01  0.72463554183E+02  0.12700000000E+01 0. -1.
          2    1    1    2  502    0  0.17236890186E+02  0.51219531060E+02  0.31355849151E+03  0.31818151792E+03  0.00000000000E+00 0. -1.
          2    1    1    2  503    0  0.30744463878E+02  0.12133974757E+03 -0.33933337495E+03  0.36168452518E+03  0.00000000000E+00 0. -1.
<mgrwt>
<rscale>  0 0.84859463E+02</rscale>
<asrwt>0</asrwt>
<pdfrwt beam="1">  1        2 0.60068687E-01 0.54042120E+02</pdfrwt>
<pdfrwt beam="2">  1        2 0.83214534E-01 0.13325030E+03</pdfrwt>
<totfact> 0.73770204E+02</totfact>
</mgrwt>
</event>
<event>
 7    1  0.3113530E-004  0.4047409E+02  0.7546771E-02  0.1574172E+00
          2   -1    0    0  502    0  0.00000000000E+00  0.00000000000E+00  0.40518213830E+03  0.40518213830E+03  0.00000000000E+00 0.  1.
          1   -1    0    0  503    0 -0.00000000000E+00 -0.00000000000E+00 -0.57404839557E+02  0.57404839557E+02  0.00000000000E+00 0. -1.
         25    2    1    2    0    0  0.46815541752E+02  0.35606686845E+02  0.10165702941E+03  0.17151186619E+03  0.12499054971E+03 0.  0.
          4    1    3    3  501    0  0.46452080876E+02  0.70323037750E+02  0.10715939811E+03  0.13633735717E+03  0.12700000000E+01 0.  1.
         -4    1    3    3    0  501  0.36346087573E+00 -0.34716350904E+02 -0.55023686948E+01  0.35174509025E+02  0.12700000000E+01 0.  1.
          2    1    1    2  502    0 -0.38178086731E+02 -0.11353991486E+02  0.25916924188E+03  0.26221208089E+03  0.00000000000E+00 0.  1.
          1    1    1    2  503    0 -0.86374550211E+01 -0.24252695359E+02 -0.13048972543E+02  0.28863030781E+02  0.00000000000E+00 0. -1.
<mgrwt>
<rscale>  0 0.32280033E+02</rscale>
<asrwt>0</asrwt>
<pdfrwt beam="1">  1        2 0.62335712E-01 0.40474087E+02</pdfrwt>
<pdfrwt beam="2">  1        1 0.88315141E-02 0.25744880E+02</pdfrwt>
<totfact> 0.68479675E+03</totfact>
</mgrwt>
</event>
<event>
 7    1  0.3113530E-004  0.1051471E+03  0.7546771E-02  0.1291655E+00
          1   -1    0    0  503    0 -0.00000000000E+00  0.00000000000E+00  0.24166771167E+04  0.24166771167E+04  0.00000000000E+00 0. -1.
          2   -1    0    0  502    0  0.00000000000E+00 -0.00000000000E+00 -0.33650370072E+03  0.33650370072E+03  0.00000000000E+00 0. -1.
         25    2    1    2    0    0  0.37476599448E+02 -0.74584535046E+01  0.77374711427E+03  0.78470970031E+03  0.12499837154E+03 0.  0.
          4    1    3    3  501    0 -0.30099330701E+02 -0.24322421489E+02  0.97844903108E+02  0.10522731518E+03  0.12700000000E+01 0.  1.
         -4    1    3    3    0  501  0.67575930149E+02  0.16863967984E+02  0.67590221116E+03  0.67948238513E+03  0.12700000000E+01 0.  1.
          2    1    1    2  502    0 -0.53848260617E+02  0.91324237281E+02 -0.32138431324E+03  0.33841930838E+03  0.00000000000E+00 0. -1.
          1    1    1    2  503    0  0.16371661169E+02 -0.83865783777E+02  0.16278106149E+04  0.16300518087E+04  0.00000000000E+00 0. -1.
<mgrwt>
<rscale>  0 0.94787641E+02</rscale>
<asrwt>0</asrwt>
<pdfrwt beam="2">  1        2 0.51769802E-01 0.10514711E+03</pdfrwt>
<pdfrwt beam="1">  1        1 0.37179647E+00 0.85448821E+02</pdfrwt>
<totfact> 0.27861775E+01</totfact>
</mgrwt>
</event>
<event>
 7    1  0.3113530E-004  0.4839446E+02  0.7546771E-02  0.1482479E+00
          2   -1    0    0  502    0  0.00000000000E+00  0.00000000000E+00  0.42726152689E+03  0.42726152689E+03  0.00000000000E+00 0. -1.
          1   -1    0    0  503    0 -0.00000000000E+00 -0.00000000000E+00 -0.21156934475E+04  0.21156934475E+04  0.00000000000E+00 0. -1.
         25    2    1    2    0    0 -0.41690683726E+02  0.80890414927E+01 -0.52503091964E+02  0.14207391295E+03  0.12499950549E+03 0.  0.
          4    1    3    3  501    0 -0.30261154646E+02  0.63458910836E+02 -0.48420580322E+02  0.85375267752E+02  0.12700000000E+01 0.  1.
         -4    1    3    3    0  501 -0.11429529080E+02 -0.55369869343E+02 -0.40825116423E+01  0.56698645199E+02  0.12700000000E+01 0.  1.
          2    1    1    2  502    0  0.18829471285E+02  0.34724546919E+02  0.38116352416E+03  0.38320487380E+03  0.00000000000E+00 0. -1.
          1    1    1    2  503    0  0.22861212441E+02 -0.42813588412E+02 -0.20170923528E+04  0.20176761877E+04  0.00000000000E+00 0. -1.
<mgrwt>
<rscale>  0 0.43722286E+02</rscale>
<asrwt>0</asrwt>
<pdfrwt beam="1">  1        2 0.65732544E-01 0.39501179E+02</pdfrwt>
<pdfrwt beam="2">  1        1 0.32549129E+00 0.48394461E+02</pdfrwt>
<totfact> 0.36458192E+01</totfact>
</mgrwt>
</event>
<event>
 7    1  0.3113530E-004  0.1517758E+03  0.7546771E-02  0.1379566E+00
         -2   -1    0    0    0  501 -0.00000000000E+00  0.00000000000E+00  0.28228833805E+03  0.28228833805E+03  0.00000000000E+00 0.  1.
          2   -1    0    0  503    0  0.00000000000E+00 -0.00000000000E+00 -0.75440693150E+03  0.75440693150E+03  0.00000000000E+00 0. -1.
         25    2    1    2    0    0 -0.39858394356E+02 -0.16426241849E+03 -0.34545881970E+03  0.40440200679E+03  0.12501341233E+03 0.  0.
          4    1    3    3  502    0 -0.36269107458E+02 -0.18194107859E+03 -0.27550488542E+03  0.33214839910E+03  0.12700000000E+01 0. -1.
         -4    1    3    3    0  502 -0.35892868983E+01  0.17678660104E+02 -0.69953934278E+02  0.72253607692E+02  0.12700000000E+01 0. -1.
          2    1    1    2  503    0  0.23437053757E+02  0.14341409637E+02 -0.35640804341E+03  0.35746561363E+03  0.00000000000E+00 0. -1.
         -2    1    1    2    0  501  0.16421340599E+02  0.14992100885E+03  0.22974826965E+03  0.27482764914E+03  0.00000000000E+00 0.  1.
<mgrwt>
<rscale>  0 0.64577903E+02</rscale>
<asrwt>0</asrwt>
<pdfrwt beam="2">  1        2 0.11606260E+00 0.27476745E+02</pdfrwt>
<pdfrwt beam="1">  1       -2 0.43428975E-01 0.15177582E+03</pdfrwt>
<totfact> 0.21181873E+02</totfact>
</mgrwt>
</event>
<event>
 7    1  0.3113530E-004  0.1621241E+03  0.7546771E-02  0.1230056E+00
          1   -1    0    0  502    0  0.00000000000E+00  0.00000000000E+00  0.10011614605E+04  0.10011614605E+04  0.00000000000E+00 0. -1.
          1   -1    0    0  503    0 -0.00000000000E+00 -0.00000000000E+00 -0.24062277119E+03  0.24062277119E+03  0.00000000000E+00 0. -1.
         25    2    1    2    0    0  0.83207653994E+02  0.23219585419E+03  0.23101742411E+03  0.36032139124E+03  0.12499610536E+03 0.  0.
          4    1    3    3  501    0  0.77358708859E+02  0.24316529945E+03  0.23530746403E+03  0.34710941822E+03  0.12700000000E+01 0. -1.
         -4    1    3    3    0  501  0.58489451349E+01 -0.10969445257E+02 -0.42900399188E+01  0.13211973015E+02  0.12700000000E+01 0. -1.
          1    1    1    2  502    0 -0.40368450793E+01 -0.10139439066E+03  0.66770752569E+03  0.67537430988E+03  0.00000000000E+00 0. -1.
          1    1    1    2  503    0 -0.79170808915E+02 -0.13080146353E+03 -0.13818626049E+03  0.20608853057E+03  0.00000000000E+00 0. -1.
<mgrwt>
<rscale>  0 0.12826339E+03</rscale>
<asrwt>0</asrwt>
<pdfrwt beam="1">  1        1 0.15402484E+00 0.10147472E+03</pdfrwt>
<pdfrwt beam="2">  1        1 0.37018888E-01 0.16212409E+03</pdfrwt>
<totfact> 0.23532737E+02</totfact>
</mgrwt>
</event>
<event>
 7    1  0.3113530E-004  0.1053330E+03  0.7546771E-02  0.1369411E+00
          1   -1    0    0  503    0  0.00000000000E+00  0.00000000000E+00  0.86857137544E+03  0.86857137544E+03  0.00000000000E+00 0. -1.
         -2   -1    0    0    0  501 -0.00000000000E+00 -0.00000000000E+00 -0.55986236283E+02  0.55986236283E+02  0.00000000000E+00 0.  1.
         25    2    1    2    0    0 -0.13396153169E+03 -0.27467007338E+01  0.19322014948E+03  0.26629235827E+03  0.12499743025E+03 0.  0.
          4    1    3    3  502    0  0.46392292096E+01  0.12735543921E+02  0.94366608913E+02  0.95343517369E+02  0.12700000000E+01 0. -1.
         -4    1    3    3    0  502 -0.13860076090E+03 -0.15482244655E+02  0.98853540570E+02  0.17094884090E+03  0.12700000000E+01 0. -1.
          1    1    1    2  503    0  0.42642683442E+02  0.58326509584E+01  0.52554351294E+03  0.52730295112E+03  0.00000000000E+00 0. -1.
         -2    1    1    2    0  501  0.91318848252E+02 -0.30859502247E+01  0.93821476734E+02  0.13096230233E+03  0.00000000000E+00 0.  1.
<mgrwt>
<rscale>  0 0.67331298E+02</rscale>
<asrwt>0</asrwt>
<pdfrwt beam="1">  1        1 0.13362636E+00 0.43039729E+02</pdfrwt>
<pdfrwt beam="2">  1       -2 0.86132678E-02 0.10533300E+03</pdfrwt>
<totfact> 0.15580099E+03</totfact>
</mgrwt>
</event>
<event>
 7    1  0.3113530E-004  0.5880800E+02  0.7546771E-02  0.1520120E+00
          1   -1    0    0  503    0  0.00000000000E+00  0.00000000000E+00  0.27588144240E+03  0.27588144240E+03  0.00000000000E+00 0. -1.
         -2   -1    0    0    0  501 -0.00000000000E+00 -0.00000000000E+00 -0.55442445451E+02  0.55442445451E+02  0.00000000000E+00 0.  1.
         25    2    1    2    0    0 -0.31828149519E+02 -0.31377515226E+02  0.57125253932E+02  0.14456749936E+03  0.12505553834E+03 0.  0.
          4    1    3    3  502    0 -0.49744878990E+02 -0.15922634694E+02 -0.25838247736E+02  0.58286458354E+02  0.12700000000E+01 0.  1.
         -4    1    3    3    0  502  0.17916729472E+02 -0.15454880532E+02  0.82963501668E+02  0.86281041002E+02  0.12700000000E+01 0.  1.
          1    1    1    2  503    0  0.25576186942E+02  0.55695512800E+02  0.13850462192E+03  0.15145844902E+03  0.00000000000E+00 0. -1.
         -2    1    1    2    0  501  0.62519625768E+01 -0.24317997574E+02  0.24809121096E+02  0.35297939481E+02  0.00000000000E+00 0.  1.
<mgrwt>
<rscale>  0 0.38426534E+02</rscale>
<asrwt>0</asrwt>
<pdfrwt beam="1">  1        1 0.42443298E-01 0.58807999E+02</pdfrwt>
<pdfrwt beam="2">  1       -2 0.85296071E-02 0.25108804E+02</pdfrwt>
<totfact> 0.59905659E+03</totfact>
</mgrwt>
</event>
<event>
 7    1  0.3113530E-004  0.1645805E+03  0.7546771E-02  0.1307339E+00
          2   -1    0    0  502    0  0.00000000000E+00  0.00000000000E+00  0.17614128966E+04  0.17614128966E+04  0.00000000000E+00 0. -1.
          3   -1    0    0  503    0 -0.00000000000E+00 -0.00000000000E+00 -0.73534809729E+03  0.73534809729E+03  0.00000000000E+00 0. -1.
         25    2    1    2    0    0  0.53079352726E+02  0.19441664542E+03  0.24397348085E+03  0.34024045077E+03  0.12500102112E+03 0.  0.
          4    1    3    3  501    0  0.72246373077E+02  0.20310685217E+03  0.21556903781E+03  0.30486645402E+03  0.12700000000E+01 0.  1.
         -4    1    3    3    0  501 -0.19167020351E+02 -0.86902067452E+01  0.28404443034E+02  0.35373996756E+02  0.12700000000E+01 0.  1.
          2    1    1    2  502    0 -0.34725393793E+02 -0.32023562591E+02  0.14592021610E+04  0.14599665435E+04  0.00000000000E+00 0. -1.
          3    1    1    2  503    0 -0.18353958933E+02 -0.16239308283E+03 -0.67711084258E+03  0.69655399955E+03  0.00000000000E+00 0. -1.
<mgrwt>
<rscale>  0 0.88172208E+02</rscale>
<asrwt>0</asrwt>
<pdfrwt beam="1">  1        2 0.27098660E+00 0.47237290E+02</pdfrwt>
<pdfrwt beam="2">  1        3 0.11313048E+00 0.16458053E+03</pdfrwt>
<totfact> 0.49414203E+00</totfact>
</mgrwt>
</event>
<event>
 7    1  0.3113530E-004  0.3231931E+03  0.7546771E-02  0.1182255E+00
          1   -1    0    0  502    0  0.00000000000E+00  0.00000000000E+00  0.27385578678E+04  0.27385578678E+04  0.00000000000E+00 0. -1.
          1   -1    0    0  503    0 -0.00000000000E+00 -0.00000000000E+00 -0.24459200423E+03  0.24459200423E+03  0.00000000000E+00 0. -1.
         25    2    1    2    0    0  0.32975003967E+03  0.41131744767E+02  0.53890323705E+03  0.64534329561E+03  0.12499744477E+03 0.  0.
          4    1    3    3  501    0  0.22598149077E+01  0.25759377510E+02  0.55592412285E+02  0.61325210939E+02  0.12700000000E+01 0. -1.
         -4    1    3    3    0  501  0.32749022476E+03  0.15372367257E+02  0.48331082476E+03  0.58401808467E+03  0.12700000000E+01 0. -1.
          1    1    1    2  502    0 -0.29974955634E+03 -0.12076751457E+03  0.21241074771E+04  0.21485500142E+04  0.00000000000E+00 0. -1.
          1    1    1    2  503    0 -0.30000483329E+02  0.79635769804E+02 -0.16904485060E+03  0.18925656223E+03  0.00000000000E+00 0. -1.
<mgrwt>
<rscale>  0 0.16584179E+03</rscale>
<asrwt>0</asrwt>
<pdfrwt beam="1">  1        1 0.42131658E+00 0.32319313E+03</pdfrwt>
<pdfrwt beam="2">  1        1 0.37629541E-01 0.85099265E+02</pdfrwt>
<totfact> 0.14489116E+01</totfact>
</mgrwt>
</event>
<event>
 7    1  0.3113530E-004  0.7932430E+02  0.7546771E-02  0.1502200E+00
         -2   -1    0    0    0  501  0.00000000000E+00  0.00000000000E+00  0.10788053233E+04  0.10788053233E+04  0.00000000000E+00 0.  1.
         -1   -1    0    0    0  502 -0.00000000000E+00 -0.00000000000E+00 -0.34745740603E+03  0.34745740603E+03  0.00000000000E+00 0.  1.
         25    2    1    2    0    0 -0.37601211795E+02 -0.57568407501E+02  0.79609630193E+01  0.14288182785E+03  0.12499546843E+03 0.  0.
          4    1    3    3  503    0  0.19968900720E+02 -0.42167813188E+02  0.51170682594E+02  0.69259895482E+02  0.12700000000E+01 0.  1.
         -4    1    3    3    0  503 -0.57570112514E+02 -0.15400594313E+02 -0.43209719575E+02  0.73621932370E+02  0.12700000000E+01 0.  1.
         -2    1    1    2    0  501  0.10730356833E+02 -0.18068751500E+02  0.99751822468E+03  0.99773955966E+03  0.00000000000E+00 0.  1.
         -1    1    1    2    0  502  0.26870854962E+02  0.75637159001E+02 -0.27413127048E+03  0.28564134176E+03  0.00000000000E+00 0.  1.
<mgrwt>
<rscale>  0 0.40828684E+02</rscale>
<asrwt>0</asrwt>
<pdfrwt beam="1">  1       -2 0.16597005E+00 0.21014765E+02</pdfrwt>
<pdfrwt beam="2">  1       -1 0.53454986E-01 0.79324298E+02</pdfrwt>
<totfact> 0.76401978E+00</totfact>
</mgrwt>
</event>
<event>
 7    1  0.3113530E-004  0.2182322E+03  0.7546771E-02  0.1330662E+00
          1   -1    0    0  503    0  0.00000000000E+00  0.00000000000E+00  0.51910937802E+03  0.51910937802E+03  0.00000000000E+00 0. -1.
          1   -1    0    0  502    0 -0.00000000000E+00 -0.00000000000E+00 -0.14954298483E+04  0.14954298483E+04  0.00000000000E+00 0. -1.
         25    2    1    2    0    0 -0.69536081165E+02  0.22954641405E+03 -0.31930490370E+03  0.41845576148E+03  0.12499111970E+03 0.  0.
          4    1    3    3  501    0  0.11484142077E+01  0.10793291998E+03 -0.60122378551E+02  0.12356029853E+03  0.12700000000E+01 0. -1.
         -4    1    3    3    0  501 -0.70684495372E+02  0.12161349407E+03 -0.25918252514E+03  0.29489546295E+03  0.12700000000E+01 0. -1.
          1    1    1    2  502    0  0.50442051256E+02 -0.20783380449E+03 -0.11159401363E+04  0.11362489510E+04  0.00000000000E+00 0. -1.
          1    1    1    2  503    0  0.19094029908E+02 -0.21712609560E+02  0.45892456974E+03  0.45983451382E+03  0.00000000000E+00 0. -1.
<mgrwt>
<rscale>  0 0.79435284E+02</rscale>
<asrwt>0</asrwt>
<pdfrwt beam="1">  1        1 0.79862981E-01 0.28914000E+02</pdfrwt>
<pdfrwt beam="2">  1        1 0.23006613E+00 0.21823215E+03</pdfrwt>
<totfact> 0.40279974E+01</totfact>
</mgrwt>
</event>
<event>
 7    1  0.3113530E-004  0.4009741E+02  0.7546771E-02  0.1514650E+00
          2   -1    0    0  503    0  0.00000000000E+00  0.00000000000E+00  0.92452897876E+03  0.92452897876E+03  0.00000000000E+00 0. -1.
         -2   -1    0    0    0  501 -0.00000000000E+00 -0.00000000000E+00 -0.14275732967E+02  0.14275732967E+02  0.00000000000E+00 0.  1.
         25    2    1    2    0    0 -0.16279663883E+02 -0.14700875015E+02  0.39410997420E+03  0.41403715733E+03  0.12499181052E+03 0.  0.
          4    1    3    3  502    0  0.25715895792E+02 -0.47385524983E+02  0.30886161077E+03  0.31353437256E+03  0.12700000000E+01 0.  1.
         -4    1    3    3    0  502 -0.41995559675E+02  0.32684649968E+02  0.85248363437E+02  0.10050278476E+03  0.12700000000E+01 0.  1.
          2    1    1    2  503    0  0.88980115155E+01 -0.39097670071E+02  0.19732084760E+03  0.20135371690E+03  0.00000000000E+00 0.  1.
         -2    1    1    2    0  501  0.73816523677E+01  0.53798545087E+02  0.31882242399E+03  0.32341383750E+03  0.00000000000E+00 0. -1.
<mgrwt>
<rscale>  0 0.39138309E+02</rscale>
<asrwt>0</asrwt>
<pdfrwt beam="1">  1        2 0.14223518E+00 0.40097412E+02</pdfrwt>
<pdfrwt beam="2">  1       -2 0.21962673E-02 0.38202148E+02</pdfrwt>
<totfact> 0.16669705E+04</totfact>
</mgrwt>
</event>
<event>
 7    1  0.3113530E-004  0.7052683E+02  0.7546771E-02  0.1419121E+00
          1   -1    0    0  502    0  0.00000000000E+00  0.00000000000E+00  0.31275419178E+03  0.31275419178E+03  0.00000000000E+00 0. -1.
          1   -1    0    0  503    0 -0.00000000000E+00 -0.00000000000E+00 -0.24835748615E+03  0.24835748615E+03  0.00000000000E+00 0. -1.
         25    2    1    2    0    0 -0.49875062688E+02 -0.13023974173E+02  0.77402594778E+02  0.15579343582E+03  0.12499314855E+03 0.  0.
          4    1    3    3  501    0 -0.20535535684E+02 -0.13802267075E+02  0.10950808405E+03  0.11227575061E+03  0.12700000000E+01 0.  1.
         -4    1    3    3    0  501 -0.29339527005E+02  0.77829290233E+00 -0.32105489274E+02  0.43517685212E+02  0.12700000000E+01 0.  1.
          1    1    1    2  502    0  0.50413418765E+02  0.56236125037E+02  0.18648608508E+03  0.20119909164E+03  0.00000000000E+00 0. -1.
          1    1    1    2  503    0 -0.53835607631E+00 -0.43212150863E+02 -0.19949197422E+03  0.20411915047E+03  0.00000000000E+00 0. -1.
<mgrwt>
<rscale>  0 0.55207358E+02</rscale>
<asrwt>0</asrwt>
<pdfrwt beam="1">  1        1 0.48116030E-01 0.70526826E+02</pdfrwt>
<pdfrwt beam="2">  1        1 0.38208844E-01 0.43215504E+02</pdfrwt>
<totfact> 0.10910463E+03</totfact>
</mgrwt>
</event>
<event>
 7    1  0.3113530E-004  0.4515623E+02  0.7546771E-02  0.1482938E+00
          1   -1    0    0  503    0 -0.00000000000E+00  0.00000000000E+00  0.41086533809E+03  0.41086533809E+03  0.00000000000E+00 0. -1.
          2   -1    0    0  502    0  0.00000000000E+00 -0.00000000000E+00 -0.44517240965E+03  0.44517240965E+03  0.00000000000E+00 0. -1.
         25    2    1    2    0    0 -0.75873631147E+01  0.44717739561E+02 -0.73802872351E+01  0.13318311628E+03  0.12500411798E+03 0.  0.
          4    1    3    3  501    0  0.38440953586E+01  0.45517004668E+02 -0.62190086873E+02  0.77173794700E+02  0.12700000000E+01 0. -1.
         -4    1    3    3    0  501 -0.11431458473E+02 -0.79926510622E+00  0.54809799638E+02  0.56009321580E+02  0.12700000000E+01 0. -1.
          2    1    1    2  502    0  0.40182486554E+02 -0.12884092622E+02 -0.37220198033E+03  0.37458636685E+03  0.00000000000E+00 0. -1.
          1    1    1    2  503    0 -0.32595123439E+02 -0.31833646939E+02  0.34527519601E+03  0.34826826461E+03  0.00000000000E+00 0. -1.
<mgrwt>
<rscale>  0 0.43651821E+02</rscale>
<asrwt>0</asrwt>
<pdfrwt beam="2">  1        2 0.68488063E-01 0.42197536E+02</pdfrwt>
<pdfrwt beam="1">  1        1 0.63210052E-01 0.45156225E+02</pdfrwt>
<totfact> 0.58940242E+02</totfact>
</mgrwt>
</event>
<event>
 7    1  0.3113530E-004  0.1346464E+03  0.7546771E-02  0.1397307E+00
          1   -1    0    0  503    0  0.00000000000E+00  0.00000000000E+00  0.58525161382E+03  0.58525161382E+03  0.00000000000E+00 0. -1.
         -1   -1    0    0    0  501 -0.00000000000E+00 -0.00000000000E+00 -0.32842831338E+03  0.32842831338E+03  0.00000000000E+00 0.  1.
         25    2    1    2    0    0  0.10604486305E+03  0.68104105952E+02  0.77785216228E+02  0.19380453026E+03  0.12500389537E+03 0.  0.
          4    1    3    3  502    0  0.77648798033E+02  0.89314922791E+02  0.97395830236E+02  0.15327769543E+03  0.12700000000E+01 0. -1.
         -4    1    3    3    0  502  0.28396065012E+02 -0.21210816839E+02 -0.19610614008E+02  0.40526834825E+02  0.12700000000E+01 0. -1.
          1    1    1    2  503    0  0.20237616340E+02 -0.17642906265E+02  0.43191632797E+03  0.43274998281E+03  0.00000000000E+00 0. -1.
         -1    1    1    2    0  501 -0.12628247939E+03 -0.50461199687E+02 -0.25287824376E+03  0.28712541413E+03  0.00000000000E+00 0.  1.
<mgrwt>
<rscale>  0 0.60125145E+02</rscale>
<asrwt>0</asrwt>
<pdfrwt beam="1">  1        1 0.90038710E-01 0.26848338E+02</pdfrwt>
<pdfrwt beam="2">  1       -1 0.50527433E-01 0.13464644E+03</pdfrwt>
<totfact> 0.16057475E+02</totfact>
</mgrwt>
</event>
<event>
 7    1  0.3113530E-004  0.4664867E+02  0.7546771E-02  0.1532509E+00
         -1   -1    0    0    0  501 -0.00000000000E+00  0.00000000000E+00  0.10247320818E+02  0.10247320818E+02  0.00000000000E+00 0.  1.
          1   -1    0    0  503    0  0.00000000000E+00 -0.00000000000E+00 -0.15737812358E+04  0.15737812358E+04  0.00000000000E+00 0. -1.
         25    2    1    2    0    0 -0.11788222720E+02 -0.59474935159E+02 -0.71673526999E+03  0.73007002685E+03  0.12496626246E+03 0.  0.
          4    1    3    3  502    0  0.25311941219E+02 -0.88300046441E+02 -0.48176148906E+03  0.49044198211E+03  0.12700000000E+01 0.  1.
         -4    1    3    3    0  502 -0.37100163939E+02  0.28825111282E+02 -0.23497378092E+03  0.23962804474E+03  0.12700000000E+01 0.  1.
          1    1    1    2  503    0 -0.12919265147E+02  0.43992364554E+02 -0.77650536505E+03  0.77785783888E+03  0.00000000000E+00 0. -1.
         -1    1    1    2    0  501  0.24707487867E+02  0.15482570604E+02 -0.70293279970E+02  0.76100690918E+02  0.00000000000E+00 0.  1.
<mgrwt>
<rscale>  0 0.36880437E+02</rscale>
<asrwt>0</asrwt>
<pdfrwt beam="2">  1        1 0.24212032E+00 0.46648667E+02</pdfrwt>
<pdfrwt beam="1">  1       -1 0.15765100E-02 0.29157674E+02</pdfrwt>
<totfact> 0.53279097E+03</totfact>
</mgrwt>
</event>
<event>
 7    1  0.3113530E-004  0.1023987E+03  0.7546771E-02  0.1350883E+00
          2   -1    0    0  502    0  0.00000000000E+00  0.00000000000E+00  0.11539032733E+04  0.11539032733E+04  0.00000000000E+00 0. -1.
          2   -1    0    0  503    0 -0.00000000000E+00 -0.00000000000E+00 -0.16941174172E+04  0.16941174172E+04  0.00000000000E+00 0. -1.
         25    2    1    2    0    0 -0.12674402055E+03  0.23480754524E+02 -0.41755111551E+02  0.18434534187E+03  0.12499729257E+03 0.  0.
          4    1    3    3  501    0  0.11144535634E+02  0.76278058394E+01  0.26423771535E+02  0.29702065561E+02  0.12700000000E+01 0.  1.
         -4    1    3    3    0  501 -0.13788855618E+03  0.15852948685E+02 -0.68178883087E+02  0.15464327631E+03  0.12700000000E+01 0.  1.
          2    1    1    2  502    0  0.99903151038E+02  0.20741033856E+02  0.10797793318E+04  0.10845894318E+04  0.00000000000E+00 0. -1.
          2    1    1    2  503    0  0.26840869511E+02 -0.44221788381E+02 -0.15782383641E+04  0.15790859169E+04  0.00000000000E+00 0. -1.
<mgrwt>
<rscale>  0 0.72781116E+02</rscale>
<asrwt>0</asrwt>
<pdfrwt beam="1">  1        2 0.17752358E+00 0.10239871E+03</pdfrwt>
<pdfrwt beam="2">  1        2 0.26063345E+00 0.51730057E+02</pdfrwt>
<totfact> 0.44114206E+01</totfact>
</mgrwt>
</event>
<event>
 7    1  0.3113530E-004  0.4786582E+02  0.7546771E-02  0.1482054E+00
          2   -1    0    0  502    0  0.00000000000E+00  0.00000000000E+00  0.34913599648E+04  0.34913599648E+04  0.00000000000E+00 0. -1.
          2   -1    0    0  503    0 -0.00000000000E+00 -0.00000000000E+00 -0.14480995295E+02  0.14480995295E+02  0.00000000000E+00 0.  1.
         25    2    1    2    0    0  0.63039325096E+02 -0.45628421286E+02  0.61908164664E+03  0.63635368178E+03  0.12501205451E+03 0.  0.
          4    1    3    3  501    0  0.62131417635E+02 -0.83375294814E+02  0.52039499400E+03  0.53068287661E+03  0.12700000000E+01 0. -1.
         -4    1    3    3    0  501  0.90790746142E+00  0.37746873528E+02  0.98686652640E+02  0.10567080518E+03  0.12700000000E+01 0. -1.
          2    1    1    2  502    0 -0.39205032907E+02  0.82190140312E+01  0.27772105920E+04  0.27774994616E+04  0.00000000000E+00 0. -1.
          2    1    1    2  503    0 -0.23834292189E+02  0.37409407255E+02  0.80586730897E+02  0.91987816758E+02  0.00000000000E+00 0.  1.
<mgrwt>
<rscale>  0 0.43787841E+02</rscale>
<asrwt>0</asrwt>
<pdfrwt beam="1">  1        2 0.53713163E+00 0.40057294E+02</pdfrwt>
<pdfrwt beam="2">  1        2 0.22278482E-02 0.47865816E+02</pdfrwt>
<totfact> 0.87079285E+02</totfact>
</mgrwt>
</event>
<event>
 7    1  0.3113530E-004  0.4174175E+02  0.7546771E-02  0.1496040E+00
          2   -1    0    0  503    0  0.00000000000E+00  0.00000000000E+00  0.45327825026E+03  0.45327825026E+03  0.00000000000E+00 0. -1.
         -2   -1    0    0    0  501 -0.00000000000E+00 -0.00000000000E+00 -0.33832711337E+02  0.33832711337E+02  0.00000000000E+00 0.  1.
         25    2    1    2    0    0  0.55094867853E+02  0.54837291846E+01  0.27997537334E+03  0.31156883008E+03  0.12499364164E+03 0.  0.
          4    1    3    3  502    0 -0.27619243191E+01 -0.14179124075E+02 -0.84195993765E+01  0.16768373181E+02  0.12700000000E+01 0. -1.
         -4    1    3    3    0  502  0.57856792172E+02  0.19662853259E+02  0.28839497272E+03  0.29480045690E+03  0.12700000000E+01 0. -1.
          2    1    1    2  503    0 -0.30367433242E+02  0.28525979714E+02  0.12387569028E+03  0.13069467917E+03  0.00000000000E+00 0. -1.
         -2    1    1    2    0  501 -0.24727434612E+02 -0.34009708899E+02  0.15594475293E+02  0.44847452341E+02  0.00000000000E+00 0.  1.
<mgrwt>
<rscale>  0 0.41702999E+02</rscale>
<asrwt>0</asrwt>
<pdfrwt beam="1">  1        2 0.69735111E-01 0.41664284E+02</pdfrwt>
<pdfrwt beam="2">  1       -2 0.52050329E-02 0.41741751E+02</pdfrwt>
<totfact> 0.10878820E+04</totfact>
</mgrwt>
</event>
<event>
 7    1  0.3113530E-004  0.1180994E+03  0.7546771E-02  0.1373942E+00
         -2   -1    0    0    0  501 -0.00000000000E+00  0.00000000000E+00  0.15149392160E+03  0.15149392160E+03  0.00000000000E+00 0.  1.
          2   -1    0    0  503    0  0.00000000000E+00 -0.00000000000E+00 -0.42090913297E+03  0.42090913297E+03  0.00000000000E+00 0. -1.
         25    2    1    2    0    0 -0.15904206248E+02 -0.89630470636E+02 -0.77709547329E+02  0.17306127556E+03  0.12499946524E+03 0.  0.
          4    1    3    3  502    0  0.54819808971E+02 -0.34990818202E+02 -0.37142129090E+02  0.74904735948E+02  0.12700000000E+01 0. -1.
         -4    1    3    3    0  502 -0.70724015219E+02 -0.54639652434E+02 -0.40567418239E+02  0.98156539616E+02  0.12700000000E+01 0. -1.
          2    1    1    2  503    0  0.35907919683E+02  0.12073014934E+03 -0.27813941118E+03  0.30533044347E+03  0.00000000000E+00 0. -1.
         -2    1    1    2    0  501 -0.20003713435E+02 -0.31099678702E+02  0.86433747133E+02  0.94011335540E+02  0.00000000000E+00 0.  1.
<mgrwt>
<rscale>  0 0.66083460E+02</rscale>
<asrwt>0</asrwt>
<pdfrwt beam="2">  1        2 0.64755250E-01 0.11809935E+03</pdfrwt>
<pdfrwt beam="1">  1       -2 0.23306757E-01 0.36977541E+02</pdfrwt>
<totfact> 0.11468592E+03</totfact>
</mgrwt>
</event>
<event>
 7    1  0.3113530E-004  0.6879630E+02  0.7546771E-02  0.1413830E+00
          2   -1    0    0  503    0  0.00000000000E+00  0.00000000000E+00  0.20513531114E+04  0.20513531114E+04  0.00000000000E+00 0. -1.
         -2   -1    0    0    0  501 -0.00000000000E+00 -0.00000000000E+00 -0.14622632347E+02  0.14622632347E+02  0.00000000000E+00 0. -1.
         25    2    1    2    0    0 -0.84122798916E+01  0.30091762184E+02  0.72582665591E+03  0.73717524808E+03  0.12500692522E+03 0.  0.
          4    1    3    3  502    0  0.27633953179E+02  0.53678536351E+02  0.61965247331E+03  0.62258800278E+03  0.12700000000E+01 0.  1.
         -4    1    3    3    0  502 -0.36046233070E+02 -0.23586774168E+02  0.10617418260E+03  0.11458724530E+03  0.12700000000E+01 0.  1.
          2    1    1    2  503    0  0.32782344522E+02 -0.69284888483E+02  0.12501860908E+04  0.12525335682E+04  0.00000000000E+00 0. -1.
         -2    1    1    2    0  501 -0.24370064630E+02  0.39193126300E+02  0.60717732283E+02  0.76266927385E+02  0.00000000000E+00 0. -1.
<mgrwt>
<rscale>  0 0.56347868E+02</rscale>
<asrwt>0</asrwt>
<pdfrwt beam="1">  1        2 0.31559256E+00 0.68796295E+02</pdfrwt>
<pdfrwt beam="2">  1       -2 0.22496374E-02 0.46151936E+02</pdfrwt>
<totfact> 0.42155263E+03</totfact>
</mgrwt>
</event>
<event>
 7    1  0.3113530E-004  0.4797225E+02  0.7546771E-02  0.1530217E+00
         -2   -1    0    0    0  501 -0.00000000000E+00  0.00000000000E+00  0.74956412535E+02  0.74956412535E+02  0.00000000000E+00 0.  1.
          1   -1    0    0  503    0  0.00000000000E+00 -0.00000000000E+00 -0.76968706883E+03  0.76968706883E+03  0.00000000000E+00 0. -1.
         25    2    1    2    0    0 -0.69109953926E+02 -0.15201476612E+02 -0.58847408671E+02  0.15523476235E+03  0.12501017284E+03 0.  0.
          4    1    3    3  502    0 -0.19943299032E+02 -0.26181801725E+02  0.35404742042E+02  0.48356287874E+02  0.12700000000E+01 0.  1.
         -4    1    3    3    0  502 -0.49166654893E+02  0.10980325113E+02 -0.94252150713E+02  0.10687847448E+03  0.12700000000E+01 0.  1.
          1    1    1    2  503    0  0.28659551232E+02 -0.26777443311E+01 -0.64383146770E+03  0.64447459142E+03  0.00000000000E+00 0. -1.
         -2    1    1    2    0  501  0.40450402694E+02  0.17879220943E+02  0.79482200754E+01  0.44934127587E+02  0.00000000000E+00 0.  1.
<mgrwt>
<rscale>  0 0.37159805E+02</rscale>
<asrwt>0</asrwt>
<pdfrwt beam="2">  1        1 0.11841339E+00 0.28784374E+02</pdfrwt>
<pdfrwt beam="1">  1       -2 0.11531756E-01 0.47972248E+02</pdfrwt>
<totfact> 0.11383423E+03</totfact>
</mgrwt>
</event>
<event>
 7    1  0.3113530E-004  0.1502104E+03  0.7546771E-02  0.1276368E+00
         -1   -1    0    0    0  501 -0.00000000000E+00  0.00000000000E+00  0.75912799433E+03  0.75912799433E+03  0.00000000000E+00 0.  1.
          1   -1    0    0  503    0  0.00000000000E+00 -0.00000000000E+00 -0.63327359198E+03  0.63327359198E+03  0.00000000000E+00 0. -1.
         25    2    1    2    0    0  0.13207680484E+03 -0.38861654009E+02  0.66460368744E+02  0.19747218042E+03  0.12499508349E+03 0.  0.
          4    1    3    3  502    0  0.81219814869E+02 -0.40298425425E+02 -0.23892880248E+02  0.93771552433E+02  0.12700000000E+01 0. -1.
         -4    1    3    3    0  502  0.50856989970E+02  0.14367714162E+01  0.90353248992E+02  0.10370062798E+03  0.12700000000E+01 0. -1.
          1    1    1    2  503    0 -0.11068011217E+03  0.10458181398E+03 -0.55558702029E+03  0.57607671378E+03  0.00000000000E+00 0. -1.
         -1    1    1    2    0  501 -0.21396692671E+02 -0.65720159975E+02  0.61498105390E+03  0.61885269212E+03  0.00000000000E+00 0.  1.
<mgrwt>
<rscale>  0 0.10189148E+03</rscale>
<asrwt>0</asrwt>
<pdfrwt beam="2">  1        1 0.97426707E-01 0.15021040E+03</pdfrwt>
<pdfrwt beam="1">  1       -1 0.11678892E+00 0.69115540E+02</pdfrwt>
<totfact> 0.25550568E+01</totfact>
</mgrwt>
</event>
<event>
 7    1  0.3113530E-004  0.1076393E+03  0.7546771E-02  0.1369654E+00
          2   -1    0    0  503    0  0.00000000000E+00  0.00000000000E+00  0.81083465465E+03  0.81083465465E+03  0.00000000000E+00 0. -1.
         -1   -1    0    0    0  501 -0.00000000000E+00 -0.00000000000E+00 -0.11596963900E+03  0.11596963900E+03  0.00000000000E+00 0.  1.
         25    2    1    2    0    0  0.31613188881E+02  0.11186024704E+03  0.88434078768E+02  0.19224164045E+03  0.12499661378E+03 0.  0.
          4    1    3    3  502    0 -0.10752910615E+02  0.19305235171E+02  0.87690046581E+02  0.90440446489E+02  0.12700000000E+01 0.  1.
         -4    1    3    3    0  502  0.42366099495E+02  0.92555011868E+02  0.74403218663E+00  0.10180119396E+03  0.12700000000E+01 0.  1.
          2    1    1    2  503    0  0.10142598468E+02 -0.10704433667E+03  0.65874042621E+03  0.66745809714E+03  0.00000000000E+00 0. -1.
         -1    1    1    2    0  501 -0.41755787349E+02 -0.48159103723E+01 -0.52309489325E+02  0.67104556055E+02  0.00000000000E+00 0.  1.
<mgrwt>
<rscale>  0 0.67263358E+02</rscale>
<asrwt>0</asrwt>
<pdfrwt beam="1">  1        2 0.12474379E+00 0.10763931E+03</pdfrwt>
<pdfrwt beam="2">  1       -1 0.17841483E-01 0.42032592E+02</pdfrwt>
<totfact> 0.92786168E+02</totfact>
</mgrwt>
</event>
<event>
 7    1  0.3113530E-004  0.5539331E+02  0.7546771E-02  0.1449246E+00
         -2   -1    0    0    0  501 -0.00000000000E+00  0.00000000000E+00  0.38363973775E+02  0.38363973775E+02  0.00000000000E+00 0.  1.
          2   -1    0    0  503    0  0.00000000000E+00 -0.00000000000E+00 -0.29554236621E+04  0.29554236621E+04  0.00000000000E+00 0. -1.
         25    2    1    2    0    0 -0.32326994874E+02 -0.90566752818E+02 -0.43729255323E+03  0.46486256636E+03  0.12500022870E+03 0.  0.
          4    1    3    3  502    0  0.45784818120E+02 -0.18958869468E+02 -0.10569146935E+03  0.11673897333E+03  0.12700000000E+01 0.  1.
         -4    1    3    3    0  502 -0.78111812995E+02 -0.71607883350E+02 -0.33160108388E+03  0.34812359303E+03  0.12700000000E+01 0.  1.
          2    1    1    2  503    0  0.99729887390E+01  0.42697915023E+02 -0.24755365491E+04  0.24759248329E+04  0.00000000000E+00 0. -1.
         -2    1    1    2    0  501  0.22354006135E+02  0.47868837795E+02 -0.42305860229E+01  0.53000236605E+02  0.00000000000E+00 0.  1.
<mgrwt>
<rscale>  0 0.49283249E+02</rscale>
<asrwt>0</asrwt>
<pdfrwt beam="2">  1        2 0.45468051E+00 0.43847149E+02</pdfrwt>
<pdfrwt beam="1">  1       -2 0.59021505E-02 0.55393308E+02</pdfrwt>
<totfact> 0.39232941E+02</totfact>
</mgrwt>
</event>
<event>
 7    1  0.3113530E-004  0.7410890E+02  0.7546771E-02  0.1442899E+00
         -1   -1    0    0    0  501 -0.00000000000E+00  0.00000000000E+00  0.43730950195E+02  0.43730950195E+02  0.00000000000E+00 0.  1.
          2   -1    0    0  503    0  0.00000000000E+00 -0.00000000000E+00 -0.40465933925E+03  0.40465933925E+03  0.00000000000E+00 0. -1.
         25    2    1    2    0    0  0.37405228393E+02 -0.74092286138E+02 -0.16782900187E+03  0.22512218249E+03  0.12499842080E+03 0.  0.
          4    1    3    3  502    0  0.12295445558E+02 -0.52514589473E+02 -0.18144948892E+03  0.18930000004E+03  0.12700000000E+01 0.  1.
         -4    1    3    3    0  502  0.25109782836E+02 -0.21577696665E+02  0.13620487049E+02  0.35822182441E+02  0.12700000000E+01 0.  1.
          2    1    1    2  503    0  0.16397914851E+02  0.30185406919E+02 -0.28557797752E+02  0.44672118987E+02  0.00000000000E+00 0. -1.
         -1    1    1    2    0  501 -0.53803143244E+02  0.43906879219E+02 -0.16454158944E+03  0.17859598797E+03  0.00000000000E+00 0.  1.
<mgrwt>
<rscale>  0 0.50455711E+02</rscale>
<asrwt>0</asrwt>
<pdfrwt beam="2">  1        2 0.62255284E-01 0.34351862E+02</pdfrwt>
<pdfrwt beam="1">  1       -1 0.67278384E-02 0.74108902E+02</pdfrwt>
<totfact> 0.91531289E+03</totfact>
</mgrwt>
</event>
<event>
 7    1  0.3113530E-004  0.2069972E+03  0.7546771E-02  0.1163875E+00
          2   -1    0    0  502    0  0.00000000000E+00  0.00000000000E+00  0.80538014970E+03  0.80538014970E+03  0.00000000000E+00 0.  1.
          1   -1    0    0  503    0 -0.00000000000E+00 -0.00000000000E+00 -0.18733308500E+04  0.18733308500E+04  0.00000000000E+00 0.  1.
         25    2    1    2    0    0  0.28536259646E+01  0.36756603512E+03 -0.65135410515E+03  0.75828471538E+03  0.12498242249E+03 0.  0.
          4    1    3    3  501    0 -0.22013409818E+01  0.35159803352E+03 -0.53160272624E+03  0.63736103939E+03  0.12700000000E+01 0.  1.
         -4    1    3    3    0  501  0.50549669464E+01  0.15968001597E+02 -0.11975137891E+03  0.12092367600E+03  0.12700000000E+01 0.  1.
          2    1    1    2  502    0  0.21431540503E+00 -0.20382579242E+03  0.73218695175E+03  0.76002811258E+03  0.00000000000E+00 0.  1.
          1    1    1    2  503    0 -0.30679413696E+01 -0.16374024270E+03 -0.11487835469E+04  0.11603981718E+04  0.00000000000E+00 0.  1.
<mgrwt>
<rscale>  0 0.18411876E+03</rscale>
<asrwt>0</asrwt>
<pdfrwt beam="1">  1        2 0.12390464E+00 0.20699718E+03</pdfrwt>
<pdfrwt beam="2">  1        1 0.28820474E+00 0.16376898E+03</pdfrwt>
<totfact> 0.21043262E+01</totfact>
</mgrwt>
</event>
<event>
 7    1  0.3113530E-004  0.4598274E+02  0.7546771E-02  0.1494451E+00
         -2   -1    0    0    0  501 -0.00000000000E+00  0.00000000000E+00  0.18914765885E+03  0.18914765885E+03  0.00000000000E+00 0.  1.
          1   -1    0    0  503    0  0.00000000000E+00 -0.00000000000E+00 -0.12462282694E+04  0.12462282694E+04  0.00000000000E+00 0. -1.
         25    2    1    2    0    0  0.22040091127E+01  0.77081875318E+02 -0.39099027219E+03  0.41766463562E+03  0.12499552690E+03 0.  0.
          4    1    3    3  502    0 -0.45446823987E+02  0.57808009297E+02 -0.32902925258E+03  0.33714839715E+03  0.12700000000E+01 0.  1.
         -4    1    3    3    0  502  0.47650833100E+02  0.19273866021E+02 -0.61961019610E+02  0.80516238472E+02  0.12700000000E+01 0.  1.
          1    1    1    2  503    0  0.14116814481E+02 -0.42499935633E+02 -0.83921737375E+03  0.84041140484E+03  0.00000000000E+00 0. -1.
         -2    1    1    2    0  501 -0.16320823594E+02 -0.34581939686E+02  0.17312703537E+03  0.17729988780E+03  0.00000000000E+00 0.  1.
<mgrwt>
<rscale>  0 0.41932915E+02</rscale>
<asrwt>0</asrwt>
<pdfrwt beam="2">  1        1 0.19172743E+00 0.45982742E+02</pdfrwt>
<pdfrwt beam="1">  1       -2 0.29099640E-01 0.38239768E+02</pdfrwt>
<totfact> 0.11229608E+02</totfact>
</mgrwt>
</event>
<event>
 7    1  0.3950477E-004  0.7945293E+02  0.7546771E-02  0.1401463E+00
         -1   -1    0    0    0  501 -0.00000000000E+00  0.00000000000E+00  0.24158146867E+02  0.24158146867E+02  0.00000000000E+00 0.  1.
          2   -1    0    0  503    0  0.00000000000E+00 -0.00000000000E+00 -0.10874427422E+04  0.10874427422E+04  0.00000000000E+00 0. -1.
         25    2    1    2    0    0  0.11636917445E+00  0.10591573766E+03 -0.80273271654E+03  0.81928271535E+03  0.12500478569E+03 0.  0.
          4    1    3    3  502    0 -0.39954948234E+01  0.55330092362E+02 -0.72055002632E+03  0.72268342753E+03  0.12700000000E+01 0.  1.
         -4    1    3    3    0  502  0.41118639978E+01  0.50585645295E+02 -0.82182690220E+02  0.96599287820E+02  0.12700000000E+01 0.  1.
          2    1    1    2  503    0  0.13504820121E+02 -0.64050858745E+02 -0.22895328948E+03  0.23812706994E+03  0.00000000000E+00 0. -1.
         -1    1    1    2    0  501 -0.13621189295E+02 -0.41864878913E+02 -0.31598589355E+02  0.54191103822E+02  0.00000000000E+00 0.  1.
<mgrwt>
<rscale>  0 0.59143210E+02</rscale>
<asrwt>0</asrwt>
<pdfrwt beam="2">  1        2 0.16729891E+00 0.79452934E+02</pdfrwt>
<pdfrwt beam="1">  1       -1 0.37166373E-02 0.44025048E+02</pdfrwt>
<totfact> 0.64024721E+03</totfact>
</mgrwt>
</event>
<event>
 7    1  0.3113530E-004  0.5517111E+02  0.7546771E-02  0.1451278E+00
         -2   -1    0    0    0  501 -0.00000000000E+00  0.00000000000E+00  0.12449021246E+03  0.12449021246E+03  0.00000000000E+00 0.  1.
          1   -1    0    0  503    0  0.00000000000E+00 -0.00000000000E+00 -0.13269718850E+03  0.13269718850E+03  0.00000000000E+00 0. -1.
         25    2    1    2    0    0  0.53732840019E+02 -0.36608037676E+02 -0.47293328368E+02  0.14862850946E+03  0.12500563346E+03 0.  0.
          4    1    3    3  502    0  0.37530792809E+02 -0.28256985957E+02 -0.90357447080E+02  0.10184841092E+03  0.12700000000E+01 0. -1.
         -4    1    3    3    0  502  0.16202047211E+02 -0.83510517193E+01  0.43064118713E+02  0.46780098537E+02  0.12700000000E+01 0. -1.
          1    1    1    2  503    0 -0.54556961148E+02 -0.67540118160E+01  0.88302786200E+01  0.55678115143E+02  0.00000000000E+00 0. -1.
         -2    1    1    2    0  501  0.82412112886E+00  0.43362049492E+02  0.30256073707E+02  0.52880776355E+02  0.00000000000E+00 0.  1.
<mgrwt>
<rscale>  0 0.48915892E+02</rscale>
<asrwt>0</asrwt>
<pdfrwt beam="2">  1        1 0.20414952E-01 0.55171112E+02</pdfrwt>
<pdfrwt beam="1">  1       -2 0.19152340E-01 0.43369880E+02</pdfrwt>
<totfact> 0.43435293E+03</totfact>
</mgrwt>
</event>
<event>
 7    1  0.3113530E-004  0.1038493E+03  0.7546771E-02  0.1316890E+00
         -3   -1    0    0    0  501 -0.00000000000E+00  0.00000000000E+00  0.11763099800E+04  0.11763099800E+04  0.00000000000E+00 0.  1.
          2   -1    0    0  503    0  0.00000000000E+00 -0.00000000000E+00 -0.41539266321E+03  0.41539266321E+03  0.00000000000E+00 0. -1.
         25    2    1    2    0    0 -0.56532521562E+02 -0.35742004025E+02 -0.14962507440E+03  0.20612347183E+03  0.12500322357E+03 0.  0.
          4    1    3    3  502    0  0.31073681901E+02  0.18768329877E+02 -0.23930900918E+02  0.43498561264E+02  0.12700000000E+01 0. -1.
         -4    1    3    3    0  502 -0.87606203463E+02 -0.54510333902E+02 -0.12569417349E+03  0.16262491056E+03  0.12700000000E+01 0. -1.
          2    1    1    2  503    0  0.25010682862E+02 -0.63949650841E+02 -0.23011406425E+03  0.24014073929E+03  0.00000000000E+00 0. -1.
         -3    1    1    2    0  501  0.31521838700E+02  0.99691654866E+02  0.11406564555E+04  0.11454384321E+04  0.00000000000E+00 0.  1.
<mgrwt>
<rscale>  0 0.84445075E+02</rscale>
<asrwt>0</asrwt>
<pdfrwt beam="2">  1        2 0.63906564E-01 0.68666528E+02</pdfrwt>
<pdfrwt beam="1">  1       -3 0.18097076E+00 0.10384930E+03</pdfrwt>
<totfact> 0.10202949E+01</totfact>
</mgrwt>
</event>
<event>
 7    1  0.3113530E-004  0.8639675E+02  0.7546771E-02  0.1329416E+00
          2   -1    0    0  502    0  0.00000000000E+00  0.00000000000E+00  0.42443964395E+03  0.42443964395E+03  0.00000000000E+00 0. -1.
          1   -1    0    0  503    0 -0.00000000000E+00 -0.00000000000E+00 -0.25177765216E+04  0.25177765216E+04  0.00000000000E+00 0. -1.
         25    2    1    2    0    0 -0.13559508084E+03  0.79804193602E+02 -0.11636545140E+03  0.23220476420E+03  0.12499359573E+03 0.  0.
          4    1    3    3  501    0 -0.15302767563E+03  0.89433587203E+02 -0.89009321880E+02  0.19834341005E+03  0.12700000000E+01 0. -1.
         -4    1    3    3    0  501  0.17432594795E+02 -0.96293936009E+01 -0.27356129516E+02  0.33861354145E+02  0.12700000000E+01 0. -1.
          2    1    1    2  502    0  0.68034261459E+02 -0.50007624407E+02  0.36106647210E+03  0.37080779456E+03  0.00000000000E+00 0. -1.
          1    1    1    2  503    0  0.67560819378E+02 -0.29796569195E+02 -0.23380378984E+04  0.23392036068E+04  0.00000000000E+00 0. -1.
<mgrwt>
<rscale>  0 0.79871828E+02</rscale>
<asrwt>0</asrwt>
<pdfrwt beam="1">  1        2 0.65298407E-01 0.86396746E+02</pdfrwt>
<pdfrwt beam="2">  1        1 0.38735023E+00 0.73839690E+02</pdfrwt>
<totfact> 0.19231446E+01</totfact>
</mgrwt>
</event>
<event>
 7    1  0.3113530E-004  0.6160357E+02  0.7546771E-02  0.1546488E+00
          2   -1    0    0  502    0  0.00000000000E+00  0.00000000000E+00  0.94497722152E+03  0.94497722152E+03  0.00000000000E+00 0. -1.
          2   -1    0    0  503    0 -0.00000000000E+00 -0.00000000000E+00 -0.21011953493E+04  0.21011953493E+04  0.00000000000E+00 0. -1.
         25    2    1    2    0    0  0.45391169516E+01 -0.78556624049E+02 -0.66626943831E+02  0.16203866849E+03  0.12500253468E+03 0.  0.
          4    1    3    3  501    0 -0.18610057449E+02 -0.67299927413E+02  0.19197867578E+02  0.72427794994E+02  0.12700000000E+01 0.  1.
         -4    1    3    3    0  501  0.23149174400E+02 -0.11256696635E+02 -0.85824811409E+02  0.89610873492E+02  0.12700000000E+01 0.  1.
          2    1    1    2  502    0 -0.10216057977E+02  0.17377281041E+02  0.89668304461E+03  0.89690959423E+03  0.00000000000E+00 0. -1.
          2    1    1    2  503    0  0.56769410254E+01  0.61179343008E+02 -0.19862742286E+04  0.19872243081E+04  0.00000000000E+00 0. -1.
<mgrwt>
<rscale>  0 0.35239093E+02</rscale>
<asrwt>0</asrwt>
<pdfrwt beam="1">  1        2 0.14538111E+00 0.20157821E+02</pdfrwt>
<pdfrwt beam="2">  1        2 0.32326082E+00 0.61603567E+02</pdfrwt>
<totfact> 0.39092500E+01</totfact>
</mgrwt>
</event>
<event>
 7    1  0.3113530E-004  0.1414075E+03  0.7546771E-02  0.1327518E+00
          2   -1    0    0  502    0  0.00000000000E+00  0.00000000000E+00  0.63706700140E+03  0.63706700140E+03  0.00000000000E+00 0. -1.
          2   -1    0    0  503    0 -0.00000000000E+00 -0.00000000000E+00 -0.49102198555E+03  0.49102198555E+03  0.00000000000E+00 0. -1.
         25    2    1    2    0    0 -0.53430431166E+02  0.10150904745E+03  0.17849964124E+02  0.17059854303E+03  0.12500537579E+03 0.  0.
          4    1    3    3  501    0 -0.92628920592E+02  0.87876649787E+02  0.80732045118E+01  0.12794222149E+03  0.12700000000E+01 0. -1.
         -4    1    3    3    0  501  0.39198489426E+02  0.13632397659E+02  0.97767596117E+01  0.42656321545E+02  0.12700000000E+01 0. -1.
          2    1    1    2  502    0  0.31528216821E+02 -0.14181837611E+03  0.53179966465E+03  0.55128700654E+03  0.00000000000E+00 0. -1.
          2    1    1    2  503    0  0.21902214345E+02  0.40309328663E+02 -0.40360461292E+03  0.40620343738E+03  0.00000000000E+00 0. -1.
<mgrwt>
<rscale>  0 0.80542671E+02</rscale>
<asrwt>0</asrwt>
<pdfrwt beam="1">  1        2 0.98010308E-01 0.14140753E+03</pdfrwt>
<pdfrwt beam="2">  1        2 0.75541844E-01 0.45875363E+02</pdfrwt>
<totfact> 0.48313678E+02</totfact>
</mgrwt>
</event>
<event>
 7    1  0.3113530E-004  0.8871361E+02  0.7546771E-02  0.1459586E+00
          2   -1    0    0  503    0  0.00000000000E+00  0.00000000000E+00  0.88721088886E+03  0.88721088886E+03  0.00000000000E+00 0. -1.
          2   -1    0    0  502    0 -0.00000000000E+00 -0.00000000000E+00 -0.89786770490E+03  0.89786770490E+03  0.00000000000E+00 0. -1.
         25    2    1    2    0    0  0.68214976588E+02  0.65007652784E+02 -0.12402039921E+03  0.19971421322E+03  0.12500171835E+03 0.  0.
          4    1    3    3  501    0  0.95851008721E+02  0.17412789290E+02 -0.56609004683E+02  0.11268013762E+03  0.12700000000E+01 0. -1.
         -4    1    3    3    0  501 -0.27636032133E+02  0.47594863494E+02 -0.67411394529E+02  0.87034075599E+02  0.12700000000E+01 0. -1.
          2    1    1    2  502    0 -0.22796097943E+02  0.11162416372E+02 -0.73346537575E+03  0.73390443454E+03  0.00000000000E+00 0. -1.
          2    1    1    2  503    0 -0.45418878645E+02 -0.76170069156E+02  0.84682895892E+03  0.85145994600E+03  0.00000000000E+00 0. -1.
<mgrwt>
<rscale>  0 0.47452673E+02</rscale>
<asrwt>0</asrwt>
<pdfrwt beam="1">  1        2 0.13649398E+00 0.88713607E+02</pdfrwt>
<pdfrwt beam="2">  1        2 0.13813349E+00 0.25382309E+02</pdfrwt>
<totfact> 0.17183323E+02</totfact>
</mgrwt>
</event>
<event>
 7    1  0.3113530E-004  0.8531034E+02  0.7546771E-02  0.1362202E+00
         -1   -1    0    0    0  501 -0.00000000000E+00  0.00000000000E+00  0.11939493309E+04  0.11939493309E+04  0.00000000000E+00 0.  1.
          1   -1    0    0  503    0  0.00000000000E+00 -0.00000000000E+00 -0.59477647343E+03  0.59477647343E+03  0.00000000000E+00 0.  1.
         25    2    1    2    0    0  0.22377558561E+02 -0.19430848000E+02  0.24471491418E+03  0.27638811907E+03  0.12500676046E+03 0.  0.
          4    1    3    3  502    0 -0.46157582536E+02 -0.89745770293E+01  0.16076118982E+03  0.16750175674E+03  0.12700000000E+01 0.  1.
         -4    1    3    3    0  502  0.68535141097E+02 -0.10456270971E+02  0.83953724359E+02  0.10888636233E+03  0.12700000000E+01 0.  1.
          1    1    1    2  503    0 -0.68011507141E+02  0.52625561189E+02 -0.57488597697E+03  0.58128211851E+03  0.00000000000E+00 0.  1.
         -1    1    1    2    0  501  0.45633948580E+02 -0.33194713189E+02  0.92934392021E+03  0.93105556670E+03  0.00000000000E+00 0.  1.
<mgrwt>
<rscale>  0 0.69383452E+02</rscale>
<asrwt>0</asrwt>
<pdfrwt beam="2">  1        1 0.91504073E-01 0.85310338E+02</pdfrwt>
<pdfrwt beam="1">  1       -1 0.18368451E+00 0.56430012E+02</pdfrwt>
<totfact> 0.91712719E+00</totfact>
</mgrwt>
</event>
<event>
 7    1  0.3113530E-004  0.1035631E+03  0.7546771E-02  0.1274890E+00
          1   -1    0    0  503    0 -0.00000000000E+00  0.00000000000E+00  0.45536786422E+03  0.45536786422E+03  0.00000000000E+00 0. -1.
          2   -1    0    0  502    0  0.00000000000E+00 -0.00000000000E+00 -0.12456711811E+04  0.12456711811E+04  0.00000000000E+00 0. -1.
         25    2    1    2    0    0  0.17792878963E+02  0.12907504240E+03  0.94989069046E+02  0.20402227910E+03  0.12500085606E+03 0.  0.
          4    1    3    3  501    0 -0.48815172949E+02  0.89556293617E+02  0.65034831892E+02  0.12097269566E+03  0.12700000000E+01 0. -1.
         -4    1    3    3    0  501  0.66608051912E+02  0.39518748787E+02  0.29954237154E+02  0.83049583435E+02  0.12700000000E+01 0. -1.
          2    1    1    2  502    0  0.69588483241E+02 -0.77088911282E+02 -0.11803612747E+04  0.11849210927E+04  0.00000000000E+00 0. -1.
          1    1    1    2  503    0 -0.87381362204E+02 -0.51986131122E+02  0.29506888876E+03  0.31209567348E+03  0.00000000000E+00 0. -1.
<mgrwt>
<rscale>  0 0.10261532E+03</rscale>
<asrwt>0</asrwt>
<pdfrwt beam="2">  1        2 0.19164172E+00 0.10356307E+03</pdfrwt>
<pdfrwt beam="1">  1        1 0.70056594E-01 0.10167625E+03</pdfrwt>
<totfact> 0.14309798E+02</totfact>
</mgrwt>
</event>
<event>
 7    1  0.3113530E-004  0.2030996E+03  0.7546771E-02  0.1276410E+00
          1   -1    0    0  503    0  0.00000000000E+00  0.00000000000E+00  0.33351747195E+03  0.33351747195E+03  0.00000000000E+00 0. -1.
         -1   -1    0    0    0  501 -0.00000000000E+00 -0.00000000000E+00 -0.59993479525E+03  0.59993479525E+03  0.00000000000E+00 0.  1.
         25    2    1    2    0    0 -0.17746525035E+03 -0.72655578559E+02  0.12102489971E+03  0.25892855161E+03  0.12499688120E+03 0.  0.
          4    1    3    3  502    0 -0.14762405170E+03 -0.78372185223E+02  0.39260083902E+02  0.17169166301E+03  0.12700000000E+01 0. -1.
         -4    1    3    3    0  502 -0.29841198650E+02  0.57166066641E+01  0.81764815807E+02  0.87236888600E+02  0.12700000000E+01 0. -1.
          1    1    1    2  503    0 -0.25426646008E+02  0.44321209843E+02  0.11830101017E+03  0.12886432003E+03  0.00000000000E+00 0. -1.
         -1    1    1    2    0  501  0.20289189636E+03  0.28334368716E+02 -0.50574323319E+03  0.54565939557E+03  0.00000000000E+00 0.  1.
<mgrwt>
<rscale>  0 0.10187120E+03</rscale>
<asrwt>0</asrwt>
<pdfrwt beam="1">  1        1 0.51310381E-01 0.51096810E+02</pdfrwt>
<pdfrwt beam="2">  1       -1 0.92297660E-01 0.20309959E+03</pdfrwt>
<totfact> 0.94901789E+01</totfact>
</mgrwt>
</event>
<event>
 7    1  0.3113530E-004  0.4846645E+02  0.7546771E-02  0.1574065E+00
         -1   -1    0    0    0  501  0.00000000000E+00  0.00000000000E+00  0.91953931119E+03  0.91953931119E+03  0.00000000000E+00 0.  1.
         -3   -1    0    0    0  502 -0.00000000000E+00 -0.00000000000E+00 -0.51451066959E+02  0.51451066959E+02  0.00000000000E+00 0.  1.
         25    2    1    2    0    0 -0.29851654277E+02 -0.26355969328E+02  0.74711865144E+02  0.15098139845E+03  0.12501104552E+03 0.  0.
          4    1    3    3  503    0  0.30895551769E+02  0.27453919547E+02  0.52510461201E+02  0.66837222064E+02  0.12700000000E+01 0. -1.
         -4    1    3    3    0  503 -0.60747206046E+02 -0.53809888876E+02  0.22201403943E+02  0.84144176389E+02  0.12700000000E+01 0. -1.
         -1    1    1    2    0  501  0.46884388661E+02  0.13213358737E+02  0.79674538810E+03  0.79823301874E+03  0.00000000000E+00 0.  1.
         -3    1    1    2    0  502 -0.17032734383E+02  0.13142610592E+02 -0.33690090136E+01  0.21775960954E+02  0.00000000000E+00 0.  1.
<mgrwt>
<rscale>  0 0.32290804E+02</rscale>
<asrwt>0</asrwt>
<pdfrwt beam="1">  1       -1 0.14146757E+00 0.48466451E+02</pdfrwt>
<pdfrwt beam="2">  1       -3 0.79155495E-02 0.21513769E+02</pdfrwt>
<totfact> 0.17301457E+02</totfact>
</mgrwt>
</event>
<event>
 7    1  0.3113530E-004  0.7240519E+02  0.7546771E-02  0.1487447E+00
          1   -1    0    0  503    0 -0.00000000000E+00  0.00000000000E+00  0.37162502128E+03  0.37162502128E+03  0.00000000000E+00 0. -1.
          2   -1    0    0  502    0  0.00000000000E+00 -0.00000000000E+00 -0.14305724244E+03  0.14305724244E+03  0.00000000000E+00 0. -1.
         25    2    1    2    0    0  0.57607563870E+01  0.55382921013E+02  0.31313977206E+03  0.34175224189E+03  0.12505048476E+03 0.  0.
          4    1    3    3  501    0 -0.47594902787E+02  0.47586648715E+02  0.24904701660E+03  0.25798409502E+03  0.12700000000E+01 0. -1.
         -4    1    3    3    0  501  0.53355659174E+02  0.77962722978E+01  0.64092755459E+02  0.83768146869E+02  0.12700000000E+01 0. -1.
          2    1    1    2  502    0 -0.28285613618E+02 -0.67331527088E+02 -0.11312397383E+03  0.13465007959E+03  0.00000000000E+00 0. -1.
          1    1    1    2  503    0  0.22524857231E+02  0.11948606075E+02  0.28551980617E+02  0.38279942236E+02  0.00000000000E+00 0. -1.
<mgrwt>
<rscale>  0 0.42967126E+02</rscale>
<asrwt>0</asrwt>
<pdfrwt beam="2">  1        2 0.22008807E-01 0.72405192E+02</pdfrwt>
<pdfrwt beam="1">  1        1 0.57173080E-01 0.25497811E+02</pdfrwt>
<totfact> 0.21944363E+03</totfact>
</mgrwt>
</event>
<event>
 7    1  0.3113530E-004  0.6794296E+02  0.7546771E-02  0.1507591E+00
         -2   -1    0    0    0  501 -0.00000000000E+00  0.00000000000E+00  0.37323570956E+02  0.37323570956E+02  0.00000000000E+00 0.  1.
          1   -1    0    0  503    0  0.00000000000E+00 -0.00000000000E+00 -0.80684693333E+03  0.80684693333E+03  0.00000000000E+00 0. -1.
         25    2    1    2    0    0  0.29014585770E+02  0.58927609807E+02 -0.11665296877E+03  0.18316062059E+03  0.12500235368E+03 0.  0.
          4    1    3    3  502    0  0.55331087451E+02 -0.11549430602E+02 -0.18501575258E+02  0.59488148170E+02  0.12700000000E+01 0.  1.
         -4    1    3    3    0  502 -0.26316501681E+02  0.70477040409E+02 -0.98151393515E+02  0.12367247242E+03  0.12700000000E+01 0.  1.
          1    1    1    2  503    0 -0.15037168038E+02  0.18252201107E+02 -0.11091683158E+03  0.11340988844E+03  0.00000000000E+00 0. -1.
         -2    1    1    2    0  501 -0.13977417732E+02 -0.77179810914E+02 -0.54195356202E+03  0.54759999525E+03  0.00000000000E+00 0.  1.
<mgrwt>
<rscale>  0 0.40084414E+02</rscale>
<asrwt>0</asrwt>
<pdfrwt beam="2">  1        1 0.12413029E+00 0.23648663E+02</pdfrwt>
<pdfrwt beam="1">  1       -2 0.57420881E-02 0.67942962E+02</pdfrwt>
<totfact> 0.31876829E+03</totfact>
</mgrwt>
</event>
<event>
 7    1  0.3113530E-004  0.3760583E+02  0.7546771E-02  0.1568958E+00
         -1   -1    0    0    0  501 -0.00000000000E+00  0.00000000000E+00  0.74947559422E+01  0.74947559422E+01  0.00000000000E+00 0.  1.
          2   -1    0    0  503    0  0.00000000000E+00 -0.00000000000E+00 -0.14921947721E+04  0.14921947721E+04  0.00000000000E+00 0. -1.
         25    2    1    2    0    0 -0.39503977476E+01  0.17818092326E+02 -0.77784432149E+03  0.78803661547E+03  0.12500731494E+03 0.  0.
          4    1    3    3  502    0  0.52967570405E+02 -0.97007448281E+01 -0.21471204501E+03  0.22136518049E+03  0.12700000000E+01 0. -1.
         -4    1    3    3    0  502 -0.56917968153E+02  0.27518837154E+02 -0.56313227648E+03  0.56667143497E+03  0.12700000000E+01 0. -1.
          2    1    1    2  503    0  0.23540267601E+02 -0.38690015215E+02 -0.26265808695E+03  0.26653392301E+03  0.00000000000E+00 0. -1.
         -1    1    1    2    0  501 -0.19589869854E+02  0.20871922890E+02 -0.44419760773E+03  0.44511898957E+03  0.00000000000E+00 0.  1.
<mgrwt>
<rscale>  0 0.32809650E+02</rscale>
<asrwt>0</asrwt>
<pdfrwt beam="2">  1        2 0.22956837E+00 0.37605830E+02</pdfrwt>
<pdfrwt beam="1">  1       -1 0.11530396E-02 0.28625167E+02</pdfrwt>
<totfact> 0.19641873E+04</totfact>
</mgrwt>
</event>
<event>
 7    1  0.3113530E-004  0.8745048E+02  0.7546771E-02  0.1400359E+00
          2   -1    0    0  502    0  0.00000000000E+00  0.00000000000E+00  0.53435211438E+03  0.53435211438E+03  0.00000000000E+00 0. -1.
          1   -1    0    0  503    0 -0.00000000000E+00 -0.00000000000E+00 -0.14176104298E+03  0.14176104298E+03  0.00000000000E+00 0. -1.
         25    2    1    2    0    0 -0.87344733315E+02 -0.78965748640E+02  0.88030316840E+01  0.17195081625E+03  0.12499959179E+03 0.  0.
          4    1    3    3  501    0 -0.92734865791E+02 -0.10587182991E+03  0.20237003868E+02  0.14219616355E+03  0.12700000000E+01 0.  1.
         -4    1    3    3    0  501  0.53901324759E+01  0.26906081274E+02 -0.11433972184E+02  0.29754652704E+02  0.12700000000E+01 0.  1.
          2    1    1    2  502    0  0.47664805529E+02  0.71644934537E+02  0.43246103461E+03  0.44093931191E+03  0.00000000000E+00 0. -1.
          1    1    1    2  503    0  0.39679927787E+02  0.73208141033E+01 -0.48672994902E+02  0.63223029199E+02  0.00000000000E+00 0. -1.
<mgrwt>
<rscale>  0 0.59401959E+02</rscale>
<asrwt>0</asrwt>
<pdfrwt beam="1">  1        2 0.82208017E-01 0.87450480E+02</pdfrwt>
<pdfrwt beam="2">  1        1 0.21809391E-01 0.40349610E+02</pdfrwt>
<totfact> 0.17154674E+03</totfact>
</mgrwt>
</event>
<event>
 7    1  0.3113530E-004  0.9541636E+02  0.7546771E-02  0.1294696E+00
         -3   -1    0    0    0  501 -0.00000000000E+00  0.00000000000E+00  0.10453603517E+03  0.10453603517E+03  0.00000000000E+00 0.  1.
          1   -1    0    0  503    0  0.00000000000E+00 -0.00000000000E+00 -0.10078014832E+04  0.10078014832E+04  0.00000000000E+00 0. -1.
         25    2    1    2    0    0  0.43111364587E+02 -0.51522096183E+02 -0.22965237285E+03  0.26996131191E+03  0.12500312563E+03 0.  0.
          4    1    3    3  502    0  0.16657864058E+02  0.41568315008E+02 -0.64334357467E+02  0.78395992871E+02  0.12700000000E+01 0.  1.
         -4    1    3    3    0  502  0.26453500529E+02 -0.93090411191E+02 -0.16531801539E+03  0.19156531904E+03  0.12700000000E+01 0.  1.
          1    1    1    2  503    0 -0.98799705264E+02 -0.25957511879E+02 -0.72625337404E+03  0.73340243897E+03  0.00000000000E+00 0. -1.
         -3    1    1    2    0  501  0.55688340677E+02  0.77479608062E+02  0.52640298815E+02  0.10897376754E+03  0.00000000000E+00 0.  1.
<mgrwt>
<rscale>  0 0.93454277E+02</rscale>
<asrwt>0</asrwt>
<pdfrwt beam="2">  1        1 0.15504638E+00 0.91532545E+02</pdfrwt>
<pdfrwt beam="1">  1       -3 0.16082468E-01 0.95416356E+02</pdfrwt>
<totfact> 0.28292655E+02</totfact>
</mgrwt>
</event>
<event>
 7    1  0.3113530E-004  0.7655051E+02  0.7546771E-02  0.1480313E+00
          1   -1    0    0  503    0  0.00000000000E+00  0.00000000000E+00  0.76442680342E+03  0.76442680342E+03  0.00000000000E+00 0. -1.
         -1   -1    0    0    0  501 -0.00000000000E+00 -0.00000000000E+00 -0.21596582695E+02  0.21596582695E+02  0.00000000000E+00 0.  1.
         25    2    1    2    0    0 -0.44242380149E+02  0.40272340664E+02  0.50033089278E+03  0.51916806910E+03  0.12500092833E+03 0.  0.
          4    1    3    3  502    0 -0.32228337089E+02 -0.23193520662E+02  0.38442932699E+03  0.38647655228E+03  0.12700000000E+01 0.  1.
         -4    1    3    3    0  502 -0.12014043061E+02  0.63465861325E+02  0.11590156579E+03  0.13269151682E+03  0.12700000000E+01 0.  1.
          1    1    1    2  503    0 -0.10506709107E+02  0.23077364474E+02  0.36063699821E+02  0.44085668103E+02  0.00000000000E+00 0.  1.
         -1    1    1    2    0  501  0.54749089256E+02 -0.63349705137E+02  0.20643562812E+03  0.22276964891E+03  0.00000000000E+00 0. -1.
<mgrwt>
<rscale>  0 0.44057446E+02</rscale>
<asrwt>0</asrwt>
<pdfrwt beam="1">  1        1 0.11760410E+00 0.25356571E+02</pdfrwt>
<pdfrwt beam="2">  1       -1 0.33225518E-02 0.76550513E+02</pdfrwt>
<totfact> 0.78566960E+03</totfact>
</mgrwt>
</event>
<event>
 7    1  0.3113530E-004  0.5279640E+02  0.7546771E-02  0.1441396E+00
          2   -1    0    0  503    0  0.00000000000E+00  0.00000000000E+00  0.26399672037E+03  0.26399672037E+03  0.00000000000E+00 0. -1.
          2   -1    0    0  502    0 -0.00000000000E+00 -0.00000000000E+00 -0.95926080892E+02  0.95926080892E+02  0.00000000000E+00 0. -1.
         25    2    1    2    0    0  0.74828885187E+02 -0.57746713530E+02  0.66005690838E+02  0.17004831543E+03  0.12500253347E+03 0.  0.
          4    1    3    3  501    0  0.33307128989E+02  0.30847662424E+02  0.55383748294E+02  0.71623429083E+02  0.12700000000E+01 0.  1.
         -4    1    3    3    0  501  0.41521756198E+02 -0.88594375954E+02  0.10621942544E+02  0.98424886344E+02  0.12700000000E+01 0.  1.
          2    1    1    2  502    0 -0.45190948332E+02  0.18316268181E+02 -0.24112547728E+02  0.54397816585E+02  0.00000000000E+00 0. -1.
          2    1    1    2  503    0 -0.29637936854E+02  0.39430445349E+02  0.12617749636E+03  0.13547666925E+03  0.00000000000E+00 0. -1.
<mgrwt>
<rscale>  0 0.50738984E+02</rscale>
<asrwt>0</asrwt>
<pdfrwt beam="1">  1        2 0.40614880E-01 0.52796400E+02</pdfrwt>
<pdfrwt beam="2">  1        2 0.14757859E-01 0.48761742E+02</pdfrwt>
<totfact> 0.69401266E+03</totfact>
</mgrwt>
</event>
<event>
 7    1  0.3113530E-004  0.1514099E+03  0.7546771E-02  0.1399933E+00
         -1   -1    0    0    0  501 -0.00000000000E+00  0.00000000000E+00  0.48412796925E+03  0.48412796925E+03  0.00000000000E+00 0.  1.
          1   -1    0    0  503    0  0.00000000000E+00 -0.00000000000E+00 -0.20871261402E+03  0.20871261402E+03  0.00000000000E+00 0. -1.
         25    2    1    2    0    0 -0.13640733848E+03 -0.56195226579E+02  0.26203408347E+03  0.32564589740E+03  0.12497409378E+03 0.  0.
          4    1    3    3  502    0 -0.79079156522E+02  0.10029446743E+02  0.44877547446E+02  0.91486118963E+02  0.12700000000E+01 0. -1.
         -4    1    3    3    0  502 -0.57328181961E+02 -0.66224673322E+02  0.21715653602E+03  0.23415977844E+03  0.12700000000E+01 0. -1.
          1    1    1    2  503    0  0.14775464019E+03  0.35749386006E+02 -0.14321988440E+03  0.20885733788E+03  0.00000000000E+00 0. -1.
         -1    1    1    2    0  501 -0.11347301712E+02  0.20445840573E+02  0.15660115617E+03  0.15833734799E+03  0.00000000000E+00 0.  1.
<mgrwt>
<rscale>  0 0.59502191E+02</rscale>
<asrwt>0</asrwt>
<pdfrwt beam="2">  1        1 0.32109633E-01 0.15140987E+03</pdfrwt>
<pdfrwt beam="1">  1       -1 0.74481226E-01 0.23383619E+02</pdfrwt>
<totfact> 0.27907952E+02</totfact>
</mgrwt>
</event>
<event>
 7    1  0.3113530E-004  0.3076841E+02  0.7546771E-02  0.1655872E+00
          2   -1    0    0  503    0  0.00000000000E+00  0.00000000000E+00  0.30790185029E+04  0.30790185029E+04  0.00000000000E+00 0. -1.
         -1   -1    0    0    0  501 -0.00000000000E+00 -0.00000000000E+00 -0.45264466684E+01  0.45264466684E+01  0.00000000000E+00 0.  1.
         25    2    1    2    0    0  0.44885558024E+02 -0.67886448114E+01  0.13589425827E+04  0.13654340379E+04  0.12499747993E+03 0.  0.
          4    1    3    3  502    0  0.80222396509E+02  0.26042044558E+02  0.91313980729E+03  0.91702766672E+03  0.12700000000E+01 0. -1.
         -4    1    3    3    0  502 -0.35336838485E+02 -0.32830689369E+02  0.44580277538E+03  0.44840637122E+03  0.12700000000E+01 0. -1.
          2    1    1    2  503    0 -0.29392673171E+02 -0.72446596158E+01  0.16208114818E+04  0.16210941594E+04  0.00000000000E+00 0. -1.
         -1    1    1    2    0  501 -0.15492884853E+02  0.14033304427E+02  0.94737991783E+02  0.97016752168E+02  0.00000000000E+00 0.  1.
<mgrwt>
<rscale>  0 0.25360846E+02</rscale>
<asrwt>0</asrwt>
<pdfrwt beam="1">  1        2 0.47369348E+00 0.30768412E+02</pdfrwt>
<pdfrwt beam="2">  1       -1 0.69637887E-03 0.20903663E+02</pdfrwt>
<totfact> 0.60198053E+03</totfact>
</mgrwt>
</event>
<event>
 7    1  0.3113530E-004  0.6702463E+02  0.7546771E-02  0.1438319E+00
          1   -1    0    0  503    0 -0.00000000000E+00  0.00000000000E+00  0.83483814219E+03  0.83483814219E+03  0.00000000000E+00 0. -1.
          2   -1    0    0  502    0  0.00000000000E+00 -0.00000000000E+00 -0.10335573201E+04  0.10335573201E+04  0.00000000000E+00 0. -1.
         25    2    1    2    0    0 -0.40431587839E+02 -0.22796779355E+02 -0.15365585025E+02  0.13424328808E+03  0.12502300887E+03 0.  0.
          4    1    3    3  501    0  0.37095138706E+01 -0.36174224359E+02  0.45249670810E+02  0.58064452203E+02  0.12700000000E+01 0.  1.
         -4    1    3    3    0  501 -0.44141101709E+02  0.13377445004E+02 -0.60615255836E+02  0.76178835873E+02  0.12700000000E+01 0.  1.
          2    1    1    2  502    0  0.29851952864E+02  0.60650044763E+02 -0.95706189156E+03  0.95944621073E+03  0.00000000000E+00 0. -1.
          1    1    1    2  503    0  0.10579634975E+02 -0.37853265408E+02  0.77370829869E+03  0.77470596347E+03  0.00000000000E+00 0. -1.
<mgrwt>
<rscale>  0 0.51325735E+02</rscale>
<asrwt>0</asrwt>
<pdfrwt beam="2">  1        2 0.15900882E+00 0.67024633E+02</pdfrwt>
<pdfrwt beam="1">  1        1 0.12843664E+00 0.39303923E+02</pdfrwt>
<totfact> 0.88303019E+01</totfact>
</mgrwt>
</event>
<event>
 7    1  0.3113530E-004  0.1975508E+03  0.7546771E-02  0.1218495E+00
          2   -1    0    0  502    0  0.00000000000E+00  0.00000000000E+00  0.71459421891E+03  0.71459421891E+03  0.00000000000E+00 0.  1.
          1   -1    0    0  503    0 -0.00000000000E+00 -0.00000000000E+00 -0.14549104980E+04  0.14549104980E+04  0.00000000000E+00 0. -1.
         25    2    1    2    0    0  0.19784320503E+03  0.17308305174E+03  0.11202101232E+03  0.31188507129E+03  0.12499565557E+03 0.  0.
          4    1    3    3  501    0  0.12357679976E+03  0.38770404811E+02  0.15189826411E+02  0.13040979048E+03  0.12700000000E+01 0. -1.
         -4    1    3    3    0  501  0.74266405275E+02  0.13431264693E+03  0.96831185913E+02  0.18147528080E+03  0.12700000000E+01 0. -1.
          2    1    1    2  502    0 -0.16725636252E+03 -0.84260026113E+02  0.48348908843E+03  0.51849410935E+03  0.00000000000E+00 0.  1.
          1    1    1    2  503    0 -0.30586842511E+02 -0.88823025626E+02 -0.13358263798E+04  0.13391255363E+04  0.00000000000E+00 0. -1.
<mgrwt>
<rscale>  0 0.13622886E+03</rscale>
<asrwt>0</asrwt>
<pdfrwt beam="1">  1        2 0.10993757E+00 0.19755080E+03</pdfrwt>
<pdfrwt beam="2">  1        1 0.22383238E+00 0.93941923E+02</pdfrwt>
<totfact> 0.47863853E+01</totfact>
</mgrwt>
</event>
<event>
 7    1  0.3113530E-004  0.6361955E+02  0.7546771E-02  0.1457614E+00
          2   -1    0    0  502    0  0.00000000000E+00  0.00000000000E+00  0.71252072235E+02  0.71252072235E+02  0.00000000000E+00 0. -1.
          2   -1    0    0  503    0 -0.00000000000E+00 -0.00000000000E+00 -0.28018703592E+04  0.28018703592E+04  0.00000000000E+00 0. -1.
         25    2    1    2    0    0 -0.43916360523E+02  0.31793524236E+02 -0.81795021702E+03  0.82922158288E+03  0.12500560421E+03 0.  0.
          4    1    3    3  501    0 -0.26760918555E+02  0.71769281912E+01 -0.30601618212E+02  0.41300447908E+02  0.12700000000E+01 0.  1.
         -4    1    3    3    0  501 -0.17155441967E+02  0.24616596045E+02 -0.78734859881E+03  0.78792113498E+03  0.12700000000E+01 0.  1.
          2    1    1    2  502    0  0.21856064206E+02 -0.60123230474E+02  0.49820561936E+02  0.81083776286E+02  0.00000000000E+00 0. -1.
          2    1    1    2  503    0  0.22060296317E+02  0.28329706238E+02 -0.19624886318E+04  0.19628170722E+04  0.00000000000E+00 0. -1.
<mgrwt>
<rscale>  0 0.47794488E+02</rscale>
<asrwt>0</asrwt>
<pdfrwt beam="1">  1        2 0.10961860E-01 0.63619552E+02</pdfrwt>
<pdfrwt beam="2">  1        2 0.43105686E+00 0.35905834E+02</pdfrwt>
<totfact> 0.30132313E+02</totfact>
</mgrwt>
</event>
<event>
 7    1  0.3113530E-004  0.8435065E+02  0.7546771E-02  0.1338833E+00
          2   -1    0    0  503    0  0.00000000000E+00  0.00000000000E+00  0.15161371407E+04  0.15161371407E+04  0.00000000000E+00 0. -1.
         -2   -1    0    0    0  501 -0.00000000000E+00 -0.00000000000E+00 -0.77249427869E+02  0.77249427869E+02  0.00000000000E+00 0.  1.
         25    2    1    2    0    0 -0.15204412177E+03  0.17871464792E+01  0.15801414071E+03  0.25244495648E+03  0.12505750091E+03 0.  0.
          4    1    3    3  502    0  0.17729043733E+02  0.33455497756E+01  0.44966587006E+02  0.48467706176E+02  0.12700000000E+01 0. -1.
         -4    1    3    3    0  502 -0.16977316550E+03 -0.15584032964E+01  0.11304755370E+03  0.20397725031E+03  0.12700000000E+01 0. -1.
          2    1    1    2  503    0  0.82393431276E+02 -0.24978644110E+01  0.12672988098E+04  0.12699768463E+04  0.00000000000E+00 0. -1.
         -2    1    1    2    0  501  0.69650690492E+02  0.71071793179E+00  0.13574762293E+02  0.70964765745E+02  0.00000000000E+00 0.  1.
<mgrwt>
<rscale>  0 0.76651072E+02</rscale>
<asrwt>0</asrwt>
<pdfrwt beam="1">  1        2 0.23325185E+00 0.84350650E+02</pdfrwt>
<pdfrwt beam="2">  1       -2 0.11884528E-01 0.69654316E+02</pdfrwt>
<totfact> 0.68599024E+02</totfact>
</mgrwt>
</event>
<event>
 7    1  0.3113530E-004  0.9171441E+02  0.7546771E-02  0.1417838E+00
          1   -1    0    0  503    0  0.00000000000E+00  0.00000000000E+00  0.10226117272E+04  0.10226117272E+04  0.00000000000E+00 0. -1.
          1   -1    0    0  502    0 -0.00000000000E+00 -0.00000000000E+00 -0.61266143734E+02  0.61266143734E+02  0.00000000000E+00 0. -1.
         25    2    1    2    0    0 -0.60053939374E+02  0.37265790378E+01  0.75200764148E+03  0.76469706656E+03  0.12500299094E+03 0.  0.
          4    1    3    3  501    0 -0.31856222511E+02 -0.88857439351E-01  0.72416427726E+03  0.72486573941E+03  0.12700000000E+01 0. -1.
         -4    1    3    3    0  501 -0.28197716863E+02  0.38154364771E+01  0.27843364213E+02  0.39831327150E+02  0.12700000000E+01 0. -1.
          1    1    1    2  502    0  0.92697646513E+02 -0.11524590780E+02 -0.13011046226E+02  0.94313080670E+02  0.00000000000E+00 0. -1.
          1    1    1    2  503    0 -0.32643707139E+02  0.77980117423E+01  0.22234898823E+03  0.22486772372E+03  0.00000000000E+00 0. -1.
<mgrwt>
<rscale>  0 0.55480956E+02</rscale>
<asrwt>0</asrwt>
<pdfrwt beam="1">  1        1 0.15732487E+00 0.33562190E+02</pdfrwt>
<pdfrwt beam="2">  1        1 0.94255613E-02 0.91714410E+02</pdfrwt>
<totfact> 0.13735874E+03</totfact>
</mgrwt>
</event>
<event>
 7    1  0.3113530E-004  0.9716825E+02  0.7546771E-02  0.1374356E+00
          2   -1    0    0  502    0  0.00000000000E+00  0.00000000000E+00  0.13440378503E+04  0.13440378503E+04  0.00000000000E+00 0. -1.
          2   -1    0    0  503    0 -0.00000000000E+00 -0.00000000000E+00 -0.50145692880E+02  0.50145692880E+02  0.00000000000E+00 0. -1.
         25    2    1    2    0    0 -0.60743140817E+02  0.66072429434E+01  0.34738885425E+03  0.37421589397E+03  0.12500053770E+03 0.  0.
          4    1    3    3  501    0 -0.40432857249E+02 -0.52902116789E+02  0.24642764949E+03  0.25526779907E+03  0.12700000000E+01 0.  1.
         -4    1    3    3    0  501 -0.20310283568E+02  0.59509359732E+02  0.10096120476E+03  0.11894809490E+03  0.12700000000E+01 0.  1.
          2    1    1    2  502    0  0.10487927539E+03  0.10181832105E+01  0.96559775497E+03  0.97127736693E+03  0.00000000000E+00 0. -1.
          2    1    1    2  503    0 -0.44136134577E+02 -0.76254261538E+01 -0.19094451800E+02  0.48690282285E+02  0.00000000000E+00 0. -1.
<mgrwt>
<rscale>  0 0.65970959E+02</rscale>
<asrwt>0</asrwt>
<pdfrwt beam="1">  1        2 0.20677503E+00 0.97168250E+02</pdfrwt>
<pdfrwt beam="2">  1        2 0.77147230E-02 0.44790016E+02</pdfrwt>
<totfact> 0.21516873E+03</totfact>
</mgrwt>
</event>
<event>
 7    1  0.3113530E-004  0.7098270E+02  0.7546771E-02  0.1490586E+00
         -2   -1    0    0    0  501 -0.00000000000E+00  0.00000000000E+00  0.28950863618E+02  0.28950863618E+02  0.00000000000E+00 0.  1.
          2   -1    0    0  503    0  0.00000000000E+00 -0.00000000000E+00 -0.58478065582E+03  0.58478065582E+03  0.00000000000E+00 0. -1.
         25    2    1    2    0    0 -0.66262909103E+02 -0.25496409897E+02 -0.31884861231E+03  0.34976048814E+03  0.12500848551E+03 0.  0.
          4    1    3    3  502    0 -0.34020814481E+02 -0.27869225524E+02 -0.31397338273E+03  0.31704101866E+03  0.12700000000E+01 0.  1.
         -4    1    3    3    0  502 -0.32242094622E+02  0.23728156277E+01 -0.48752295837E+01  0.32719469481E+02  0.12700000000E+01 0.  1.
          2    1    1    2  503    0  0.12310760218E+02 -0.22269127506E+02 -0.14454104305E+03  0.14676369437E+03  0.00000000000E+00 0. -1.
         -2    1    1    2    0  501  0.53952148885E+02  0.47765537402E+02 -0.92440136830E+02  0.11720733693E+03  0.00000000000E+00 0.  1.
<mgrwt>
<rscale>  0 0.42499223E+02</rscale>
<asrwt>0</asrwt>
<pdfrwt beam="2">  1        2 0.89966249E-01 0.25445409E+02</pdfrwt>
<pdfrwt beam="1">  1       -2 0.44539793E-02 0.70982704E+02</pdfrwt>
<totfact> 0.11205978E+04</totfact>
</mgrwt>
</event>
<event>
 7    1  0.3113530E-004  0.1251611E+03  0.7546771E-02  0.1288641E+00
         -3   -1    0    0    0  501 -0.00000000000E+00  0.00000000000E+00  0.81650308123E+03  0.81650308123E+03  0.00000000000E+00 0.  1.
          1   -1    0    0  503    0  0.00000000000E+00 -0.00000000000E+00 -0.59518087580E+03  0.59518087580E+03  0.00000000000E+00 0. -1.
         25    2    1    2    0    0  0.25899662606E+02  0.56564825776E+02  0.14580513956E+03  0.20188181602E+03  0.12500702732E+03 0.  0.
          4    1    3    3  502    0  0.42880195208E+02 -0.21060214389E+02  0.98283760258E+02  0.10928656917E+03  0.12700000000E+01 0. -1.
         -4    1    3    3    0  502 -0.16980532602E+02  0.77625040165E+02  0.47521379302E+02  0.92595246848E+02  0.12700000000E+01 0. -1.
          1    1    1    2  503    0 -0.92525077380E+02 -0.88397763746E+02 -0.55775173528E+03  0.57224300152E+03  0.00000000000E+00 0. -1.
         -3    1    1    2    0  501  0.66625414774E+02  0.31832937970E+02  0.63326880115E+03  0.63755913949E+03  0.00000000000E+00 0.  1.
<mgrwt>
<rscale>  0 0.96134495E+02</rscale>
<asrwt>0</asrwt>
<pdfrwt beam="2">  1        1 0.91566289E-01 0.12516109E+03</pdfrwt>
<pdfrwt beam="1">  1       -3 0.12561586E+00 0.73839568E+02</pdfrwt>
<totfact> 0.10488183E+01</totfact>
</mgrwt>
</event>
<event>
 7    1  0.3113530E-004  0.1150326E+03  0.7546771E-02  0.1254723E+00
          2   -1    0    0  502    0  0.00000000000E+00  0.00000000000E+00  0.71045701025E+03  0.71045701025E+03  0.00000000000E+00 0. -1.
          3   -1    0    0  503    0 -0.00000000000E+00 -0.00000000000E+00 -0.12576234105E+03  0.12576234105E+03  0.00000000000E+00 0. -1.
         25    2    1    2    0    0  0.30591819158E+02  0.11819681596E+03  0.16444594724E+02  0.17550998095E+03  0.12500792780E+03 0.  0.
          4    1    3    3  501    0 -0.20014504178E+02  0.10756180819E+03  0.42759493704E+02  0.11747387012E+03  0.12700000000E+01 0. -1.
         -4    1    3    3    0  501  0.50606323336E+02  0.10635007773E+02 -0.26314898980E+02  0.58036110830E+02  0.12700000000E+01 0. -1.
          2    1    1    2  502    0  0.77187577205E+02 -0.89894380862E+02  0.52970939247E+03  0.54279919147E+03  0.00000000000E+00 0. -1.
          3    1    1    2  503    0 -0.10777939636E+03 -0.28302435102E+02  0.38540682005E+02  0.11791017888E+03  0.00000000000E+00 0. -1.
<mgrwt>
<rscale>  0 0.11321877E+03</rscale>
<asrwt>0</asrwt>
<pdfrwt beam="1">  1        2 0.10930108E+00 0.11503264E+03</pdfrwt>
<pdfrwt beam="2">  1        3 0.19348053E-01 0.11143351E+03</pdfrwt>
<totfact> 0.59261209E+02</totfact>
</mgrwt>
</event>
<event>
 7    1  0.3113530E-004  0.1742975E+03  0.7546771E-02  0.1252720E+00
         -1   -1    0    0    0  501 -0.00000000000E+00  0.00000000000E+00  0.19455488803E+03  0.19455488803E+03  0.00000000000E+00 0.  1.
          2   -1    0    0  503    0  0.00000000000E+00 -0.00000000000E+00 -0.21133803841E+04  0.21133803841E+04  0.00000000000E+00 0. -1.
         25    2    1    2    0    0 -0.19450574417E+03  0.60116276118E+02 -0.67530296689E+03  0.71631435161E+03  0.12500280820E+03 0.  0.
          4    1    3    3  502    0 -0.74573575806E+00 -0.50434439769E+01  0.42001523599E+01  0.67265614407E+01  0.12700000000E+01 0. -1.
         -4    1    3    3    0  502 -0.19376000841E+03  0.65159720095E+02 -0.67950311925E+03  0.70958779017E+03  0.12700000000E+01 0. -1.
          2    1    1    2  503    0  0.58396472619E+02  0.47095048434E+02 -0.13731726768E+04  0.13752204521E+04  0.00000000000E+00 0. -1.
         -1    1    1    2    0  501  0.13610927155E+03 -0.10721132455E+03  0.12965014767E+03  0.21640046836E+03  0.00000000000E+00 0.  1.
<mgrwt>
<rscale>  0 0.11434993E+03</rscale>
<asrwt>0</asrwt>
<pdfrwt beam="2">  1        2 0.32513546E+00 0.75020608E+02</pdfrwt>
<pdfrwt beam="1">  1       -1 0.29931520E-01 0.17429753E+03</pdfrwt>
<totfact> 0.87591788E+01</totfact>
</mgrwt>
</event>
<event>
 7    1  0.3113530E-004  0.4161468E+02  0.7546771E-02  0.1534907E+00
          2   -1    0    0  503    0  0.00000000000E+00  0.00000000000E+00  0.72301024931E+03  0.72301024931E+03  0.00000000000E+00 0. -1.
          2   -1    0    0  502    0 -0.00000000000E+00 -0.00000000000E+00 -0.18986411695E+03  0.18986411695E+03  0.00000000000E+00 0.  1.
         25    2    1    2    0    0  0.66981100058E+01  0.16278484832E+02  0.21775727232E+02  0.12809731252E+03  0.12499954173E+03 0.  0.
          4    1    3    3  501    0  0.13295336870E+02  0.69481178213E+02  0.15063505825E+01  0.70769217181E+02  0.12700000000E+01 0. -1.
         -4    1    3    3    0  501 -0.65972268638E+01 -0.53202693380E+02  0.20269376649E+02  0.57328095337E+02  0.12700000000E+01 0. -1.
          2    1    1    2  502    0  0.14704493155E+02 -0.40301811267E+02 -0.13292619779E+03  0.13967760081E+03  0.00000000000E+00 0.  1.
          2    1    1    2  503    0 -0.21402603161E+02  0.24023326435E+02  0.64429660292E+03  0.64509945293E+03  0.00000000000E+00 0. -1.
<mgrwt>
<rscale>  0 0.36591351E+02</rscale>
<asrwt>0</asrwt>
<pdfrwt beam="1">  1        2 0.11123235E+00 0.32174394E+02</pdfrwt>
<pdfrwt beam="2">  1        2 0.29209864E-01 0.41614676E+02</pdfrwt>
<totfact> 0.11531583E+03</totfact>
</mgrwt>
</event>
<event>
 7    1  0.3113530E-004  0.4692064E+02  0.7546771E-02  0.1542108E+00
         -1   -1    0    0    0  501 -0.00000000000E+00  0.00000000000E+00  0.96507117916E+01  0.96507117916E+01  0.00000000000E+00 0.  1.
          2   -1    0    0  503    0  0.00000000000E+00 -0.00000000000E+00 -0.17894083635E+04  0.17894083635E+04  0.00000000000E+00 0. -1.
         25    2    1    2    0    0  0.13418314720E+02  0.23468352905E+02 -0.10817227945E+04  0.10892565360E+04  0.12499912946E+03 0.  0.
          4    1    3    3  502    0 -0.50169234674E+02 -0.13238682632E+02 -0.55837667263E+03  0.56078368045E+03  0.12700000000E+01 0.  1.
         -4    1    3    3    0  502  0.63587549394E+02  0.36707035537E+02 -0.52334612187E+03  0.52847285557E+03  0.12700000000E+01 0.  1.
          2    1    1    2  503    0 -0.14091042725E+02 -0.50686786154E+02 -0.66462384618E+03  0.66670275588E+03  0.00000000000E+00 0. -1.
         -1    1    1    2    0  501  0.67272800487E+00  0.27218433249E+02 -0.33411011050E+02  0.43099783421E+02  0.00000000000E+00 0.  1.
<mgrwt>
<rscale>  0 0.35742079E+02</rscale>
<asrwt>0</asrwt>
<pdfrwt beam="2">  1        2 0.27529334E+00 0.46920635E+02</pdfrwt>
<pdfrwt beam="1">  1       -1 0.14847263E-02 0.27226746E+02</pdfrwt>
<totfact> 0.96761192E+03</totfact>
</mgrwt>
</event>
<event>
 7    1  0.3113530E-004  0.9627915E+02  0.7546771E-02  0.1314916E+00
          2   -1    0    0  502    0  0.00000000000E+00  0.00000000000E+00  0.19850137831E+03  0.19850137831E+03  0.00000000000E+00 0. -1.
          1   -1    0    0  503    0 -0.00000000000E+00 -0.00000000000E+00 -0.14269930703E+04  0.14269930703E+04  0.00000000000E+00 0. -1.
         25    2    1    2    0    0  0.48106500711E+02 -0.15982555765E+03 -0.48211355901E+01  0.20858984871E+03  0.12501214881E+03 0.  0.
          4    1    3    3  501    0  0.29304725497E+02 -0.14269930821E+02 -0.45779206755E+02  0.56211622759E+02  0.12700000000E+01 0.  1.
         -4    1    3    3    0  501  0.18801775215E+02 -0.14555562682E+03  0.40958071165E+02  0.15237822595E+03  0.12700000000E+01 0.  1.
          2    1    1    2  502    0 -0.37734256182E+02  0.65268881270E+02  0.79908076300E+02  0.10985991812E+03  0.00000000000E+00 0. -1.
          1    1    1    2  503    0 -0.10372244529E+02  0.94556676376E+02 -0.13035786327E+04  0.13070446818E+04  0.00000000000E+00 0. -1.
<mgrwt>
<rscale>  0 0.85197674E+02</rscale>
<asrwt>0</asrwt>
<pdfrwt beam="1">  1        2 0.30538673E-01 0.75391650E+02</pdfrwt>
<pdfrwt beam="2">  1        1 0.21953740E+00 0.96279145E+02</pdfrwt>
<totfact> 0.20069868E+02</totfact>
</mgrwt>
</event>
<event>
 7    1  0.3113530E-004  0.5818433E+02  0.7546771E-02  0.1518477E+00
         -2   -1    0    0    0  501 -0.00000000000E+00  0.00000000000E+00  0.63615340732E+02  0.63615340732E+02  0.00000000000E+00 0.  1.
          1   -1    0    0  503    0  0.00000000000E+00 -0.00000000000E+00 -0.85344932372E+03  0.85344932372E+03  0.00000000000E+00 0. -1.
         25    2    1    2    0    0 -0.48302441677E+02  0.33166056950E+02 -0.80558570621E+03  0.81732833051E+03  0.12499662639E+03 0.  0.
          4    1    3    3  502    0 -0.89372177479E+02  0.36486742608E+02 -0.58783591471E+03  0.59571078890E+03  0.12700000000E+01 0.  1.
         -4    1    3    3    0  502  0.41069735801E+02 -0.33206856581E+01 -0.21774979150E+03  0.22161754161E+03  0.12700000000E+01 0.  1.
          1    1    1    2  503    0  0.31243866974E+02 -0.52332872642E+02 -0.11805838573E+02  0.62082901082E+02  0.00000000000E+00 0. -1.
         -2    1    1    2    0  501  0.17058574704E+02  0.19166815692E+02  0.27557561786E+02  0.37653432862E+02  0.00000000000E+00 0.  1.
<mgrwt>
<rscale>  0 0.38638404E+02</rscale>
<asrwt>0</asrwt>
<pdfrwt beam="2">  1        1 0.13129988E+00 0.58184333E+02</pdfrwt>
<pdfrwt beam="1">  1       -2 0.97869764E-02 0.25658562E+02</pdfrwt>
<totfact> 0.11472840E+03</totfact>
</mgrwt>
</event>
<event>
 7    1  0.3113530E-004  0.3971121E+02  0.7546771E-02  0.1585934E+00
         -1   -1    0    0    0  501 -0.00000000000E+00  0.00000000000E+00  0.34493143410E+02  0.34493143410E+02  0.00000000000E+00 0.  1.
          2   -1    0    0  503    0  0.00000000000E+00 -0.00000000000E+00 -0.36550903314E+03  0.36550903314E+03  0.00000000000E+00 0. -1.
         25    2    1    2    0    0 -0.43590543188E+02 -0.10911335197E+01 -0.21149227094E+03  0.24951378069E+03  0.12500728003E+03 0.  0.
          4    1    3    3  502    0 -0.34052042064E+02  0.56974709569E+02 -0.15181077440E+03  0.16569183210E+03  0.12700000000E+01 0. -1.
         -4    1    3    3    0  502 -0.95385011245E+01 -0.58065843089E+02 -0.59681496541E+02  0.83821948598E+02  0.12700000000E+01 0. -1.
          2    1    1    2  503    0  0.32854541118E+02  0.23003987668E+02 -0.11953782281E+03  0.12608685658E+03  0.00000000000E+00 0. -1.
         -1    1    1    2    0  501  0.10736002070E+02 -0.21912854148E+02  0.14204017331E-01  0.24401539278E+02  0.00000000000E+00 0.  1.
<mgrwt>
<rscale>  0 0.31128998E+02</rscale>
<asrwt>0</asrwt>
<pdfrwt beam="2">  1        2 0.56232159E-01 0.39711212E+02</pdfrwt>
<pdfrwt beam="1">  1       -1 0.53066374E-02 0.24401535E+02</pdfrwt>
<totfact> 0.12625616E+04</totfact>
</mgrwt>
</event>
<event>
 7    1  0.3113530E-004  0.9572856E+02  0.7546771E-02  0.1351495E+00
         -3   -1    0    0    0  501 -0.00000000000E+00  0.00000000000E+00  0.65610244749E+03  0.65610244749E+03  0.00000000000E+00 0.  1.
          1   -1    0    0  503    0  0.00000000000E+00 -0.00000000000E+00 -0.25469320423E+04  0.25469320423E+04  0.00000000000E+00 0. -1.
         25    2    1    2    0    0  0.73588405496E+02 -0.86123654009E+02  0.32015542676E+03  0.36187419891E+03  0.12498360431E+03 0.  0.
          4    1    3    3  502    0  0.98586600614E+02 -0.88885246059E+02  0.20668067259E+03  0.24563879602E+03  0.12700000000E+01 0. -1.
         -4    1    3    3    0  502 -0.24998195118E+02  0.27615920502E+01  0.11347475417E+03  0.11623540289E+03  0.12700000000E+01 0. -1.
          1    1    1    2  503    0 -0.54795995713E+02 -0.52514197052E+01 -0.25188604753E+04  0.25194619014E+04  0.00000000000E+00 0. -1.
         -3    1    1    2    0  501 -0.18792409783E+02  0.91375073715E+02  0.30787545375E+03  0.32169838946E+03  0.00000000000E+00 0.  1.
<mgrwt>
<rscale>  0 0.72591841E+02</rscale>
<asrwt>0</asrwt>
<pdfrwt beam="2">  1        1 0.39183570E+00 0.55047058E+02</pdfrwt>
<pdfrwt beam="1">  1       -3 0.10093884E+00 0.95728557E+02</pdfrwt>
<totfact> 0.89375706E-01</totfact>
</mgrwt>
</event>
<event>
 7    1  0.3113530E-004  0.4510775E+02  0.7546771E-02  0.1490768E+00
          3   -1    0    0  503    0 -0.00000000000E+00  0.00000000000E+00  0.26012143257E+02  0.26012143257E+02  0.00000000000E+00 0. -1.
          1   -1    0    0  502    0  0.00000000000E+00 -0.00000000000E+00 -0.11962206317E+04  0.11962206317E+04  0.00000000000E+00 0. -1.
         25    2    1    2    0    0  0.11530235419E+02  0.12877564624E+02 -0.27113076578E+03  0.29905892237E+03  0.12500227557E+03 0.  0.
          4    1    3    3  501    0 -0.44037898302E+01  0.59913461711E+02 -0.71776567515E+02  0.93608251790E+02  0.12700000000E+01 0. -1.
         -4    1    3    3    0  501  0.15934025250E+02 -0.47035897086E+02 -0.19935419827E+03  0.20545067058E+03  0.12700000000E+01 0. -1.
          1    1    1    2  502    0 -0.10476207977E+02  0.38594282169E+02 -0.85343610353E+03  0.85437254893E+03  0.00000000000E+00 0. -1.
          3    1    1    2  503    0 -0.10540274428E+01 -0.51471846794E+02 -0.45641619084E+02  0.68801303613E+02  0.00000000000E+00 0. -1.
<mgrwt>
<rscale>  0 0.42472323E+02</rscale>
<asrwt>0</asrwt>
<pdfrwt beam="2">  1        1 0.18403392E+00 0.39990868E+02</pdfrwt>
<pdfrwt beam="1">  1        3 0.40018686E-02 0.45107754E+02</pdfrwt>
<totfact> 0.18656964E+03</totfact>
</mgrwt>
</event>
<event>
 7    1  0.3113530E-004  0.8028334E+02  0.7546771E-02  0.1355667E+00
          1   -1    0    0  503    0 -0.00000000000E+00  0.00000000000E+00  0.99939652423E+03  0.99939652423E+03  0.00000000000E+00 0. -1.
          2   -1    0    0  502    0  0.00000000000E+00 -0.00000000000E+00 -0.46271634424E+03  0.46271634424E+03  0.00000000000E+00 0. -1.
         25    2    1    2    0    0  0.13646379713E+03  0.53167225739E+01 -0.12499597920E+03  0.22338086991E+03  0.12499753100E+03 0.  0.
          4    1    3    3  501    0  0.11926827527E+02  0.32650810002E+02 -0.81576876534E+02  0.88683280802E+02  0.12700000000E+01 0.  1.
         -4    1    3    3    0  501  0.12453696961E+03 -0.27334087429E+02 -0.43419102667E+02  0.13469758910E+03  0.12700000000E+01 0.  1.
          2    1    1    2  502    0 -0.74438986373E+02  0.75942031059E+01 -0.28259733224E+03  0.29233557225E+03  0.00000000000E+00 0. -1.
          1    1    1    2  503    0 -0.62024810760E+02 -0.12910925680E+02  0.94427349143E+03  0.94639642633E+03  0.00000000000E+00 0. -1.
<mgrwt>
<rscale>  0 0.71318274E+02</rscale>
<asrwt>0</asrwt>
<pdfrwt beam="2">  1        2 0.71187130E-01 0.80283343E+02</pdfrwt>
<pdfrwt beam="1">  1        1 0.15375331E+00 0.63354314E+02</pdfrwt>
<totfact> 0.16558133E+02</totfact>
</mgrwt>
</event>
<event>
 7    1  0.3113530E-004  0.1240653E+03  0.7546771E-02  0.1380036E+00
          1   -1    0    0  503    0 -0.00000000000E+00  0.00000000000E+00  0.26572312274E+03  0.26572312274E+03  0.00000000000E+00 0.  1.
          2   -1    0    0  502    0  0.00000000000E+00 -0.00000000000E+00 -0.13833855006E+04  0.13833855006E+04  0.00000000000E+00 0. -1.
         25    2    1    2    0    0 -0.48211228181E+02 -0.12290862091E+03  0.56682541293E+01  0.18190247080E+03  0.12500211263E+03 0.  0.
          4    1    3    3  501    0 -0.80847760861E+02 -0.44868314064E+02  0.23571938667E+02  0.95429425418E+02  0.12700000000E+01 0. -1.
         -4    1    3    3    0  501  0.32636532680E+02 -0.78040306842E+02 -0.17903684537E+02  0.86473045381E+02  0.12700000000E+01 0. -1.
          2    1    1    2  502    0  0.14726375697E+02  0.12306589297E+03 -0.12906405779E+04  0.12965782589E+04  0.00000000000E+00 0. -1.
          1    1    1    2  503    0  0.33484852484E+02 -0.15727206590E+00  0.16730994592E+03  0.17062789363E+03  0.00000000000E+00 0.  1.
<mgrwt>
<rscale>  0 0.64454291E+02</rscale>
<asrwt>0</asrwt>
<pdfrwt beam="2">  1        2 0.21282854E+00 0.12406534E+03</pdfrwt>
<pdfrwt beam="1">  1        1 0.40880481E-01 0.33485222E+02</pdfrwt>
<totfact> 0.23010949E+02</totfact>
</mgrwt>
</event>
<event>
 7    1  0.3113530E-004  0.4978313E+02  0.7546771E-02  0.1501922E+00
         -1   -1    0    0    0  501 -0.00000000000E+00  0.00000000000E+00  0.11139879366E+02  0.11139879366E+02  0.00000000000E+00 0.  1.
          2   -1    0    0  503    0  0.00000000000E+00 -0.00000000000E+00 -0.14857408861E+04  0.14857408861E+04  0.00000000000E+00 0. -1.
         25    2    1    2    0    0  0.41553438100E+02  0.32513805798E+02 -0.12019150657E+04  0.12095486286E+04  0.12499689586E+03 0.  0.
          4    1    3    3  502    0  0.39803508426E+01 -0.38368293516E+02 -0.71720785404E+03  0.71824556242E+03  0.12700000000E+01 0. -1.
         -4    1    3    3    0  502  0.37573087258E+02  0.70882099313E+02 -0.48470721163E+03  0.49130306613E+03  0.12700000000E+01 0. -1.
          2    1    1    2  503    0  0.89052175986E+01 -0.32345180947E+02 -0.16545900265E+03  0.16882593163E+03  0.00000000000E+00 0. -1.
         -1    1    1    2    0  501 -0.50458655699E+02 -0.16862485104E+00 -0.10722693841E+03  0.11850620528E+03  0.00000000000E+00 0.  1.
<mgrwt>
<rscale>  0 0.40867568E+02</rscale>
<asrwt>0</asrwt>
<pdfrwt beam="2">  1        2 0.22857540E+00 0.33548676E+02</pdfrwt>
<pdfrwt beam="1">  1       -1 0.17138285E-02 0.49783131E+02</pdfrwt>
<totfact> 0.12824314E+04</totfact>
</mgrwt>
</event>
<event>
 7    1  0.3113530E-004  0.3694331E+02  0.7546771E-02  0.1610512E+00
          1   -1    0    0  503    0 -0.00000000000E+00  0.00000000000E+00  0.79349730646E+03  0.79349730646E+03  0.00000000000E+00 0. -1.
          2   -1    0    0  502    0  0.00000000000E+00 -0.00000000000E+00 -0.13995993224E+03  0.13995993224E+03  0.00000000000E+00 0. -1.
         25    2    1    2    0    0 -0.23018302130E+02  0.75247086194E+01  0.12231277856E+03  0.17654572776E+03  0.12498605811E+03 0.  0.
          4    1    3    3  501    0 -0.17590003867E+02  0.67237015927E+01  0.14853303854E+03  0.14972739508E+03  0.12700000000E+01 0.  1.
         -4    1    3    3    0  501 -0.54282982632E+01  0.80100702666E+00 -0.26220259985E+02  0.26818332684E+02  0.12700000000E+01 0.  1.
          2    1    1    2  502    0 -0.12509910003E+02 -0.18841541312E+02 -0.11116417097E+03  0.11344150226E+03  0.00000000000E+00 0. -1.
          1    1    1    2  503    0  0.35528212133E+02  0.11316832693E+02  0.64238876664E+03  0.64347000868E+03  0.00000000000E+00 0. -1.
<mgrwt>
<rscale>  0 0.28905444E+02</rscale>
<asrwt>0</asrwt>
<pdfrwt beam="2">  1        2 0.21532298E-01 0.22616400E+02</pdfrwt>
<pdfrwt beam="1">  1        1 0.12207651E+00 0.36943311E+02</pdfrwt>
<totfact> 0.81080600E+02</totfact>
</mgrwt>
</event>
<event>
 7    1  0.3113530E-004  0.2251293E+03  0.7546771E-02  0.1199898E+00
          2   -1    0    0  503    0  0.00000000000E+00  0.00000000000E+00  0.96390443803E+03  0.96390443803E+03  0.00000000000E+00 0. -1.
          2   -1    0    0  502    0 -0.00000000000E+00 -0.00000000000E+00 -0.42332579886E+03  0.42332579886E+03  0.00000000000E+00 0.  1.
         25    2    1    2    0    0 -0.85619766143E+02 -0.28795452526E+03  0.37161269172E+03  0.49393114055E+03  0.12499370378E+03 0.  0.
          4    1    3    3  501    0 -0.96386120017E+01 -0.11381604081E+03  0.60170138795E+02  0.12910868479E+03  0.12700000000E+01 0.  1.
         -4    1    3    3    0  501 -0.75981154142E+02 -0.17413848445E+03  0.31144255293E+03  0.36482245576E+03  0.12700000000E+01 0.  1.
          2    1    1    2  502    0  0.14298564642E+02  0.99546925764E+02 -0.33541874719E+03  0.35017106583E+03  0.00000000000E+00 0.  1.
          2    1    1    2  503    0  0.71321201501E+02  0.18840759949E+03  0.50438469465E+03  0.54312803051E+03  0.00000000000E+00 0. -1.
<mgrwt>
<rscale>  0 0.15046905E+03</rscale>
<asrwt>0</asrwt>
<pdfrwt beam="1">  1        2 0.14829299E+00 0.22512930E+03</pdfrwt>
<pdfrwt beam="2">  1        2 0.65127046E-01 0.10056858E+03</pdfrwt>
<totfact> 0.32820917E+02</totfact>
</mgrwt>
</event>
<event>
 7    1  0.3113530E-004  0.4559024E+02  0.7546771E-02  0.1545735E+00
          1   -1    0    0  503    0  0.00000000000E+00  0.00000000000E+00  0.15769125878E+03  0.15769125878E+03  0.00000000000E+00 0. -1.
          1   -1    0    0  502    0 -0.00000000000E+00 -0.00000000000E+00 -0.41745533985E+03  0.41745533985E+03  0.00000000000E+00 0.  1.
         25    2    1    2    0    0  0.66050322357E+02  0.37075352417E+01  0.31634476617E+01  0.14146584611E+03  0.12500474917E+03 0.  0.
          4    1    3    3  501    0  0.63428747816E+02  0.35387882548E+02  0.47574309154E+02  0.86835684325E+02  0.12700000000E+01 0. -1.
         -4    1    3    3    0  501  0.26215745409E+01 -0.31680347306E+02 -0.44410861492E+02  0.54630161788E+02  0.12700000000E+01 0. -1.
          1    1    1    2  502    0 -0.24732447599E+02  0.11724518241E+02 -0.34202443539E+03  0.34311786998E+03  0.00000000000E+00 0.  1.
          1    1    1    2  503    0 -0.41317874758E+02 -0.15432053482E+02  0.79096906669E+02  0.90562882540E+02  0.00000000000E+00 0. -1.
<mgrwt>
<rscale>  0 0.35324771E+02</rscale>
<asrwt>0</asrwt>
<pdfrwt beam="1">  1        1 0.24260194E-01 0.45590244E+02</pdfrwt>
<pdfrwt beam="2">  1        1 0.64223897E-01 0.27370756E+02</pdfrwt>
<totfact> 0.13367948E+03</totfact>
</mgrwt>
</event>
<event>
 7    1  0.3113530E-004  0.9004569E+02  0.7546771E-02  0.1341272E+00
         -1   -1    0    0    0  502 -0.00000000000E+00  0.00000000000E+00  0.24620188685E+03  0.24620188685E+03  0.00000000000E+00 0.  1.
         -2   -1    0    0    0  501  0.00000000000E+00 -0.00000000000E+00 -0.27553992324E+03  0.27553992324E+03  0.00000000000E+00 0. -1.
         25    2    1    2    0    0 -0.84795626427E+02 -0.11431799130E+03  0.18029570465E+02  0.19028419160E+03  0.12499642702E+03 0.  0.
          4    1    3    3  503    0 -0.99021844738E+02 -0.99336314534E+02  0.52753861748E+02  0.14985863989E+03  0.12700000000E+01 0. -1.
         -4    1    3    3    0  503  0.14226218311E+02 -0.14981676767E+02 -0.34724291283E+02  0.40425551713E+02  0.12700000000E+01 0. -1.
         -2    1    1    2    0  501  0.50693291246E+02  0.38877617756E+02 -0.17106860474E+03  0.18260817743E+03  0.00000000000E+00 0. -1.
         -1    1    1    2    0  502  0.34102335181E+02  0.75440373545E+02  0.12370099788E+03  0.14884944105E+03  0.00000000000E+00 0.  1.
<mgrwt>
<rscale>  0 0.75845624E+02</rscale>
<asrwt>0</asrwt>
<pdfrwt beam="2">  1       -2 0.42390758E-01 0.63884888E+02</pdfrwt>
<pdfrwt beam="1">  1       -1 0.37877213E-01 0.90045688E+02</pdfrwt>
<totfact> 0.26608419E+02</totfact>
</mgrwt>
</event>
<event>
 7    1  0.3113530E-004  0.6846773E+02  0.7546771E-02  0.1436111E+00
          1   -1    0    0  503    0  0.00000000000E+00  0.00000000000E+00  0.53427166332E+03  0.53427166332E+03  0.00000000000E+00 0. -1.
         -2   -1    0    0    0  501 -0.00000000000E+00 -0.00000000000E+00 -0.47485031376E+02  0.47485031376E+02  0.00000000000E+00 0.  1.
         25    2    1    2    0    0  0.54205259241E+02  0.72091096826E+02  0.11976717884E+03  0.19520405836E+03  0.12500044361E+03 0.  0.
          4    1    3    3  502    0  0.22251814588E+02  0.48294082131E+02 -0.14512019380E+02  0.55133231610E+02  0.12700000000E+01 0. -1.
         -4    1    3    3    0  502  0.31953444654E+02  0.23797014695E+02  0.13427919822E+03  0.14007082675E+03  0.12700000000E+01 0. -1.
          1    1    1    2  503    0 -0.33984438748E+02 -0.19372688484E+02  0.28065880579E+03  0.28337185535E+03  0.00000000000E+00 0. -1.
         -2    1    1    2    0  501 -0.20220820494E+02 -0.52718408341E+02  0.86360647312E+02  0.10318078098E+03  0.00000000000E+00 0.  1.
<mgrwt>
<rscale>  0 0.51752709E+02</rscale>
<asrwt>0</asrwt>
<pdfrwt beam="1">  1        1 0.82195636E-01 0.39118322E+02</pdfrwt>
<pdfrwt beam="2">  1       -2 0.73053898E-02 0.68467733E+02</pdfrwt>
<totfact> 0.37488729E+03</totfact>
</mgrwt>
</event>
<event>
 7    1  0.3113530E-004  0.2842649E+02  0.7546771E-02  0.1625889E+00
         -3   -1    0    0    0  501 -0.00000000000E+00  0.00000000000E+00  0.39410100591E+03  0.39410100591E+03  0.00000000000E+00 0.  1.
          2   -1    0    0  503    0  0.00000000000E+00 -0.00000000000E+00 -0.44868497728E+02  0.44868497728E+02  0.00000000000E+00 0. -1.
         25    2    1    2    0    0 -0.17303556614E+02  0.36869435217E+02  0.15836350453E+03  0.20582336097E+03  0.12500195210E+03 0.  0.
          4    1    3    3  502    0  0.41897026320E+02 -0.29059113028E+01  0.13135382457E+02  0.44022225151E+02  0.12700000000E+01 0.  1.
         -4    1    3    3    0  502 -0.59200582934E+02  0.39775346519E+02  0.14522812207E+03  0.16180113581E+03  0.12700000000E+01 0.  1.
          2    1    1    2  503    0 -0.85967231461E+01 -0.25439083863E+02 -0.11206606754E+02  0.29097056064E+02  0.00000000000E+00 0. -1.
         -3    1    1    2    0  501  0.25900279760E+02 -0.11430351354E+02  0.20207561041E+03  0.20404908661E+03  0.00000000000E+00 0.  1.
<mgrwt>
<rscale>  0 0.27628232E+02</rscale>
<asrwt>0</asrwt>
<pdfrwt beam="2">  1        2 0.69028461E-02 0.26852386E+02</pdfrwt>
<pdfrwt beam="1">  1       -3 0.60630922E-01 0.28426494E+02</pdfrwt>
<totfact> 0.12621438E+03</totfact>
</mgrwt>
</event>
<event>
 7    1  0.3113530E-004  0.8280234E+02  0.7546771E-02  0.1441416E+00
          2   -1    0    0  502    0  0.00000000000E+00  0.00000000000E+00  0.26119268877E+04  0.26119268877E+04  0.00000000000E+00 0. -1.
          3   -1    0    0  503    0 -0.00000000000E+00 -0.00000000000E+00 -0.13591003170E+02  0.13591003170E+02  0.00000000000E+00 0. -1.
         25    2    1    2    0    0 -0.67082177157E+02 -0.13425462265E+02  0.86989777544E+03  0.88149064742E+03  0.12499344080E+03 0.  0.
          4    1    3    3  501    0  0.22290624303E+02  0.25190210082E+02  0.41105942049E+03  0.41243530243E+03  0.12700000000E+01 0.  1.
         -4    1    3    3    0  501 -0.89372801460E+02 -0.38615672347E+02  0.45883835494E+03  0.46905534498E+03  0.12700000000E+01 0.  1.
          2    1    1    2  502    0 -0.93647224740E+01 -0.29642775215E+02  0.14838674736E+04  0.14841930708E+04  0.00000000000E+00 0. -1.
          3    1    1    2  503    0  0.76446899631E+02  0.43068237480E+02  0.24457063551E+03  0.25983417269E+03  0.00000000000E+00 0. -1.
<mgrwt>
<rscale>  0 0.50735233E+02</rscale>
<asrwt>0</asrwt>
<pdfrwt beam="1">  1        2 0.40183451E+00 0.31086848E+02</pdfrwt>
<pdfrwt beam="2">  1        3 0.20909256E-02 0.82802342E+02</pdfrwt>
<totfact> 0.22683694E+03</totfact>
</mgrwt>
</event>
<event>
 7    1  0.3113530E-004  0.1054808E+03  0.7546771E-02  0.1333164E+00
          1   -1    0    0  503    0 -0.00000000000E+00  0.00000000000E+00  0.14490572764E+04  0.14490572764E+04  0.00000000000E+00 0. -1.
          2   -1    0    0  502    0  0.00000000000E+00 -0.00000000000E+00 -0.63837221957E+03  0.63837221957E+03  0.00000000000E+00 0. -1.
         25    2    1    2    0    0 -0.84018810381E+02  0.10576097239E+03  0.21011135817E+03  0.27931429895E+03  0.12500060394E+03 0.  0.
          4    1    3    3  501    0 -0.73051990821E+02  0.76005963496E+02  0.22172908025E+03  0.24551761195E+03  0.12700000000E+01 0. -1.
         -4    1    3    3    0  501 -0.10966819560E+02  0.29755008896E+02 -0.11617722079E+02  0.33796686997E+02  0.12700000000E+01 0. -1.
          2    1    1    2  502    0  0.93541823248E+02 -0.48018470253E+02 -0.59847383936E+03  0.60764033983E+03  0.00000000000E+00 0. -1.
          1    1    1    2  503    0 -0.95230128676E+01 -0.57742502139E+02  0.11990475381E+04  0.12004748572E+04  0.00000000000E+00 0. -1.
<mgrwt>
<rscale>  0 0.78568452E+02</rscale>
<asrwt>0</asrwt>
<pdfrwt beam="2">  1        2 0.98211112E-01 0.10548081E+03</pdfrwt>
<pdfrwt beam="1">  1        1 0.22293189E+00 0.58522511E+02</pdfrwt>
<totfact> 0.58730912E+01</totfact>
</mgrwt>
</event>
<event>
 7    1  0.3113530E-004  0.4919477E+02  0.7546771E-02  0.1506016E+00
          2   -1    0    0  502    0  0.00000000000E+00  0.00000000000E+00  0.14234912038E+04  0.14234912038E+04  0.00000000000E+00 0. -1.
          2   -1    0    0  503    0 -0.00000000000E+00 -0.00000000000E+00 -0.34001225498E+02  0.34001225498E+02  0.00000000000E+00 0. -1.
         25    2    1    2    0    0  0.26556100313E+02 -0.34607983518E+02  0.46732933321E+03  0.48571950320E+03  0.12499516440E+03 0.  0.
          4    1    3    3  501    0  0.72025493649E+02 -0.45681947875E+02  0.31635490178E+03  0.32765309227E+03  0.12700000000E+01 0. -1.
         -4    1    3    3    0  501 -0.45469393336E+02  0.11073964357E+02  0.15097443144E+03  0.15806641093E+03  0.12700000000E+01 0. -1.
          2    1    1    2  502    0 -0.49201989151E+02  0.10586342787E+02  0.93499803030E+03  0.93635154886E+03  0.00000000000E+00 0. -1.
          2    1    1    2  503    0  0.22645888838E+02  0.24021640731E+02 -0.12837385226E+02  0.35421377219E+02  0.00000000000E+00 0. -1.
<mgrwt>
<rscale>  0 0.40299875E+02</rscale>
<asrwt>0</asrwt>
<pdfrwt beam="1">  1        2 0.21899860E+00 0.49194771E+02</pdfrwt>
<pdfrwt beam="2">  1        2 0.52309589E-02 0.33013263E+02</pdfrwt>
<totfact> 0.32226097E+03</totfact>
</mgrwt>
</event>
<event>
 7    1  0.3113530E-004  0.4317088E+02  0.7546771E-02  0.1562360E+00
          1   -1    0    0  502    0  0.00000000000E+00  0.00000000000E+00  0.11038027121E+03  0.11038027121E+03  0.00000000000E+00 0. -1.
          1   -1    0    0  503    0 -0.00000000000E+00 -0.00000000000E+00 -0.22518635244E+04  0.22518635244E+04  0.00000000000E+00 0. -1.
         25    2    1    2    0    0 -0.24874465411E+02  0.14556323828E+02 -0.50576669008E+03  0.52178127597E+03  0.12500051826E+03 0.  0.
          4    1    3    3  501    0 -0.40555989735E+02  0.50621271333E+02 -0.44283016782E+03  0.44755722746E+03  0.12700000000E+01 0.  1.
         -4    1    3    3    0  501  0.15681524324E+02 -0.36064947505E+02 -0.62936522256E+02  0.74224048511E+02  0.12700000000E+01 0.  1.
          1    1    1    2  502    0 -0.18837700877E+02 -0.17908972088E+02  0.10044196561E+03  0.10375056005E+03  0.00000000000E+00 0. -1.
          1    1    1    2  503    0  0.43712166287E+02  0.33526482603E+01 -0.17361585287E+04  0.17367119596E+04  0.00000000000E+00 0. -1.
<mgrwt>
<rscale>  0 0.33497801E+02</rscale>
<asrwt>0</asrwt>
<pdfrwt beam="1">  1        1 0.16981581E-01 0.25992119E+02</pdfrwt>
<pdfrwt beam="2">  1        1 0.34644053E+00 0.43170880E+02</pdfrwt>
<totfact> 0.10099086E+02</totfact>
</mgrwt>
</event>
<event>
 7    1  0.3113530E-004  0.1633019E+03  0.7546771E-02  0.1215654E+00
          2   -1    0    0  503    0  0.00000000000E+00  0.00000000000E+00  0.48156757990E+03  0.48156757990E+03  0.00000000000E+00 0. -1.
         -2   -1    0    0    0  501 -0.00000000000E+00 -0.00000000000E+00 -0.11484046159E+04  0.11484046159E+04  0.00000000000E+00 0.  1.
         25    2    1    2    0    0 -0.24823447843E+03 -0.46278814285E+02  0.29415104148E+03  0.40732259330E+03  0.12499909951E+03 0.  0.
          4    1    3    3  502    0 -0.85774542984E+02 -0.47687670594E+02  0.19136968557E+03  0.21507058285E+03  0.12700000000E+01 0.  1.
         -4    1    3    3    0  502 -0.16245993544E+03  0.14088563088E+01  0.10278135591E+03  0.19225201045E+03  0.12700000000E+01 0.  1.
          2    1    1    2  503    0  0.11043512906E+03 -0.38947968805E+02  0.97164744399E+02  0.15216389045E+03  0.00000000000E+00 0. -1.
         -2    1    1    2    0  501  0.13779934937E+03  0.85226783090E+02 -0.10581528219E+04  0.10704857120E+04  0.00000000000E+00 0.  1.
<mgrwt>
<rscale>  0 0.13828582E+03</rscale>
<asrwt>0</asrwt>
<pdfrwt beam="1">  1        2 0.74087320E-01 0.11710193E+03</pdfrwt>
<pdfrwt beam="2">  1       -2 0.17667763E+00 0.16330191E+03</pdfrwt>
<totfact> 0.14039451E+01</totfact>
</mgrwt>
</event>
<event>
 7    1  0.3113530E-004  0.6585721E+02  0.7546771E-02  0.1455433E+00
          3   -1    0    0  503    0  0.00000000000E+00  0.00000000000E+00  0.38100286679E+03  0.38100286679E+03  0.00000000000E+00 0. -1.
          3   -1    0    0  502    0 -0.00000000000E+00 -0.00000000000E+00 -0.21474408517E+03  0.21474408517E+03  0.00000000000E+00 0. -1.
         25    2    1    2    0    0  0.23936287911E+02 -0.53251664238E+02 -0.73812399220E+02  0.15646942161E+03  0.12500289596E+03 0.  0.
          4    1    3    3  501    0 -0.78231516508E+01  0.35982657142E+02 -0.43509443700E+02  0.57014365802E+02  0.12700000000E+01 0. -1.
         -4    1    3    3    0  501  0.31759439561E+02 -0.89234321380E+02 -0.30302955520E+02  0.99455055812E+02  0.12700000000E+01 0. -1.
          3    1    1    2  502    0  0.72600871942E+01  0.69647154641E+02 -0.86228537722E+02  0.11108013204E+03  0.00000000000E+00 0. -1.
          3    1    1    2  503    0 -0.31196375105E+02 -0.16395490403E+02  0.32629971856E+03  0.32819739831E+03  0.00000000000E+00 0. -1.
<mgrwt>
<rscale>  0 0.48176397E+02</rscale>
<asrwt>0</asrwt>
<pdfrwt beam="1">  1        3 0.58615826E-01 0.35242388E+02</pdfrwt>
<pdfrwt beam="2">  1        3 0.33037552E-01 0.65857206E+02</pdfrwt>
<totfact> 0.53989889E+01</totfact>
</mgrwt>
</event>
<event>
 7    1  0.3113530E-004  0.1888647E+03  0.7546771E-02  0.1202222E+00
          1   -1    0    0  503    0 -0.00000000000E+00  0.00000000000E+00  0.43074164396E+03  0.43074164396E+03  0.00000000000E+00 0. -1.
          2   -1    0    0  502    0  0.00000000000E+00 -0.00000000000E+00 -0.13091077304E+04  0.13091077304E+04  0.00000000000E+00 0. -1.
         25    2    1    2    0    0  0.85364850203E+02 -0.26718728109E+03 -0.14071524507E+03  0.33778817827E+03  0.12499548936E+03 0.  0.
          4    1    3    3  501    0  0.47766671024E+02 -0.25115850879E+02 -0.57974112262E+02  0.79215348378E+02  0.12700000000E+01 0.  1.
         -4    1    3    3    0  501  0.37598179179E+02 -0.24207143021E+03 -0.82741132806E+02  0.25857282990E+03  0.12700000000E+01 0.  1.
          2    1    1    2  502    0 -0.50129767117E+01  0.18228451770E+03 -0.10514760923E+04  0.10671713771E+04  0.00000000000E+00 0. -1.
          1    1    1    2  503    0 -0.80351873491E+02  0.84902763388E+02  0.31382525090E+03  0.33488981905E+03  0.00000000000E+00 0. -1.
<mgrwt>
<rscale>  0 0.14858570E+03</rscale>
<asrwt>0</asrwt>
<pdfrwt beam="2">  1        2 0.20140119E+00 0.18886468E+03</pdfrwt>
<pdfrwt beam="1">  1        1 0.66267946E-01 0.11689698E+03</pdfrwt>
<totfact> 0.13599460E+02</totfact>
</mgrwt>
</event>
<event>
 7    1  0.3113530E-004  0.4689544E+02  0.7546771E-02  0.1505946E+00
          3   -1    0    0  503    0  0.00000000000E+00  0.00000000000E+00  0.22251223195E+02  0.22251223195E+02  0.00000000000E+00 0. -1.
         -3   -1    0    0    0  501 -0.00000000000E+00 -0.00000000000E+00 -0.62280733012E+03  0.62280733012E+03  0.00000000000E+00 0.  1.
         25    2    1    2    0    0 -0.43370531530E+02 -0.12402284187E+02 -0.28548792100E+03  0.31490065071E+03  0.12499698844E+03 0.  0.
          4    1    3    3  502    0 -0.50312613053E+02 -0.26852393783E+02 -0.41890862360E+02  0.70773351859E+02  0.12700000000E+01 0.  1.
         -4    1    3    3    0  502  0.69420815228E+01  0.14450109595E+02 -0.24359705864E+03  0.24412729885E+03  0.12700000000E+01 0.  1.
          3    1    1    2  503    0  0.45527501890E+02 -0.22178968855E+02 -0.97696584768E+02  0.11004218629E+03  0.00000000000E+00 0. -1.
         -3    1    1    2    0  501 -0.21569703599E+01  0.34581253042E+02 -0.21737160115E+03  0.22011571632E+03  0.00000000000E+00 0.  1.
<mgrwt>
<rscale>  0 0.40309487E+02</rscale>
<asrwt>0</asrwt>
<pdfrwt beam="1">  1        3 0.34232649E-02 0.46895442E+02</pdfrwt>
<pdfrwt beam="2">  1       -3 0.95816517E-01 0.34648457E+02</pdfrwt>
<totfact> 0.76570411E+02</totfact>
</mgrwt>
</event>
<event>
 7    1  0.3113530E-004  0.7445623E+02  0.7546771E-02  0.1507417E+00
          1   -1    0    0  502    0  0.00000000000E+00  0.00000000000E+00  0.42338757707E+03  0.42338757707E+03  0.00000000000E+00 0. -1.
          3   -1    0    0  503    0 -0.00000000000E+00 -0.00000000000E+00 -0.20806089911E+03  0.20806089911E+03  0.00000000000E+00 0. -1.
         25    2    1    2    0    0  0.18934130322E+02  0.91951120929E+02  0.35720792163E+02  0.16036072804E+03  0.12500431263E+03 0.  0.
          4    1    3    3  501    0 -0.37752326101E+02  0.75365348300E+02  0.52041340593E+02  0.99071125365E+02  0.12700000000E+01 0. -1.
         -4    1    3    3    0  501  0.56686456423E+02  0.16585772629E+02 -0.16320548431E+02  0.61289602679E+02  0.12700000000E+01 0. -1.
          1    1    1    2  502    0 -0.76753917239E+00 -0.21591924987E+02  0.31589690727E+03  0.31663489442E+03  0.00000000000E+00 0. -1.
          3    1    1    2  503    0 -0.18166591149E+02 -0.70359195942E+02 -0.13629102147E+03  0.15445285372E+03  0.00000000000E+00 0. -1.
<mgrwt>
<rscale>  0 0.40108212E+02</rscale>
<asrwt>0</asrwt>
<pdfrwt beam="1">  1        1 0.65136550E-01 0.21605563E+02</pdfrwt>
<pdfrwt beam="2">  1        3 0.32009369E-01 0.74456226E+02</pdfrwt>
<totfact> 0.28118440E+02</totfact>
</mgrwt>
</event>
<event>
 7    1  0.3113530E-004  0.5890222E+02  0.7546771E-02  0.1411183E+00
         -2   -1    0    0    0  501 -0.00000000000E+00  0.00000000000E+00  0.14648319290E+03  0.14648319290E+03  0.00000000000E+00 0.  1.
          2   -1    0    0  503    0  0.00000000000E+00 -0.00000000000E+00 -0.16256182603E+04  0.16256182603E+04  0.00000000000E+00 0. -1.
         25    2    1    2    0    0 -0.49740526262E+01  0.68540505074E+01 -0.69569814547E+02  0.14330649968E+03  0.12500029819E+03 0.  0.
          4    1    3    3  502    0  0.79693794465E+01  0.66145757139E+00  0.35928368231E+02  0.36829459385E+02  0.12700000000E+01 0. -1.
         -4    1    3    3    0  502 -0.12943432073E+02  0.61925929360E+01 -0.10549818278E+03  0.10647704030E+03  0.12700000000E+01 0. -1.
          2    1    1    2  503    0  0.49288210763E+02  0.32251267671E+02 -0.15105977359E+04  0.15117456769E+04  0.00000000000E+00 0. -1.
         -2    1    1    2    0  501 -0.44314158137E+02 -0.39105318179E+02  0.10103248304E+03  0.11704927659E+03  0.00000000000E+00 0.  1.
<mgrwt>
<rscale>  0 0.56930755E+02</rscale>
<asrwt>0</asrwt>
<pdfrwt beam="2">  1        2 0.25009514E+00 0.58902224E+02</pdfrwt>
<pdfrwt beam="1">  1       -2 0.22535874E-01 0.55025271E+02</pdfrwt>
<totfact> 0.21851865E+02</totfact>
</mgrwt>
</event>
<event>
 7    1  0.3113530E-004  0.1666819E+03  0.7546771E-02  0.1248667E+00
          2   -1    0    0  503    0  0.00000000000E+00  0.00000000000E+00  0.82671727817E+03  0.82671727817E+03  0.00000000000E+00 0. -1.
         -2   -1    0    0    0  501 -0.00000000000E+00 -0.00000000000E+00 -0.89759836423E+03  0.89759836423E+03  0.00000000000E+00 0.  1.
         25    2    1    2    0    0 -0.50486023326E+02  0.13086317314E+03 -0.11247541852E+03  0.21897430175E+03  0.12500006568E+03 0.  0.
          4    1    3    3  502    0  0.14653613815E+02  0.23870779501E+02  0.21667930329E+02  0.35435217180E+02  0.12700000000E+01 0. -1.
         -4    1    3    3    0  502 -0.65139637141E+02  0.10699239364E+03 -0.13414334885E+03  0.18353908457E+03  0.12700000000E+01 0. -1.
          2    1    1    2  503    0 -0.22481214550E+02 -0.16758392908E+03  0.76189086205E+03  0.78042774423E+03  0.00000000000E+00 0. -1.
         -2    1    1    2    0  501  0.72967237876E+02  0.36720755938E+02 -0.72029652960E+03  0.72491359641E+03  0.00000000000E+00 0.  1.
<mgrwt>
<rscale>  0 0.11668594E+03</rscale>
<asrwt>0</asrwt>
<pdfrwt beam="1">  1        2 0.12718727E+00 0.16668192E+03</pdfrwt>
<pdfrwt beam="2">  1       -2 0.13809206E+00 0.81686178E+02</pdfrwt>
<totfact> 0.14534923E+01</totfact>
</mgrwt>
</event>
<event>
 7    1  0.3113530E-004  0.7621458E+02  0.7546771E-02  0.1398940E+00
         -1   -1    0    0    0  501 -0.00000000000E+00  0.00000000000E+00  0.11867329503E+04  0.11867329503E+04  0.00000000000E+00 0.  1.
          1   -1    0    0  503    0  0.00000000000E+00 -0.00000000000E+00 -0.21683927299E+02  0.21683927299E+02  0.00000000000E+00 0. -1.
         25    2    1    2    0    0  0.36076204930E+02  0.55422662106E+02  0.60106639105E+03  0.61747858188E+03  0.12500331437E+03 0.  0.
          4    1    3    3  502    0  0.44799669915E+02 -0.30960599383E+02  0.21975115391E+03  0.22640174841E+03  0.12700000000E+01 0.  1.
         -4    1    3    3    0  502 -0.87234649852E+01  0.86383261488E+02  0.38131523714E+03  0.39107683348E+03  0.12700000000E+01 0.  1.
          1    1    1    2  503    0  0.33714107799E+01 -0.80644484589E+02  0.12077007176E+03  0.14525945593E+03  0.00000000000E+00 0. -1.
         -1    1    1    2    0  501 -0.39447615710E+02  0.25221822483E+02  0.44321256016E+03  0.44567883975E+03  0.00000000000E+00 0.  1.
<mgrwt>
<rscale>  0 0.59736777E+02</rscale>
<asrwt>0</asrwt>
<pdfrwt beam="2">  1        1 0.33359897E-02 0.76214580E+02</pdfrwt>
<pdfrwt beam="1">  1       -1 0.18257425E+00 0.46821520E+02</pdfrwt>
<totfact> 0.65277056E+02</totfact>
</mgrwt>
</event>
<event>
 7    1  0.3113530E-004  0.5890183E+02  0.7546771E-02  0.1429780E+00
          2   -1    0    0  502    0  0.00000000000E+00  0.00000000000E+00  0.26209863309E+04  0.26209863309E+04  0.00000000000E+00 0. -1.
          2   -1    0    0  503    0 -0.00000000000E+00 -0.00000000000E+00 -0.36390656549E+02  0.36390656549E+02  0.00000000000E+00 0. -1.
         25    2    1    2    0    0 -0.26047974732E+02 -0.55544975345E+02  0.15748576516E+03  0.21021377719E+03  0.12499729845E+03 0.  0.
          4    1    3    3  501    0 -0.16377721179E+02 -0.73039616149E+02  0.17057900149E+03  0.18628425571E+03  0.12700000000E+01 0.  1.
         -4    1    3    3    0  501 -0.96702535527E+01  0.17494640803E+02 -0.13093236327E+02  0.23929521477E+02  0.12700000000E+01 0.  1.
          2    1    1    2  502    0  0.47427939728E+02 -0.50610832054E+01  0.23313442924E+04  0.23318321624E+04  0.00000000000E+00 0. -1.
          2    1    1    2  503    0 -0.21379964996E+02  0.60606058551E+02  0.95765616834E+02  0.11533104787E+03  0.00000000000E+00 0. -1.
<mgrwt>
<rscale>  0 0.53004272E+02</rscale>
<asrwt>0</asrwt>
<pdfrwt beam="1">  1        2 0.40322852E+00 0.47697212E+02</pdfrwt>
<pdfrwt beam="2">  1        2 0.55985646E-02 0.58901826E+02</pdfrwt>
<totfact> 0.80885263E+02</totfact>
</mgrwt>
</event>
<event>
 7    1  0.3113530E-004  0.1855734E+03  0.7546771E-02  0.1384920E+00
          2   -1    0    0  503    0  0.00000000000E+00  0.00000000000E+00  0.31495269245E+04  0.31495269245E+04  0.00000000000E+00 0. -1.
         -2   -1    0    0    0  501 -0.00000000000E+00 -0.00000000000E+00 -0.99225009641E+03  0.99225009641E+03  0.00000000000E+00 0.  1.
         25    2    1    2    0    0 -0.60991361598E+02 -0.16350259928E+03  0.20527861870E+04  0.20639787982E+04  0.12499721631E+03 0.  0.
          4    1    3    3  502    0 -0.71397806488E+02 -0.67366384267E+02  0.14654373984E+04  0.14687219812E+04  0.12700000000E+01 0.  1.
         -4    1    3    3    0  502  0.10406444890E+02 -0.96136215009E+02  0.58734878854E+03  0.59525681704E+03  0.12700000000E+01 0.  1.
          2    1    1    2  503    0  0.14232271250E+02 -0.16135703717E+02  0.10823059639E+04  0.10825198003E+04  0.00000000000E+00 0. -1.
         -2    1    1    2    0  501  0.46759090348E+02  0.17963830299E+03 -0.97781532282E+03  0.99527842234E+03  0.00000000000E+00 0.  1.
<mgrwt>
<rscale>  0 0.63187905E+02</rscale>
<asrwt>0</asrwt>
<pdfrwt beam="1">  1        2 0.48454260E+00 0.21515540E+02</pdfrwt>
<pdfrwt beam="2">  1       -2 0.15265386E+00 0.18557337E+03</pdfrwt>
<totfact> 0.83648823E-01</totfact>
</mgrwt>
</event>
<event>
 7    1  0.3113530E-004  0.5027237E+02  0.7546771E-02  0.1539578E+00
          2   -1    0    0  502    0  0.00000000000E+00  0.00000000000E+00  0.10883448928E+04  0.10883448928E+04  0.00000000000E+00 0.  1.
          1   -1    0    0  503    0 -0.00000000000E+00 -0.00000000000E+00 -0.13162692893E+03  0.13162692893E+03  0.00000000000E+00 0. -1.
         25    2    1    2    0    0 -0.40846968627E+02  0.13089910832E+02  0.20586702399E+03  0.24463469591E+03  0.12500032905E+03 0.  0.
          4    1    3    3  501    0  0.26728169963E+02 -0.20031028604E+02  0.10131866049E+02  0.34927135384E+02  0.12700000000E+01 0. -1.
         -4    1    3    3    0  501 -0.67575138591E+02  0.33120939437E+02  0.19573515795E+03  0.20970756052E+03  0.12700000000E+01 0. -1.
          2    1    1    2  502    0 -0.84817933478E+01 -0.24400872674E+02  0.85718481111E+03  0.85757398736E+03  0.00000000000E+00 0.  1.
          1    1    1    2  503    0  0.49328761975E+02  0.11310961842E+02 -0.10633387122E+03  0.11776313848E+03  0.00000000000E+00 0. -1.
<mgrwt>
<rscale>  0 0.36037282E+02</rscale>
<asrwt>0</asrwt>
<pdfrwt beam="1">  1        2 0.16743767E+00 0.25832991E+02</pdfrwt>
<pdfrwt beam="2">  1        1 0.20250297E-01 0.50272371E+02</pdfrwt>
<totfact> 0.85885669E+02</totfact>
</mgrwt>
</event>
<event>
 7    1  0.3113530E-004  0.9943878E+02  0.7546771E-02  0.1308666E+00
         -1   -1    0    0    0  501 -0.00000000000E+00  0.00000000000E+00  0.11337498229E+03  0.11337498229E+03  0.00000000000E+00 0.  1.
          1   -1    0    0  503    0  0.00000000000E+00 -0.00000000000E+00 -0.13877830949E+04  0.13877830949E+04  0.00000000000E+00 0. -1.
         25    2    1    2    0    0  0.89369622718E+01 -0.16077576205E+03 -0.20786940112E+03  0.29114083485E+03  0.12499833134E+03 0.  0.
          4    1    3    3  502    0  0.27267454604E+02  0.34490797834E+00  0.25150235211E+00  0.27300351565E+02  0.12700000000E+01 0.  1.
         -4    1    3    3    0  502 -0.18330492333E+02 -0.16112067002E+03 -0.20812090347E+03  0.26384048328E+03  0.12700000000E+01 0.  1.
          1    1    1    2  503    0  0.27649152897E+02  0.92746446963E+02 -0.11147630149E+04  0.11189561915E+04  0.00000000000E+00 0. -1.
         -1    1    1    2    0  501 -0.36586115169E+02  0.68029315083E+02  0.48224303440E+02  0.91061050818E+02  0.00000000000E+00 0.  1.
<mgrwt>
<rscale>  0 0.87641211E+02</rscale>
<asrwt>0</asrwt>
<pdfrwt beam="2">  1        1 0.21350508E+00 0.99438776E+02</pdfrwt>
<pdfrwt beam="1">  1       -1 0.17442306E-01 0.77243327E+02</pdfrwt>
<totfact> 0.22430693E+02</totfact>
</mgrwt>
</event>
<event>
 7    1  0.3113530E-004  0.9686617E+02  0.7546771E-02  0.1399657E+00
          1   -1    0    0  503    0 -0.00000000000E+00  0.00000000000E+00  0.87754254944E+02  0.87754254944E+02  0.00000000000E+00 0. -1.
          2   -1    0    0  502    0  0.00000000000E+00 -0.00000000000E+00 -0.11395895949E+04  0.11395895949E+04  0.00000000000E+00 0.  1.
         25    2    1    2    0    0 -0.63531514438E+02 -0.10611899968E+03 -0.25809733406E+03  0.31231181164E+03  0.12500775345E+03 0.  0.
          4    1    3    3  501    0 -0.82622084585E+02 -0.31796667885E+02 -0.83981457926E+02  0.12203251667E+03  0.12700000000E+01 0. -1.
         -4    1    3    3    0  501  0.19090570148E+02 -0.74322331795E+02 -0.17411587614E+03  0.19027929497E+03  0.12700000000E+01 0. -1.
          2    1    1    2  502    0  0.31015409616E+02  0.89251938268E+02 -0.84597293865E+03  0.85123326829E+03  0.00000000000E+00 0.  1.
          1    1    1    2  503    0  0.32516104821E+02  0.16867061412E+02  0.52234932793E+02  0.63798769873E+02  0.00000000000E+00 0. -1.
<mgrwt>
<rscale>  0 0.59567255E+02</rscale>
<asrwt>0</asrwt>
<pdfrwt beam="2">  1        2 0.17532146E+00 0.96866168E+02</pdfrwt>
<pdfrwt beam="1">  1        1 0.13500656E-01 0.36630518E+02</pdfrwt>
<totfact> 0.12062100E+03</totfact>
</mgrwt>
</event>
<event>
 7    1  0.3113530E-004  0.6117576E+02  0.7546771E-02  0.1463767E+00
          2   -1    0    0  503    0  0.00000000000E+00  0.00000000000E+00  0.89728573855E+03  0.89728573855E+03  0.00000000000E+00 0. -1.
         -1   -1    0    0    0  501 -0.00000000000E+00 -0.00000000000E+00 -0.20436841319E+02  0.20436841319E+02  0.00000000000E+00 0.  1.
         25    2    1    2    0    0  0.43941023430E+02 -0.36346662874E+02  0.71467715793E+03  0.72776634170E+03  0.12501405762E+03 0.  0.
          4    1    3    3  502    0  0.21585566516E+02  0.19405579627E+02  0.57477667146E+03  0.57551051090E+03  0.12700000000E+01 0. -1.
         -4    1    3    3    0  502  0.22355456914E+02 -0.55752242502E+02  0.13990048647E+03  0.15225583080E+03  0.12700000000E+01 0. -1.
          2    1    1    2  503    0 -0.26169630093E+02 -0.24296458837E+02  0.57282401883E+02  0.67501414924E+02  0.00000000000E+00 0. -1.
         -1    1    1    2    0  501 -0.17771393337E+02  0.60643121712E+02  0.10488933742E+03  0.12245482325E+03  0.00000000000E+00 0.  1.
<mgrwt>
<rscale>  0 0.46739225E+02</rscale>
<asrwt>0</asrwt>
<pdfrwt beam="1">  1        2 0.13804393E+00 0.35709487E+02</pdfrwt>
<pdfrwt beam="2">  1       -1 0.31441301E-02 0.61175763E+02</pdfrwt>
<totfact> 0.11356595E+04</totfact>
</mgrwt>
</event>
<event>
 7    1  0.3113530E-004  0.1164218E+03  0.7546771E-02  0.1325066E+00
         -1   -1    0    0    0  502 -0.00000000000E+00  0.00000000000E+00  0.64064902366E+03  0.64064902366E+03  0.00000000000E+00 0.  1.
         -2   -1    0    0    0  501  0.00000000000E+00 -0.00000000000E+00 -0.10239395571E+04  0.10239395571E+04  0.00000000000E+00 0. -1.
         25    2    1    2    0    0  0.87021019187E+02  0.45308657654E+02  0.30524906269E+02  0.16181860730E+03  0.12501183754E+03 0.  0.
          4    1    3    3  503    0  0.11430903514E+03  0.23456206494E+02  0.43450770665E+02  0.12452442133E+03  0.12700000000E+01 0.  1.
         -4    1    3    3    0  503 -0.27288015950E+02  0.21852451160E+02 -0.12925864396E+02  0.37294185962E+02  0.12700000000E+01 0.  1.
         -2    1    1    2    0  501 -0.65117087322E+02 -0.97870404349E+02 -0.95318322759E+03  0.96040466288E+03  0.00000000000E+00 0. -1.
         -1    1    1    2    0  502 -0.21903931865E+02  0.52561746695E+02  0.53936778792E+03  0.54236531056E+03  0.00000000000E+00 0.  1.
<mgrwt>
<rscale>  0 0.81421240E+02</rscale>
<asrwt>0</asrwt>
<pdfrwt beam="2">  1       -2 0.15752916E+00 0.11642175E+03</pdfrwt>
<pdfrwt beam="1">  1       -1 0.98561389E-01 0.56943125E+02</pdfrwt>
<totfact> 0.24327755E+00</totfact>
</mgrwt>
</event>
<event>
 7    1  0.3113530E-004  0.5050729E+02  0.7546771E-02  0.1538029E+00
         -1   -1    0    0    0  501 -0.00000000000E+00  0.00000000000E+00  0.99550530455E+01  0.99550530455E+01  0.00000000000E+00 0.  1.
          2   -1    0    0  503    0  0.00000000000E+00 -0.00000000000E+00 -0.13967209993E+04  0.13967209993E+04  0.00000000000E+00 0. -1.
         25    2    1    2    0    0 -0.23982056151E+02 -0.28139083381E+02 -0.59622827374E+03  0.61031179133E+03  0.12500152480E+03 0.  0.
          4    1    3    3  502    0  0.18499349302E+02  0.98833306199E+01 -0.13890708018E+02  0.25188704174E+02  0.12700000000E+01 0.  1.
         -4    1    3    3    0  502 -0.42481405452E+02 -0.38022414001E+02 -0.58233756572E+03  0.58512308716E+03  0.12700000000E+01 0.  1.
          2    1    1    2  503    0  0.12489045646E+02  0.51431641660E+02 -0.70465587579E+03  0.70664071020E+03  0.00000000000E+00 0. -1.
         -1    1    1    2    0  501  0.11493010505E+02 -0.23292558279E+02 -0.85881796688E+02  0.89723550777E+02  0.00000000000E+00 0.  1.
<mgrwt>
<rscale>  0 0.36219616E+02</rscale>
<asrwt>0</asrwt>
<pdfrwt beam="2">  1        2 0.21488003E+00 0.50507287E+02</pdfrwt>
<pdfrwt beam="1">  1       -1 0.15315475E-02 0.25973690E+02</pdfrwt>
<totfact> 0.14225550E+04</totfact>
</mgrwt>
</event>
<event>
 7    1  0.3113530E-004  0.2968733E+02  0.7546771E-02  0.1611012E+00
          3   -1    0    0  503    0 -0.00000000000E+00  0.00000000000E+00  0.32007183318E+02  0.32007183318E+02  0.00000000000E+00 0. -1.
          2   -1    0    0  502    0  0.00000000000E+00 -0.00000000000E+00 -0.19798063640E+04  0.19798063640E+04  0.00000000000E+00 0. -1.
         25    2    1    2    0    0 -0.56228226518E+01  0.22611141445E+02 -0.10387761712E+03  0.16419281759E+03  0.12500336858E+03 0.  0.
          4    1    3    3  501    0 -0.37675628432E+02  0.59526791798E+02 -0.88089561751E+02  0.11280193132E+03  0.12700000000E+01 0. -1.
         -4    1    3    3    0  501  0.32052805780E+02 -0.36915650353E+02 -0.15788055372E+02  0.51390886272E+02  0.12700000000E+01 0. -1.
          2    1    1    2  502    0  0.13846962344E+02  0.24406390116E+02 -0.15144197949E+04  0.15146797435E+04  0.00000000000E+00 0. -1.
          3    1    1    2  503    0 -0.82241396927E+01 -0.47017531561E+02 -0.32950176861E+03  0.33294098616E+03  0.00000000000E+00 0. -1.
<mgrwt>
<rscale>  0 0.28862627E+02</rscale>
<asrwt>0</asrwt>
<pdfrwt beam="2">  1        2 0.30458572E+00 0.28060831E+02</pdfrwt>
<pdfrwt beam="1">  1        3 0.49241800E-02 0.29687333E+02</pdfrwt>
<totfact> 0.10383455E+03</totfact>
</mgrwt>
</event>
<event>
 7    1  0.3113530E-004  0.4838842E+02  0.7546771E-02  0.1461127E+00
          2   -1    0    0  503    0  0.00000000000E+00  0.00000000000E+00  0.22009227711E+03  0.22009227711E+03  0.00000000000E+00 0. -1.
         -1   -1    0    0    0  501 -0.00000000000E+00 -0.00000000000E+00 -0.67192991145E+02  0.67192991145E+02  0.00000000000E+00 0.  1.
         25    2    1    2    0    0  0.75006596824E+01 -0.66710694453E+02  0.81521951280E+02  0.16363476700E+03  0.12499572705E+03 0.  0.
          4    1    3    3  502    0  0.29235285763E+02 -0.43959007663E+02  0.10946305280E+03  0.12153546444E+03  0.12700000000E+01 0. -1.
         -4    1    3    3    0  502 -0.21734626080E+02 -0.22751686790E+02 -0.27941101517E+02  0.42099302567E+02  0.12700000000E+01 0. -1.
          2    1    1    2  503    0  0.28495732418E+02  0.38042866730E+02  0.59444655741E+02  0.76111323542E+02  0.00000000000E+00 0. -1.
         -1    1    1    2    0  501 -0.35996392100E+02  0.28667827723E+02  0.11932678944E+02  0.47539177710E+02  0.00000000000E+00 0.  1.
<mgrwt>
<rscale>  0 0.47187927E+02</rscale>
<asrwt>0</asrwt>
<pdfrwt beam="1">  1        2 0.33860350E-01 0.48388417E+02</pdfrwt>
<pdfrwt beam="2">  1       -1 0.10337383E-01 0.46017221E+02</pdfrwt>
<totfact> 0.86942095E+03</totfact>
</mgrwt>
</event>
<event>
 7    1  0.3113530E-004  0.1012251E+03  0.7546771E-02  0.1294228E+00
          1   -1    0    0  502    0  0.00000000000E+00  0.00000000000E+00  0.49117781909E+03  0.49117781909E+03  0.00000000000E+00 0. -1.
          1   -1    0    0  503    0 -0.00000000000E+00 -0.00000000000E+00 -0.90132575722E+02  0.90132575722E+02  0.00000000000E+00 0. -1.
         25    2    1    2    0    0 -0.17482615489E+02 -0.77784840294E+02  0.16337000726E+03  0.22061224917E+03  0.12499552788E+03 0.  0.
          4    1    3    3  501    0 -0.66445280309E+02 -0.60224130574E+02  0.13285140049E+03  0.16029045103E+03  0.12700000000E+01 0. -1.
         -4    1    3    3    0  501  0.48962664820E+02 -0.17560709721E+02  0.30518606766E+02  0.60321798142E+02  0.12700000000E+01 0. -1.
          1    1    1    2  502    0 -0.83775378698E+02  0.22159335364E+02  0.22899352706E+03  0.24484155214E+03  0.00000000000E+00 0. -1.
          1    1    1    2  503    0  0.10125799419E+03  0.55625504931E+02  0.86817090541E+01  0.11585659350E+03  0.00000000000E+00 0. -1.
<mgrwt>
<rscale>  0 0.93657973E+02</rscale>
<asrwt>0</asrwt>
<pdfrwt beam="1">  1        1 0.75565817E-01 0.86656507E+02</pdfrwt>
<pdfrwt beam="2">  1        1 0.13866550E-01 0.10122513E+03</pdfrwt>
<totfact> 0.22359737E+03</totfact>
</mgrwt>
</event>
<event>
 7    1  0.3113530E-004  0.6330639E+02  0.7546771E-02  0.1397221E+00
          2   -1    0    0  502    0  0.00000000000E+00  0.00000000000E+00  0.53722327794E+03  0.53722327794E+03  0.00000000000E+00 0. -1.
          1   -1    0    0  503    0 -0.00000000000E+00 -0.00000000000E+00 -0.26275161154E+03  0.26275161154E+03  0.00000000000E+00 0. -1.
         25    2    1    2    0    0 -0.90084559008E+01  0.10112718779E+02  0.14727900463E+03  0.19364944772E+03  0.12500233613E+03 0.  0.
          4    1    3    3  501    0 -0.39769307204E+02  0.35606705271E+02  0.14998879086E+02  0.55461829483E+02  0.12700000000E+01 0. -1.
         -4    1    3    3    0  501  0.30760851303E+02 -0.25493986492E+02  0.13228012554E+03  0.13818761824E+03  0.12700000000E+01 0. -1.
          2    1    1    2  502    0  0.47292929641E+02 -0.52534756419E+02  0.35986362108E+03  0.36674016360E+03  0.00000000000E+00 0. -1.
          1    1    1    2  503    0 -0.38284473740E+02  0.42422037640E+02 -0.23267095930E+03  0.23958527816E+03  0.00000000000E+00 0. -1.
<mgrwt>
<rscale>  0 0.60145832E+02</rscale>
<asrwt>0</asrwt>
<pdfrwt beam="1">  1        2 0.82649735E-01 0.63306387E+02</pdfrwt>
<pdfrwt beam="2">  1        1 0.40423325E-01 0.57143068E+02</pdfrwt>
<totfact> 0.82363267E+02</totfact>
</mgrwt>
</event>
<event>
 7    1  0.3113530E-004  0.2995502E+03  0.7546771E-02  0.1229266E+00
          3   -1    0    0  503    0 -0.00000000000E+00  0.00000000000E+00  0.22104084410E+03  0.22104084410E+03  0.00000000000E+00 0. -1.
          1   -1    0    0  502    0  0.00000000000E+00 -0.00000000000E+00 -0.88426230227E+03  0.88426230227E+03  0.00000000000E+00 0. -1.
         25    2    1    2    0    0 -0.70222371617E+02  0.29775752085E+03 -0.32061419664E+03  0.46044370540E+03  0.12499688019E+03 0.  0.
          4    1    3    3  501    0 -0.35042975883E+02  0.29248020516E+03 -0.29197256035E+03  0.41475567442E+03  0.12700000000E+01 0.  1.
         -4    1    3    3    0  501 -0.35179395733E+02  0.52773156891E+01 -0.28641636292E+02  0.45688030977E+02  0.12700000000E+01 0.  1.
          1    1    1    2  502    0  0.11941425711E+03 -0.27234009703E+03 -0.44103763405E+03  0.53192394936E+03  0.00000000000E+00 0. -1.
          3    1    1    2  503    0 -0.49191885494E+02 -0.25417423822E+02  0.98430372519E+02  0.11293549162E+03  0.00000000000E+00 0. -1.
<mgrwt>
<rscale>  0 0.12878754E+03</rscale>
<asrwt>0</asrwt>
<pdfrwt beam="2">  1        1 0.13604035E+00 0.29955020E+03</pdfrwt>
<pdfrwt beam="1">  1        3 0.34006284E-01 0.55370453E+02</pdfrwt>
<totfact> 0.82766377E+01</totfact>
</mgrwt>
</event>
<event>
 7    1  0.3113530E-004  0.1328961E+03  0.7546771E-02  0.1321706E+00
          2   -1    0    0  503    0  0.00000000000E+00  0.00000000000E+00  0.25438412849E+04  0.25438412849E+04  0.00000000000E+00 0.  1.
         -1   -1    0    0    0  501 -0.00000000000E+00 -0.00000000000E+00 -0.30163129602E+02  0.30163129602E+02  0.00000000000E+00 0.  1.
         25    2    1    2    0    0  0.10244794862E+03  0.78193149728E+02  0.75298929399E+03  0.77409884702E+03  0.12500558890E+03 0.  0.
          4    1    3    3  502    0 -0.25387884059E+02  0.36589280534E+02  0.21479196679E+03  0.21936390315E+03  0.12700000000E+01 0. -1.
         -4    1    3    3    0  502  0.12783583268E+03  0.41603869195E+02  0.53819732720E+03  0.55473494387E+03  0.12700000000E+01 0. -1.
          2    1    1    2  503    0 -0.68866810879E+02 -0.11710161449E+03  0.17387067185E+04  0.17440058712E+04  0.00000000000E+00 0.  1.
         -1    1    1    2    0  501 -0.33581137739E+02  0.38908464766E+02  0.21982142785E+02  0.55899696276E+02  0.00000000000E+00 0.  1.
<mgrwt>
<rscale>  0 0.82645905E+02</rscale>
<asrwt>0</asrwt>
<pdfrwt beam="1">  1        2 0.39136003E+00 0.13289613E+03</pdfrwt>
<pdfrwt beam="2">  1       -1 0.46404835E-02 0.51396123E+02</pdfrwt>
<totfact> 0.79634142E+02</totfact>
</mgrwt>
</event>
<event>
 7    1  0.3113530E-004  0.7535057E+02  0.7546771E-02  0.1460364E+00
         -1   -1    0    0    0  501 -0.00000000000E+00  0.00000000000E+00  0.14935669354E+02  0.14935669354E+02  0.00000000000E+00 0.  1.
          2   -1    0    0  503    0  0.00000000000E+00 -0.00000000000E+00 -0.10895417694E+04  0.10895417694E+04  0.00000000000E+00 0. -1.
         25    2    1    2    0    0 -0.18057542314E+02 -0.70321613287E+02 -0.67590828041E+03  0.69119569212E+03  0.12501310794E+03 0.  0.
          4    1    3    3  502    0  0.49063342495E+02 -0.36470239932E+02 -0.19257162050E+03  0.20204636076E+03  0.12700000000E+01 0.  1.
         -4    1    3    3    0  502 -0.67120884809E+02 -0.33851373355E+02 -0.48333665991E+03  0.48914933136E+03  0.12700000000E+01 0.  1.
          2    1    1    2  503    0 -0.28761497170E+02  0.74681998048E+01 -0.89428609237E+02  0.94236266256E+02  0.00000000000E+00 0. -1.
         -1    1    1    2    0  501  0.46819039484E+02  0.62853413483E+02 -0.30926921040E+03  0.31904548037E+03  0.00000000000E+00 0.  1.
<mgrwt>
<rscale>  0 0.47318741E+02</rscale>
<asrwt>0</asrwt>
<pdfrwt beam="2">  1        2 0.16762186E+00 0.29715278E+02</pdfrwt>
<pdfrwt beam="1">  1       -1 0.22977946E-02 0.75350575E+02</pdfrwt>
<totfact> 0.14394823E+04</totfact>
</mgrwt>
</event>
<event>
 7    1  0.3113530E-004  0.8548257E+02  0.7546771E-02  0.1384523E+00
          2   -1    0    0  503    0  0.00000000000E+00  0.00000000000E+00  0.10858121869E+03  0.10858121869E+03  0.00000000000E+00 0. -1.
         -2   -1    0    0    0  501 -0.00000000000E+00 -0.00000000000E+00 -0.56948376203E+03  0.56948376203E+03  0.00000000000E+00 0.  1.
         25    2    1    2    0    0 -0.55988264069E+01  0.72009529254E+02 -0.23552421442E+03  0.27624128144E+03  0.12498348225E+03 0.  0.
          4    1    3    3  502    0 -0.45579390627E+02  0.39639273561E+02 -0.36312334549E+02  0.70490789460E+02  0.12700000000E+01 0.  1.
         -4    1    3    3    0  502  0.39980564220E+02  0.32370255693E+02 -0.19921187987E+03  0.20575049198E+03  0.12700000000E+01 0.  1.
          2    1    1    2  503    0 -0.40951515538E+02 -0.77374198388E+02  0.64147988915E+02  0.10852998518E+03  0.00000000000E+00 0. -1.
         -2    1    1    2    0  501  0.46550341945E+02  0.53646691340E+01 -0.28952631783E+03  0.29329371410E+03  0.00000000000E+00 0.  1.
<mgrwt>
<rscale>  0 0.63289656E+02</rscale>
<asrwt>0</asrwt>
<pdfrwt beam="1">  1        2 0.16704803E-01 0.85482572E+02</pdfrwt>
<pdfrwt beam="2">  1       -2 0.87612886E-01 0.46858447E+02</pdfrwt>
<totfact> 0.39697070E+02</totfact>
</mgrwt>
</event>
<event>
 7    1  0.3113530E-004  0.5156341E+02  0.7546771E-02  0.1505763E+00
         -1   -1    0    0    0  501 -0.00000000000E+00  0.00000000000E+00  0.39906963654E+02  0.39906963654E+02  0.00000000000E+00 0.  1.
          2   -1    0    0  503    0  0.00000000000E+00 -0.00000000000E+00 -0.48095837393E+03  0.48095837393E+03  0.00000000000E+00 0. -1.
         25    2    1    2    0    0  0.23605947339E+02  0.18662895627E+02 -0.41030418134E+03  0.42997793792E+03  0.12500384575E+03 0.  0.
          4    1    3    3  502    0  0.56576556761E+02  0.51566860760E+02 -0.31098708283E+03  0.32027273767E+03  0.12700000000E+01 0. -1.
         -4    1    3    3    0  502 -0.32970609422E+02 -0.32903965133E+02 -0.99317098503E+02  0.10970520025E+03  0.12700000000E+01 0. -1.
          2    1    1    2  503    0  0.29582481474E+02 -0.10970239752E+02 -0.14651215009E+02  0.34786886489E+02  0.00000000000E+00 0. -1.
         -1    1    1    2    0  501 -0.53188428813E+02 -0.76926558750E+01 -0.16096013928E+02  0.56100513174E+02  0.00000000000E+00 0.  1.
<mgrwt>
<rscale>  0 0.40334605E+02</rscale>
<asrwt>0</asrwt>
<pdfrwt beam="2">  1        2 0.73993603E-01 0.31551060E+02</pdfrwt>
<pdfrwt beam="1">  1       -1 0.61395323E-02 0.51563414E+02</pdfrwt>
<totfact> 0.84825008E+03</totfact>
</mgrwt>
</event>
<event>
 7    1  0.3113530E-004  0.7476673E+02  0.7546771E-02  0.1468865E+00
          2   -1    0    0  503    0  0.00000000000E+00  0.00000000000E+00  0.21919771739E+04  0.21919771739E+04  0.00000000000E+00 0. -1.
         -1   -1    0    0    0  501 -0.00000000000E+00 -0.00000000000E+00 -0.81417209387E+01  0.81417209387E+01  0.00000000000E+00 0.  1.
         25    2    1    2    0    0  0.20214298259E+02 -0.70841869112E+02  0.87648749797E+03  0.88841223598E+03  0.12497511216E+03 0.  0.
          4    1    3    3  502    0  0.79687582564E+01 -0.12444285012E+02  0.73111985383E+03  0.73127027486E+03  0.12700000000E+01 0.  1.
         -4    1    3    3    0  502  0.12245540002E+02 -0.58397584100E+02  0.14536764415E+03  0.15714196112E+03  0.12700000000E+01 0.  1.
          2    1    1    2  503    0  0.26989969341E+02  0.80511799813E+01  0.37357906999E+03  0.37463929516E+03  0.00000000000E+00 0. -1.
         -1    1    1    2    0  501 -0.47204267599E+02  0.62790689130E+02  0.93376888503E+03  0.93706736373E+03  0.00000000000E+00 0.  1.
<mgrwt>
<rscale>  0 0.45889235E+02</rscale>
<asrwt>0</asrwt>
<pdfrwt beam="1">  1        2 0.33722679E+00 0.28165226E+02</pdfrwt>
<pdfrwt beam="2">  1       -1 0.12525742E-02 0.74766731E+02</pdfrwt>
<totfact> 0.10013428E+04</totfact>
</mgrwt>
</event>
<event>
 7    1  0.3113530E-004  0.5163572E+02  0.7546771E-02  0.1486537E+00
          1   -1    0    0  502    0  0.00000000000E+00  0.00000000000E+00  0.49789745686E+03  0.49789745686E+03  0.00000000000E+00 0. -1.
          1   -1    0    0  503    0 -0.00000000000E+00 -0.00000000000E+00 -0.22975510753E+03  0.22975510753E+03  0.00000000000E+00 0. -1.
         25    2    1    2    0    0 -0.53661506347E+02 -0.26971863883E+02  0.32243535285E+03  0.35100918469E+03  0.12504340152E+03 0.  0.
          4    1    3    3  501    0 -0.83766561760E+02  0.30718702641E+01  0.13585630925E+03  0.15963966587E+03  0.12700000000E+01 0.  1.
         -4    1    3    3    0  501  0.30105055413E+02 -0.30043734147E+02  0.18657904360E+03  0.19136951882E+03  0.12700000000E+01 0.  1.
          1    1    1    2  502    0  0.30442061641E+02 -0.19183105907E+02  0.15600026295E+03  0.16009619830E+03  0.00000000000E+00 0. -1.
          1    1    1    2  503    0  0.23219444705E+02  0.46154969789E+02 -0.21029326647E+03  0.21654718140E+03  0.00000000000E+00 0. -1.
<mgrwt>
<rscale>  0 0.43104073E+02</rscale>
<asrwt>0</asrwt>
<pdfrwt beam="1">  1        1 0.76599609E-01 0.35982088E+02</pdfrwt>
<pdfrwt beam="2">  1        1 0.35346940E-01 0.51635722E+02</pdfrwt>
<totfact> 0.68662099E+02</totfact>
</mgrwt>
</event>
<event>
 7    1  0.3113530E-004  0.1426870E+03  0.7546771E-02  0.1303701E+00
          2   -1    0    0  503    0  0.00000000000E+00  0.00000000000E+00  0.12939296762E+04  0.12939296762E+04  0.00000000000E+00 0. -1.
         -2   -1    0    0    0  501 -0.00000000000E+00 -0.00000000000E+00 -0.37689172203E+02  0.37689172203E+02  0.00000000000E+00 0.  1.
         25    2    1    2    0    0  0.66453131373E+02  0.14009536689E+03  0.98961219966E+03  0.10094524746E+04  0.12497704713E+03 0.  0.
          4    1    3    3  502    0  0.57778952587E+02  0.33876581699E+00  0.34484311605E+03  0.34965255571E+03  0.12700000000E+01 0. -1.
         -4    1    3    3    0  502  0.86741787852E+01  0.13975660107E+03  0.64476908360E+03  0.65979991891E+03  0.12700000000E+01 0. -1.
          2    1    1    2  503    0 -0.87936460357E+02 -0.88026263072E+02  0.18797295594E+03  0.22542243946E+03  0.00000000000E+00 0.  1.
         -2    1    1    2    0  501  0.21483328984E+02 -0.52069103820E+02  0.78655348443E+02  0.96743934360E+02  0.00000000000E+00 0. -1.
<mgrwt>
<rscale>  0 0.89650013E+02</rscale>
<asrwt>0</asrwt>
<pdfrwt beam="1">  1        2 0.19906607E+00 0.14268703E+03</pdfrwt>
<pdfrwt beam="2">  1       -2 0.57983352E-02 0.56326947E+02</pdfrwt>
<totfact> 0.25174514E+03</totfact>
</mgrwt>
</event>
<event>
 7    1  0.3113530E-004  0.6464710E+02  0.7546771E-02  0.1458178E+00
         -2   -1    0    0    0  501 -0.00000000000E+00  0.00000000000E+00  0.21899512320E+02  0.21899512320E+02  0.00000000000E+00 0.  1.
          1   -1    0    0  503    0  0.00000000000E+00 -0.00000000000E+00 -0.92641253323E+03  0.92641253323E+03  0.00000000000E+00 0. -1.
         25    2    1    2    0    0 -0.18038533201E+02 -0.83049348796E+02 -0.34673021771E+03  0.37824231013E+03  0.12499127281E+03 0.  0.
          4    1    3    3  502    0 -0.69058800583E+02 -0.59560104967E+02 -0.25332119838E+03  0.26923923653E+03  0.12700000000E+01 0. -1.
         -4    1    3    3    0  502  0.51020267382E+02 -0.23489243829E+02 -0.93409019334E+02  0.10900307359E+03  0.12700000000E+01 0. -1.
          1    1    1    2  503    0 -0.10616558323E+02  0.33550463241E+02 -0.41151873808E+03  0.41302060080E+03  0.00000000000E+00 0. -1.
         -2    1    1    2    0  501  0.28655091523E+02  0.49498885555E+02 -0.14626406512E+03  0.15704913463E+03  0.00000000000E+00 0.  1.
<mgrwt>
<rscale>  0 0.47696325E+02</rscale>
<asrwt>0</asrwt>
<pdfrwt beam="2">  1        1 0.14252498E+00 0.35190125E+02</pdfrwt>
<pdfrwt beam="1">  1       -2 0.33691562E-02 0.64647097E+02</pdfrwt>
<totfact> 0.55277346E+03</totfact>
</mgrwt>
</event>
<event>
 7    1  0.3113530E-004  0.7423052E+02  0.7546771E-02  0.1458386E+00
         -2   -1    0    0    0  501  0.00000000000E+00  0.00000000000E+00  0.51325578366E+03  0.51325578366E+03  0.00000000000E+00 0.  1.
         -1   -1    0    0    0  502 -0.00000000000E+00 -0.00000000000E+00 -0.33800218194E+03  0.33800218194E+03  0.00000000000E+00 0.  1.
         25    2    1    2    0    0  0.40404129196E+02 -0.25317117542E+02 -0.45351306939E+02  0.14126205907E+03  0.12499911278E+03 0.  0.
          4    1    3    3  503    0  0.90007062130E+01 -0.45023355511E+02 -0.78867287436E+02  0.91267612992E+02  0.12700000000E+01 0.  1.
         -4    1    3    3    0  503  0.31403422983E+02  0.19706237969E+02  0.33515980497E+02  0.49994446077E+02  0.12700000000E+01 0.  1.
         -2    1    1    2    0  501  0.29185863281E+02 -0.91969891355E+01  0.45861285458E+03  0.45963262461E+03  0.00000000000E+00 0.  1.
         -1    1    1    2    0  502 -0.69589992477E+02  0.34514106677E+02 -0.23800794591E+03  0.25036328191E+03  0.00000000000E+00 0.  1.
<mgrwt>
<rscale>  0 0.47660272E+02</rscale>
<asrwt>0</asrwt>
<pdfrwt beam="1">  1       -2 0.78962428E-01 0.30600641E+02</pdfrwt>
<pdfrwt beam="2">  1       -1 0.52000336E-01 0.74230523E+02</pdfrwt>
<totfact> 0.43919473E+01</totfact>
</mgrwt>
</event>
<event>
 7    1  0.3113530E-004  0.6124040E+02  0.7546771E-02  0.1509016E+00
          1   -1    0    0  503    0  0.00000000000E+00  0.00000000000E+00  0.30947088111E+04  0.30947088111E+04  0.00000000000E+00 0. -1.
         -2   -1    0    0    0  501 -0.00000000000E+00 -0.00000000000E+00 -0.73694599591E+01  0.73694599591E+01  0.00000000000E+00 0.  1.
         25    2    1    2    0    0 -0.76361631203E+02 -0.76640868157E+01  0.18406858286E+04  0.18465208456E+04  0.12500030674E+03 0.  0.
          4    1    3    3  502    0  0.33150553494E+02 -0.64622816954E+01  0.62420579284E+03  0.62512015245E+03  0.12700000000E+01 0. -1.
         -4    1    3    3    0  502 -0.10951218470E+03 -0.12018051203E+01  0.12164800357E+04  0.12214006931E+04  0.12700000000E+01 0. -1.
          1    1    1    2  503    0  0.57193834720E+02 -0.98793302321E+01  0.12054399038E+04  0.12068364005E+04  0.00000000000E+00 0. -1.
         -2    1    1    2    0  501  0.19167796483E+02  0.17543417048E+02  0.41213618769E+02  0.48721024987E+02  0.00000000000E+00 0.  1.
<mgrwt>
<rscale>  0 0.39890845E+02</rscale>
<asrwt>0</asrwt>
<pdfrwt beam="1">  1        1 0.47610801E+00 0.61240398E+02</pdfrwt>
<pdfrwt beam="2">  1       -2 0.11337655E-02 0.25984147E+02</pdfrwt>
<totfact> 0.85236819E+02</totfact>
</mgrwt>
</event>
<event>
 7    1  0.3113530E-004  0.1346417E+03  0.7546771E-02  0.1338898E+00
          1   -1    0    0  503    0 -0.00000000000E+00  0.00000000000E+00  0.83005322704E+03  0.83005322704E+03  0.00000000000E+00 0. -1.
          2   -1    0    0  502    0  0.00000000000E+00 -0.00000000000E+00 -0.13935424057E+04  0.13935424057E+04  0.00000000000E+00 0. -1.
         25    2    1    2    0    0  0.71069224395E+02 -0.77001621120E+02 -0.11932637305E+03  0.20209718565E+03  0.12499761930E+03 0.  0.
          4    1    3    3  501    0  0.77676579319E+02 -0.88684147694E+01 -0.18713983962E+02  0.80399787630E+02  0.12700000000E+01 0. -1.
         -4    1    3    3    0  501 -0.66073549236E+01 -0.68133206350E+02 -0.10061238908E+03  0.12169739802E+03  0.12700000000E+01 0. -1.
          2    1    1    2  502    0  0.43437889707E+02  0.39010525841E+01 -0.12265899623E+04  0.12273650655E+04  0.00000000000E+00 0. -1.
          1    1    1    2  503    0 -0.11450711410E+03  0.73100568536E+02  0.78242715665E+03  0.79413338159E+03  0.00000000000E+00 0. -1.
<mgrwt>
<rscale>  0 0.76629565E+02</rscale>
<asrwt>0</asrwt>
<pdfrwt beam="2">  1        2 0.21439114E+00 0.43612710E+02</pdfrwt>
<pdfrwt beam="1">  1        1 0.12770050E+00 0.13464172E+03</pdfrwt>
<totfact> 0.55421524E+01</totfact>
</mgrwt>
</event>
<event>
 7    1  0.3113530E-004  0.4586052E+02  0.7546771E-02  0.1581784E+00
         -2   -1    0    0    0  501 -0.00000000000E+00  0.00000000000E+00  0.23348349580E+03  0.23348349580E+03  0.00000000000E+00 0.  1.
          2   -1    0    0  503    0  0.00000000000E+00 -0.00000000000E+00 -0.70465537489E+02  0.70465537489E+02  0.00000000000E+00 0. -1.
         25    2    1    2    0    0 -0.15996149158E+02 -0.40387517624E+02  0.15562179346E+03  0.20427560213E+03  0.12499340245E+03 0.  0.
          4    1    3    3  502    0 -0.44056374182E+02 -0.19029796284E+02  0.35221543036E+01  0.48136428239E+02  0.12700000000E+01 0.  1.
         -4    1    3    3    0  502  0.28060225025E+02 -0.21357721340E+02  0.15209963916E+03  0.15613917389E+03  0.12700000000E+01 0.  1.
          2    1    1    2  503    0 -0.49157374122E+01  0.46089453213E+02 -0.30873489456E+02  0.55691781467E+02  0.00000000000E+00 0. -1.
         -2    1    1    2    0  501  0.20911886570E+02 -0.57019355889E+01  0.38269654304E+02  0.43981649695E+02  0.00000000000E+00 0.  1.
<mgrwt>
<rscale>  0 0.31528417E+02</rscale>
<asrwt>0</asrwt>
<pdfrwt beam="2">  1        2 0.10840852E-01 0.45860523E+02</pdfrwt>
<pdfrwt beam="1">  1       -2 0.35920537E-01 0.21675310E+02</pdfrwt>
<totfact> 0.36268736E+03</totfact>
</mgrwt>
</event>
<event>
 7    1  0.3113530E-004  0.2608415E+02  0.7546771E-02  0.1651834E+00
          2   -1    0    0  503    0  0.00000000000E+00  0.00000000000E+00  0.79922712386E+03  0.79922712386E+03  0.00000000000E+00 0. -1.
         -1   -1    0    0    0  501 -0.00000000000E+00 -0.00000000000E+00 -0.14498995741E+02  0.14498995741E+02  0.00000000000E+00 0.  1.
         25    2    1    2    0    0 -0.16435102220E+01  0.17622553631E+02  0.36226306580E+03  0.38363115782E+03  0.12500032354E+03 0.  0.
          4    1    3    3  502    0 -0.47570983509E+02  0.32984217242E+02  0.89480468774E+02  0.10658013066E+03  0.12700000000E+01 0. -1.
         -4    1    3    3    0  502  0.45927473287E+02 -0.15361663611E+02  0.27278259703E+03  0.27705102716E+03  0.12700000000E+01 0. -1.
          2    1    1    2  503    0 -0.24687989859E+02 -0.84193789001E+01  0.36780817396E+03  0.36873192921E+03  0.00000000000E+00 0. -1.
         -1    1    1    2    0  501  0.26331500081E+02 -0.92031747306E+01  0.54656888359E+02  0.61363032574E+02  0.00000000000E+00 0.  1.
<mgrwt>
<rscale>  0 0.25650221E+02</rscale>
<asrwt>0</asrwt>
<pdfrwt beam="1">  1        2 0.12295798E+00 0.26084148E+02</pdfrwt>
<pdfrwt beam="2">  1       -1 0.22306154E-02 0.25223512E+02</pdfrwt>
<totfact> 0.18608423E+04</totfact>
</mgrwt>
</event>
<event>
 7    1  0.3113530E-004  0.9005637E+02  0.7546771E-02  0.1338377E+00
          2   -1    0    0  503    0  0.00000000000E+00  0.00000000000E+00  0.40258656525E+03  0.40258656525E+03  0.00000000000E+00 0.  1.
          2   -1    0    0  502    0 -0.00000000000E+00 -0.00000000000E+00 -0.20456998036E+03  0.20456998036E+03  0.00000000000E+00 0. -1.
         25    2    1    2    0    0  0.41398459258E+01  0.36087218613E+02  0.52404592018E+02  0.14031848080E+03  0.12499443634E+03 0.  0.
          4    1    3    3  501    0 -0.48576708103E+02  0.32976762943E+02 -0.88981862621E+01  0.59396583093E+02  0.12700000000E+01 0.  1.
         -4    1    3    3    0  501  0.52716554029E+02  0.31104556695E+01  0.61302778280E+02  0.80921897704E+02  0.12700000000E+01 0.  1.
          2    1    1    2  502    0 -0.41300450920E+02 -0.90025421571E+02 -0.14129288134E+03  0.17255138971E+03  0.00000000000E+00 0. -1.
          2    1    1    2  503    0  0.37160604994E+02  0.53938202958E+02  0.28690487421E+03  0.29428667511E+03  0.00000000000E+00 0.  1.
<mgrwt>
<rscale>  0 0.76802903E+02</rscale>
<asrwt>0</asrwt>
<pdfrwt beam="1">  1        2 0.61936395E-01 0.65499926E+02</pdfrwt>
<pdfrwt beam="2">  1        2 0.31472305E-01 0.90056374E+02</pdfrwt>
<totfact> 0.20095076E+03</totfact>
</mgrwt>
</event>
<event>
 7    1  0.3113530E-004  0.9809436E+02  0.7546771E-02  0.1357583E+00
          1   -1    0    0  503    0 -0.00000000000E+00  0.00000000000E+00  0.13648515671E+03  0.13648515671E+03  0.00000000000E+00 0. -1.
          2   -1    0    0  502    0  0.00000000000E+00 -0.00000000000E+00 -0.96035114669E+03  0.96035114669E+03  0.00000000000E+00 0. -1.
         25    2    1    2    0    0 -0.90022070426E+02  0.25769012329E+02 -0.18237636255E+03  0.24011721655E+03  0.12500849934E+03 0.  0.
          4    1    3    3  501    0 -0.59752977661E+02 -0.44523256324E+02 -0.12053225436E+03  0.14171229987E+03  0.12700000000E+01 0.  1.
         -4    1    3    3    0  501 -0.30269092765E+02  0.70292268653E+02 -0.61844108182E+02  0.98404916676E+02  0.12700000000E+01 0.  1.
          2    1    1    2  502    0 -0.67306901451E+01 -0.50572662529E+02 -0.72483698540E+03  0.72663027173E+03  0.00000000000E+00 0. -1.
          1    1    1    2  503    0  0.96752760571E+02  0.24803650200E+02  0.83347357960E+02  0.13008881512E+03  0.00000000000E+00 0. -1.
<mgrwt>
<rscale>  0 0.70743451E+02</rscale>
<asrwt>0</asrwt>
<pdfrwt beam="2">  1        2 0.14774633E+00 0.51018589E+02</pdfrwt>
<pdfrwt beam="1">  1        1 0.20997716E-01 0.98094362E+02</pdfrwt>
<totfact> 0.95324593E+02</totfact>
</mgrwt>
</event>
<event>
 7    1  0.3113530E-004  0.1532910E+03  0.7546771E-02  0.1297528E+00
         -3   -1    0    0    0  501 -0.00000000000E+00  0.00000000000E+00  0.64539759775E+02  0.64539759775E+02  0.00000000000E+00 0.  1.
          1   -1    0    0  503    0  0.00000000000E+00 -0.00000000000E+00 -0.12394563879E+04  0.12394563879E+04  0.00000000000E+00 0. -1.
         25    2    1    2    0    0  0.97973593668E+00  0.16012680481E+03 -0.33611058848E+03  0.39272860751E+03  0.12499551179E+03 0.  0.
          4    1    3    3  502    0  0.49842223586E+02  0.33756144844E+02 -0.59165555193E+02  0.84415048350E+02  0.12700000000E+01 0.  1.
         -4    1    3    3    0  502 -0.48862487649E+02  0.12637065997E+03 -0.27694503329E+03  0.30831355916E+03  0.12700000000E+01 0.  1.
          1    1    1    2  503    0 -0.53132036387E+02 -0.16030273674E+02 -0.70689195878E+03  0.70906715081E+03  0.00000000000E+00 0. -1.
         -3    1    1    2    0  501  0.52152300450E+02 -0.14409653114E+03 -0.13191408087E+03  0.20220038937E+03  0.00000000000E+00 0.  1.
<mgrwt>
<rscale>  0 0.92234933E+02</rscale>
<asrwt>0</asrwt>
<pdfrwt beam="2">  1        1 0.19068561E+00 0.55497594E+02</pdfrwt>
<pdfrwt beam="1">  1       -3 0.99291931E-02 0.15329102E+03</pdfrwt>
<totfact> 0.48180402E+02</totfact>
</mgrwt>
</event>
<event>
 7    1  0.3113530E-004  0.4736341E+02  0.7546771E-02  0.1460386E+00
         -2   -1    0    0    0  501 -0.00000000000E+00  0.00000000000E+00  0.21488159150E+02  0.21488159150E+02  0.00000000000E+00 0.  1.
          1   -1    0    0  503    0  0.00000000000E+00 -0.00000000000E+00 -0.97176565696E+03  0.97176565696E+03  0.00000000000E+00 0. -1.
         25    2    1    2    0    0 -0.16611553222E+02 -0.52484505502E+02 -0.81817159473E+03  0.82949575353E+03  0.12501151821E+03 0.  0.
          4    1    3    3  502    0  0.46118844474E+02 -0.46668057706E+02 -0.55593841429E+03  0.55979816793E+03  0.12700000000E+01 0.  1.
         -4    1    3    3    0  502 -0.62730397695E+02 -0.58164477960E+01 -0.26223318044E+03  0.26969758561E+03  0.12700000000E+01 0.  1.
          1    1    1    2  503    0 -0.29232929895E+02  0.37265643071E+02 -0.77747644889E+02  0.91038390965E+02  0.00000000000E+00 0. -1.
         -2    1    1    2    0  501  0.45844483116E+02  0.15218862431E+02 -0.54358258190E+02  0.72719671612E+02  0.00000000000E+00 0.  1.
<mgrwt>
<rscale>  0 0.47314965E+02</rscale>
<asrwt>0</asrwt>
<pdfrwt beam="2">  1        1 0.14950241E+00 0.47363407E+02</pdfrwt>
<pdfrwt beam="1">  1       -2 0.33058706E-02 0.47266573E+02</pdfrwt>
<totfact> 0.49682021E+03</totfact>
</mgrwt>
</event>
<event>
 7    1  0.3113530E-004  0.1063142E+03  0.7546771E-02  0.1312758E+00
          2   -1    0    0  503    0  0.00000000000E+00  0.00000000000E+00  0.23924214062E+03  0.23924214062E+03  0.00000000000E+00 0. -1.
         -1   -1    0    0    0  501 -0.00000000000E+00 -0.00000000000E+00 -0.38582142973E+03  0.38582142973E+03  0.00000000000E+00 0.  1.
         25    2    1    2    0    0  0.15094727625E+03  0.17683790919E+02  0.62108408004E+02  0.20634984521E+03  0.12500003042E+03 0.  0.
          4    1    3    3  502    0  0.14664301813E+03 -0.14962226530E+02  0.14048713653E+02  0.14807775743E+03  0.12700000000E+01 0.  1.
         -4    1    3    3    0  502  0.43042581170E+01  0.32646017448E+02  0.48059694352E+02  0.58272087781E+02  0.12700000000E+01 0.  1.
          2    1    1    2  503    0 -0.60720972999E+02  0.34052326078E+02  0.83413661699E+02  0.10864822332E+03  0.00000000000E+00 0. -1.
         -1    1    1    2    0  501 -0.90226303248E+02 -0.51736116996E+02 -0.29210135881E+03  0.31006550182E+03  0.00000000000E+00 0.  1.
<mgrwt>
<rscale>  0 0.86030996E+02</rscale>
<asrwt>0</asrwt>
<pdfrwt beam="1">  1        2 0.36806483E-01 0.69617508E+02</pdfrwt>
<pdfrwt beam="2">  1       -1 0.59357143E-01 0.10631424E+03</pdfrwt>
<totfact> 0.47415421E+02</totfact>
</mgrwt>
</event>
<event>
 7    1  0.3113530E-004  0.1046466E+03  0.7546771E-02  0.1402872E+00
          3   -1    0    0  503    0 -0.00000000000E+00  0.00000000000E+00  0.29853899092E+02  0.29853899092E+02  0.00000000000E+00 0. -1.
          2   -1    0    0  502    0  0.00000000000E+00 -0.00000000000E+00 -0.21902308554E+04  0.21902308554E+04  0.00000000000E+00 0. -1.
         25    2    1    2    0    0 -0.66988318918E+02  0.52055167763E+02 -0.49819870668E+03  0.52059933466E+03  0.12499816216E+03 0.  0.
          4    1    3    3  501    0 -0.96391982725E+02  0.60222478265E+02 -0.44469142810E+03  0.45898827910E+03  0.12700000000E+01 0.  1.
         -4    1    3    3    0  501  0.29403663807E+02 -0.81673105026E+01 -0.53507278581E+02  0.61611055560E+02  0.12700000000E+01 0.  1.
          2    1    1    2  502    0  0.66659820188E+02 -0.85109720647E+02 -0.16629107470E+04  0.16664211199E+04  0.00000000000E+00 0. -1.
          3    1    1    2  503    0  0.32849872945E+00  0.33054552884E+02  0.73249742921E+00  0.33064299936E+02  0.00000000000E+00 0. -1.
<mgrwt>
<rscale>  0 0.58815116E+02</rscale>
<asrwt>0</asrwt>
<pdfrwt beam="2">  1        2 0.33695870E+00 0.10464662E+03</pdfrwt>
<pdfrwt beam="1">  1        3 0.45929061E-02 0.33056185E+02</pdfrwt>
<totfact> 0.79273299E+02</totfact>
</mgrwt>
</event>
<event>
 7    1  0.7899210E-004  0.7617374E+02  0.7546771E-02  0.1375481E+00
          2   -1    0    0  503    0  0.00000000000E+00  0.00000000000E+00  0.12022016723E+04  0.12022016723E+04  0.00000000000E+00 0. -1.
         -1   -1    0    0    0  501 -0.00000000000E+00 -0.00000000000E+00 -0.22943457039E+02  0.22943457039E+02  0.00000000000E+00 0.  1.
         25    2    1    2    0    0 -0.30380211831E+02 -0.98791537645E+02  0.92663090567E+03  0.94072000550E+03  0.12500627276E+03 0.  0.
          4    1    3    3  502    0 -0.57146634436E+02 -0.15885077511E+02  0.59077278321E+03  0.59374419391E+03  0.12700000000E+01 0.  1.
         -4    1    3    3    0  502  0.26766422605E+02 -0.82906460134E+02  0.33585812246E+03  0.34697581159E+03  0.12700000000E+01 0.  1.
          2    1    1    2  503    0 -0.11214885161E+02  0.60393184365E+02  0.19150612740E+03  0.20111615350E+03  0.00000000000E+00 0. -1.
         -1    1    1    2    0  501  0.41595096992E+02  0.38398353280E+02  0.61121182246E+02  0.83308970391E+02  0.00000000000E+00 0.  1.
<mgrwt>
<rscale>  0 0.65666763E+02</rscale>
<asrwt>0</asrwt>
<pdfrwt beam="1">  1        2 0.18495405E+00 0.76173740E+02</pdfrwt>
<pdfrwt beam="2">  1       -1 0.35297636E-02 0.56609060E+02</pdfrwt>
<totfact> 0.61707240E+03</totfact>
</mgrwt>
</event>
<event>
 7    1  0.3113530E-004  0.5469684E+02  0.7546771E-02  0.1461650E+00
          1   -1    0    0  503    0 -0.00000000000E+00  0.00000000000E+00  0.49916455546E+03  0.49916455546E+03  0.00000000000E+00 0. -1.
          2   -1    0    0  502    0  0.00000000000E+00 -0.00000000000E+00 -0.17426522747E+04  0.17426522747E+04  0.00000000000E+00 0. -1.
         25    2    1    2    0    0  0.13798602660E+02  0.53634219831E+02 -0.42364425243E+00  0.13671240437E+03  0.12499228401E+03 0.  0.
          4    1    3    3  501    0 -0.32309373855E+02  0.59032499727E+02 -0.37713782962E+02  0.77153574047E+02  0.12700000000E+01 0.  1.
         -4    1    3    3    0  501  0.46107976515E+02 -0.53982798962E+01  0.37290138710E+02  0.59558830320E+02  0.12700000000E+01 0.  1.
          2    1    1    2  502    0  0.32642396760E+02 -0.24067597771E+02 -0.16720793551E+04  0.16725711181E+04  0.00000000000E+00 0. -1.
          1    1    1    2  503    0 -0.46440999420E+02 -0.29566622061E+02  0.42901528019E+03  0.43253330762E+03  0.00000000000E+00 0. -1.
<mgrwt>
<rscale>  0 0.47098573E+02</rscale>
<asrwt>0</asrwt>
<pdfrwt beam="2">  1        2 0.26810036E+00 0.40555830E+02</pdfrwt>
<pdfrwt beam="1">  1        1 0.76794546E-01 0.54696837E+02</pdfrwt>
<totfact> 0.78381579E+01</totfact>
</mgrwt>
</event>
<event>
 7    1  0.3113530E-004  0.7715055E+02  0.7546771E-02  0.1445280E+00
          2   -1    0    0  502    0  0.00000000000E+00  0.00000000000E+00  0.47744851569E+03  0.47744851569E+03  0.00000000000E+00 0. -1.
          1   -1    0    0  503    0 -0.00000000000E+00 -0.00000000000E+00 -0.78785884950E+03  0.78785884950E+03  0.00000000000E+00 0. -1.
         25    2    1    2    0    0  0.48071900846E+02  0.77756149916E+02  0.11699857370E+03  0.19409055593E+03  0.12500220459E+03 0.  0.
          4    1    3    3  501    0 -0.29003616339E+02  0.45037113016E+02  0.92395816560E+02  0.10680894685E+03  0.12700000000E+01 0. -1.
         -4    1    3    3    0  501  0.77075517184E+02  0.32719036900E+02  0.24602757143E+02  0.87281609082E+02  0.12700000000E+01 0. -1.
          2    1    1    2  502    0 -0.32334269185E+02 -0.23431962146E+01  0.31910041067E+03  0.32074299309E+03  0.00000000000E+00 0. -1.
          1    1    1    2  503    0 -0.15737631661E+02 -0.75412953702E+02 -0.74650931817E+03  0.75047381617E+03  0.00000000000E+00 0. -1.
<mgrwt>
<rscale>  0 0.50011482E+02</rscale>
<asrwt>0</asrwt>
<pdfrwt beam="1">  1        2 0.73453618E-01 0.32419061E+02</pdfrwt>
<pdfrwt beam="2">  1        1 0.12120905E+00 0.77150547E+02</pdfrwt>
<totfact> 0.23037450E+02</totfact>
</mgrwt>
</event>
<event>
 7    1  0.3113530E-004  0.1123980E+03  0.7546771E-02  0.1290717E+00
          1   -1    0    0  502    0  0.00000000000E+00  0.00000000000E+00  0.11315073777E+04  0.11315073777E+04  0.00000000000E+00 0. -1.
          1   -1    0    0  503    0 -0.00000000000E+00 -0.00000000000E+00 -0.18085827360E+04  0.18085827360E+04  0.00000000000E+00 0. -1.
         25    2    1    2    0    0  0.14431202393E+03 -0.12498241274E+03 -0.88396177442E+02  0.24471567397E+03  0.12500125262E+03 0.  0.
          4    1    3    3  501    0  0.14750860688E+02 -0.21501509743E+02 -0.73769644343E+02  0.78252643014E+02  0.12700000000E+01 0. -1.
         -4    1    3    3    0  501  0.12956116324E+03 -0.10348090299E+03 -0.14626533099E+02  0.16646303096E+03  0.12700000000E+01 0. -1.
          1    1    1    2  502    0 -0.64079757731E+02  0.48955147619E+02  0.10499396694E+04  0.10530318757E+04  0.00000000000E+00 0. -1.
          1    1    1    2  503    0 -0.80232266197E+02  0.76027265118E+02 -0.16386188502E+04  0.16423425641E+04  0.00000000000E+00 0. -1.
<mgrwt>
<rscale>  0 0.95203922E+02</rscale>
<asrwt>0</asrwt>
<pdfrwt beam="1">  1        1 0.17407806E+00 0.80640076E+02</pdfrwt>
<pdfrwt beam="2">  1        1 0.27824350E+00 0.11239804E+03</pdfrwt>
<totfact> 0.83490537E+00</totfact>
</mgrwt>
</event>
<event>
 7    1  0.3113530E-004  0.9555089E+02  0.7546771E-02  0.1375886E+00
          2   -1    0    0  503    0  0.00000000000E+00  0.00000000000E+00  0.32367367855E+04  0.32367367855E+04  0.00000000000E+00 0. -1.
          2   -1    0    0  502    0 -0.00000000000E+00 -0.00000000000E+00 -0.70756948140E+03  0.70756948140E+03  0.00000000000E+00 0. -1.
         25    2    1    2    0    0  0.50811734547E+02  0.12660123134E+03  0.26716142926E+03  0.32497717609E+03  0.12500092619E+03 0.  0.
          4    1    3    3  501    0  0.55001899498E+02  0.14975556729E+03  0.24656644511E+03  0.29368105767E+03  0.12700000000E+01 0. -1.
         -4    1    3    3    0  501 -0.41901649508E+01 -0.23154335950E+02  0.20594984148E+02  0.31296118412E+02  0.12700000000E+01 0. -1.
          2    1    1    2  502    0 -0.33802220476E+01 -0.44852051724E+02 -0.67715590569E+03  0.67864810694E+03  0.00000000000E+00 0. -1.
          2    1    1    2  503    0 -0.47431512499E+02 -0.81749179613E+02  0.29391617805E+04  0.29406809839E+04  0.00000000000E+00 0. -1.
<mgrwt>
<rscale>  0 0.65557660E+02</rscale>
<asrwt>0</asrwt>
<pdfrwt beam="1">  1        2 0.49795950E+00 0.95550888E+02</pdfrwt>
<pdfrwt beam="2">  1        2 0.10885684E+00 0.44979245E+02</pdfrwt>
<totfact> 0.12158390E+01</totfact>
</mgrwt>
</event>
<event>
 7    1  0.3113530E-004  0.6379640E+02  0.7546771E-02  0.1456341E+00
          2   -1    0    0  503    0  0.00000000000E+00  0.00000000000E+00  0.24799508267E+04  0.24799508267E+04  0.00000000000E+00 0. -1.
         -1   -1    0    0    0  501 -0.00000000000E+00 -0.00000000000E+00 -0.18256903705E+02  0.18256903705E+02  0.00000000000E+00 0.  1.
         25    2    1    2    0    0 -0.47500077464E+02 -0.81756790722E+02  0.67899098509E+03  0.69684467563E+03  0.12499325555E+03 0.  0.
          4    1    3    3  502    0  0.30424123853E+02 -0.63549823327E+02  0.41665313217E+03  0.42257029333E+03  0.12700000000E+01 0.  1.
         -4    1    3    3    0  502 -0.77924201317E+02 -0.18206967395E+02  0.26233785292E+03  0.27427438231E+03  0.12700000000E+01 0.  1.
          2    1    1    2  503    0  0.41461630011E+02  0.46124568835E+02  0.17543036316E+04  0.17553996053E+04  0.00000000000E+00 0. -1.
         -1    1    1    2    0  501  0.60384474528E+01  0.35632221887E+02  0.28399306297E+02  0.45963449418E+02  0.00000000000E+00 0.  1.
<mgrwt>
<rscale>  0 0.48016855E+02</rscale>
<asrwt>0</asrwt>
<pdfrwt beam="1">  1        2 0.38153063E+00 0.63796404E+02</pdfrwt>
<pdfrwt beam="2">  1       -1 0.28087564E-02 0.36140256E+02</pdfrwt>
<totfact> 0.18469086E+03</totfact>
</mgrwt>
</event>
<event>
 7    1  0.3113530E-004  0.6202172E+02  0.7546771E-02  0.1480219E+00
          2   -1    0    0  503    0  0.00000000000E+00  0.00000000000E+00  0.10735511018E+04  0.10735511018E+04  0.00000000000E+00 0. -1.
         -1   -1    0    0    0  501 -0.00000000000E+00 -0.00000000000E+00 -0.70975535300E+03  0.70975535300E+03  0.00000000000E+00 0.  1.
         25    2    1    2    0    0 -0.71398315410E+02  0.57655738110E+02  0.15294904915E+03  0.21780844670E+03  0.12500081695E+03 0.  0.
          4    1    3    3  502    0  0.26352931935E+02  0.27775379543E+02  0.89856120935E+02  0.97681544315E+02  0.12700000000E+01 0. -1.
         -4    1    3    3    0  502 -0.97751247345E+02  0.29880358567E+02  0.63092928213E+02  0.12012690238E+03  0.12700000000E+01 0. -1.
          2    1    1    2  503    0  0.28342465692E+02 -0.13321930186E+02  0.88648557936E+03  0.88703858518E+03  0.00000000000E+00 0. -1.
         -1    1    1    2    0  501  0.43055849718E+02 -0.44333807924E+02 -0.67563887973E+03  0.67845942290E+03  0.00000000000E+00 0.  1.
<mgrwt>
<rscale>  0 0.44072086E+02</rscale>
<asrwt>0</asrwt>
<pdfrwt beam="1">  1        2 0.16516171E+00 0.31317235E+02</pdfrwt>
<pdfrwt beam="2">  1       -1 0.10919313E+00 0.62021720E+02</pdfrwt>
<totfact> 0.27361241E+01</totfact>
</mgrwt>
</event>
<event>
 7    1  0.3113530E-004  0.1792744E+03  0.7546771E-02  0.1261539E+00
          2   -1    0    0  503    0  0.00000000000E+00  0.00000000000E+00  0.67271023237E+03  0.67271023237E+03  0.00000000000E+00 0. -1.
         -3   -1    0    0    0  501 -0.00000000000E+00 -0.00000000000E+00 -0.21427452873E+03  0.21427452873E+03  0.00000000000E+00 0.  1.
         25    2    1    2    0    0 -0.11924007790E+03 -0.18772555182E+03  0.55667147403E+02  0.26111683774E+03  0.12499637061E+03 0.  0.
          4    1    3    3  502    0  0.11663069743E+00 -0.50557622675E+02  0.60961138302E+02  0.79208333503E+02  0.12700000000E+01 0. -1.
         -4    1    3    3    0  502 -0.11935670860E+03 -0.13716792914E+03 -0.52939908987E+01  0.18190850423E+03  0.12700000000E+01 0. -1.
          2    1    1    2  503    0  0.10168010046E+02  0.66077981242E+02  0.45067255616E+03  0.45560447859E+03  0.00000000000E+00 0. -1.
         -3    1    1    2    0  501  0.10907206785E+03  0.12164757058E+03 -0.47903999929E+02  0.17026344476E+03  0.00000000000E+00 0.  1.
<mgrwt>
<rscale>  0 0.10947839E+03</rscale>
<asrwt>0</asrwt>
<pdfrwt beam="1">  1        2 0.10349388E+00 0.66855726E+02</pdfrwt>
<pdfrwt beam="2">  1       -3 0.32965312E-01 0.17927438E+03</pdfrwt>
<totfact> 0.25256915E+02</totfact>
</mgrwt>
</event>
<event>
 7    1  0.3113530E-004  0.1615263E+03  0.7546771E-02  0.1253068E+00
          1   -1    0    0  503    0  0.00000000000E+00  0.00000000000E+00  0.62931023390E+03  0.62931023390E+03  0.00000000000E+00 0. -1.
         -2   -1    0    0    0  501 -0.00000000000E+00 -0.00000000000E+00 -0.11282752325E+04  0.11282752325E+04  0.00000000000E+00 0.  1.
         25    2    1    2    0    0 -0.80980407600E+02  0.17821891440E+03  0.16944364583E+03  0.28750334509E+03  0.12500886553E+03 0.  0.
          4    1    3    3  502    0 -0.43312297148E+02  0.16596663820E+03  0.17774339086E+03  0.24701256238E+03  0.12700000000E+01 0. -1.
         -4    1    3    3    0  502 -0.37668110452E+02  0.12252276194E+02 -0.82997450263E+01  0.40490782710E+02  0.12700000000E+01 0. -1.
          1    1    1    2  503    0  0.34954105914E+01 -0.15576410223E+03  0.38409460042E+03  0.41449165916E+03  0.00000000000E+00 0. -1.
         -2    1    1    2    0  501  0.77484997008E+02 -0.22454812169E+02 -0.10525032449E+04  0.10555904622E+04  0.00000000000E+00 0.  1.
<mgrwt>
<rscale>  0 0.11415263E+03</rscale>
<asrwt>0</asrwt>
<pdfrwt beam="1">  1        1 0.96816960E-01 0.16152631E+03</pdfrwt>
<pdfrwt beam="2">  1       -2 0.17358080E+00 0.80673065E+02</pdfrwt>
<totfact> 0.68897528E+00</totfact>
</mgrwt>
</event>
<event>
 7    1  0.3113530E-004  0.9504618E+02  0.7546771E-02  0.1372813E+00
          1   -1    0    0  503    0 -0.00000000000E+00  0.00000000000E+00  0.22746020238E+04  0.22746020238E+04  0.00000000000E+00 0. -1.
          2   -1    0    0  502    0  0.00000000000E+00 -0.00000000000E+00 -0.94236810681E+02  0.94236810681E+02  0.00000000000E+00 0. -1.
         25    2    1    2    0    0 -0.73629382289E+02  0.32652681336E+02  0.68419079141E+02  0.16369668674E+03  0.12501180474E+03 0.  0.
          4    1    3    3  501    0 -0.25308139185E+02 -0.34049843166E+02  0.69359194721E+02  0.81315462988E+02  0.12700000000E+01 0.  1.
         -4    1    3    3    0  501 -0.48321243104E+02  0.66702524502E+02 -0.94011558031E+00  0.82381223754E+02  0.12700000000E+01 0.  1.
          2    1    1    2  502    0 -0.21592829532E+02 -0.41041714801E+02 -0.33725782896E+02  0.57341966071E+02  0.00000000000E+00 0. -1.
          1    1    1    2  503    0  0.95222211821E+02  0.83890334651E+01  0.21456719169E+04  0.21478001817E+04  0.00000000000E+00 0. -1.
<mgrwt>
<rscale>  0 0.66391261E+02</rscale>
<asrwt>0</asrwt>
<pdfrwt beam="2">  1        2 0.14497973E-01 0.46375345E+02</pdfrwt>
<pdfrwt beam="1">  1        1 0.34993873E+00 0.95046182E+02</pdfrwt>
<totfact> 0.12984764E+02</totfact>
</mgrwt>
</event>
<event>
 7    1  0.3113530E-004  0.7698561E+02  0.7546771E-02  0.1356071E+00
          2   -1    0    0  502    0  0.00000000000E+00  0.00000000000E+00  0.12142637801E+04  0.12142637801E+04  0.00000000000E+00 0. -1.
          1   -1    0    0  503    0 -0.00000000000E+00 -0.00000000000E+00 -0.89443747814E+02  0.89443747814E+02  0.00000000000E+00 0. -1.
         25    2    1    2    0    0  0.61262680933E+02  0.87087590848E+02  0.30165709725E+03  0.34345361969E+03  0.12500407993E+03 0.  0.
          4    1    3    3  501    0  0.11829990323E+02  0.79171465975E+02  0.27561683980E+03  0.28700927682E+03  0.12700000000E+01 0.  1.
         -4    1    3    3    0  501  0.49432690610E+02  0.79161248740E+01  0.26040257446E+02  0.56444342868E+02  0.12700000000E+01 0.  1.
          2    1    1    2  502    0  0.11801420022E+02 -0.64776279893E+02  0.86878299584E+03  0.87127443083E+03  0.00000000000E+00 0. -1.
          1    1    1    2  503    0 -0.73064100955E+02 -0.22311310956E+02 -0.45620060827E+02  0.88979477380E+02  0.00000000000E+00 0. -1.
<mgrwt>
<rscale>  0 0.71196406E+02</rscale>
<asrwt>0</asrwt>
<pdfrwt beam="1">  1        2 0.18680980E+00 0.65842539E+02</pdfrwt>
<pdfrwt beam="2">  1        1 0.13760577E-01 0.76985613E+02</pdfrwt>
<totfact> 0.11490939E+03</totfact>
</mgrwt>
</event>
<event>
 7    1  0.3113530E-004  0.3515295E+02  0.7546771E-02  0.1553338E+00
          2   -1    0    0  502    0  0.00000000000E+00  0.00000000000E+00  0.12169623402E+04  0.12169623402E+04  0.00000000000E+00 0.  1.
          1   -1    0    0  503    0 -0.00000000000E+00 -0.00000000000E+00 -0.34584320987E+02  0.34584320987E+02  0.00000000000E+00 0. -1.
         25    2    1    2    0    0  0.34421186042E+02 -0.57286762354E+01  0.44629734696E+03  0.46478427420E+03  0.12500185546E+03 0.  0.
          4    1    3    3  501    0  0.49593788926E+02 -0.57127338710E+02  0.24058078740E+03  0.25219794784E+03  0.12700000000E+01 0.  1.
         -4    1    3    3    0  501 -0.15172602884E+02  0.51398662474E+02  0.20571655955E+03  0.21258632636E+03  0.12700000000E+01 0.  1.
          2    1    1    2  502    0 -0.20369353661E+02 -0.26978467078E+02  0.74834718800E+03  0.74911031366E+03  0.00000000000E+00 0.  1.
          1    1    1    2  503    0 -0.14051832381E+02  0.32707143313E+02 -0.12266515737E+02  0.37652073320E+02  0.00000000000E+00 0. -1.
<mgrwt>
<rscale>  0 0.34472161E+02</rscale>
<asrwt>0</asrwt>
<pdfrwt beam="1">  1        2 0.18722494E+00 0.33804560E+02</pdfrwt>
<pdfrwt beam="2">  1        1 0.53206657E-02 0.35152947E+02</pdfrwt>
<totfact> 0.38427419E+03</totfact>
</mgrwt>
</event>
<event>
 7    1  0.3113530E-004  0.1203586E+03  0.7546771E-02  0.1357584E+00
          2   -1    0    0  502    0  0.00000000000E+00  0.00000000000E+00  0.52124982032E+02  0.52124982032E+02  0.00000000000E+00 0. -1.
          1   -1    0    0  503    0 -0.00000000000E+00 -0.00000000000E+00 -0.18563408834E+04  0.18563408834E+04  0.00000000000E+00 0. -1.
         25    2    1    2    0    0 -0.75582965966E+01 -0.11029819097E+03 -0.27862738417E+03  0.32477867341E+03  0.12500059484E+03 0.  0.
          4    1    3    3  501    0  0.12622093723E+02 -0.21117697787E+02 -0.20742563785E+03  0.20888341855E+03  0.12700000000E+01 0.  1.
         -4    1    3    3    0  501 -0.20180390319E+02 -0.89180493184E+02 -0.71201746330E+02  0.11589525486E+03  0.12700000000E+01 0.  1.
          2    1    1    2  502    0 -0.32135759240E+02  0.12268079091E+03 -0.11114090878E+03  0.16862854172E+03  0.00000000000E+00 0. -1.
          1    1    1    2  503    0  0.39694055837E+02 -0.12382599934E+02 -0.14144476084E+04  0.14150586503E+04  0.00000000000E+00 0. -1.
<mgrwt>
<rscale>  0 0.70743071E+02</rscale>
<asrwt>0</asrwt>
<pdfrwt beam="1">  1        2 0.80192286E-02 0.12035856E+03</pdfrwt>
<pdfrwt beam="2">  1        1 0.28559088E+00 0.41580607E+02</pdfrwt>
<totfact> 0.56768822E+02</totfact>
</mgrwt>
</event>
<event>
 7    1  0.3113530E-004  0.6226019E+02  0.7546771E-02  0.1485107E+00
          2   -1    0    0  503    0  0.00000000000E+00  0.00000000000E+00  0.13903265227E+04  0.13903265227E+04  0.00000000000E+00 0. -1.
         -3   -1    0    0    0  501 -0.00000000000E+00 -0.00000000000E+00 -0.27898379819E+02  0.27898379819E+02  0.00000000000E+00 0.  1.
         25    2    1    2    0    0 -0.37855580612E+02  0.22624136040E+02  0.32484760749E+03  0.35085009627E+03  0.12499970178E+03 0.  0.
          4    1    3    3  502    0 -0.23944395381E+02 -0.29781684165E+02  0.27351290218E+03  0.27617241597E+03  0.12700000000E+01 0. -1.
         -4    1    3    3    0  502 -0.13911185230E+02  0.52405820205E+02  0.51334705307E+02  0.74677680299E+02  0.12700000000E+01 0. -1.
          2    1    1    2  503    0 -0.36056200456E+01  0.29926037236E+02  0.97586027404E+03  0.97632568472E+03  0.00000000000E+00 0. -1.
         -3    1    1    2    0  501  0.41461200657E+02 -0.52550173277E+02  0.61720261380E+02  0.91049121556E+02  0.00000000000E+00 0.  1.
<mgrwt>
<rscale>  0 0.43320614E+02</rscale>
<asrwt>0</asrwt>
<pdfrwt beam="1">  1        2 0.21389633E+00 0.30142465E+02</pdfrwt>
<pdfrwt beam="2">  1       -3 0.42920595E-02 0.62260190E+02</pdfrwt>
<totfact> 0.28023576E+03</totfact>
</mgrwt>
</event>
<event>
 7    1  0.3113530E-004  0.5177774E+02  0.7546771E-02  0.1460046E+00
          2   -1    0    0  502    0  0.00000000000E+00  0.00000000000E+00  0.13655576929E+04  0.13655576929E+04  0.00000000000E+00 0. -1.
          1   -1    0    0  503    0 -0.00000000000E+00 -0.00000000000E+00 -0.22393856088E+02  0.22393856088E+02  0.00000000000E+00 0. -1.
         25    2    1    2    0    0 -0.20607246295E+02  0.25067573743E+02  0.11286735884E+04  0.11360382342E+04  0.12500303462E+03 0.  0.
          4    1    3    3  501    0 -0.33117894971E+01  0.77727034453E+01  0.15923026623E+01  0.86908685578E+01  0.12700000000E+01 0.  1.
         -4    1    3    3    0  501 -0.17295456798E+02  0.17294870298E+02  0.11270812857E+04  0.11273473657E+04  0.12700000000E+01 0.  1.
          2    1    1    2  502    0 -0.50101856488E+02  0.13066678778E+02  0.83993947864E+02  0.98670752483E+02  0.00000000000E+00 0. -1.
          1    1    1    2  503    0  0.70709102783E+02 -0.38134252521E+02  0.13049630057E+03  0.15324256228E+03  0.00000000000E+00 0. -1.
<mgrwt>
<rscale>  0 0.47373501E+02</rscale>
<asrwt>0</asrwt>
<pdfrwt beam="1">  1        2 0.21008573E+00 0.43343890E+02</pdfrwt>
<pdfrwt beam="2">  1        1 0.34452097E-02 0.51777738E+02</pdfrwt>
<totfact> 0.59057623E+03</totfact>
</mgrwt>
</event>
<event>
 7    1  0.3113530E-004  0.6633474E+02  0.7546771E-02  0.1470407E+00
         -1   -1    0    0    0  501 -0.00000000000E+00  0.00000000000E+00  0.26789356924E+02  0.26789356924E+02  0.00000000000E+00 0.  1.
          2   -1    0    0  503    0  0.00000000000E+00 -0.00000000000E+00 -0.67796407458E+03  0.67796407458E+03  0.00000000000E+00 0. -1.
         25    2    1    2    0    0  0.76720987825E+02  0.22047408311E+02 -0.28346280821E+03  0.31992164999E+03  0.12500600110E+03 0.  0.
          4    1    3    3  502    0 -0.29175445721E+02  0.18119241194E+02 -0.12229823695E+03  0.12703536986E+03  0.12700000000E+01 0.  1.
         -4    1    3    3    0  502  0.10589643355E+03  0.39281671166E+01 -0.16116457126E+03  0.19288628013E+03  0.12700000000E+01 0.  1.
          2    1    1    2  503    0 -0.50988853098E+02 -0.40036324683E+02 -0.32729122980E+03  0.33364999556E+03  0.00000000000E+00 0. -1.
         -1    1    1    2    0  501 -0.25732134727E+02  0.17988916372E+02 -0.40420679652E+02  0.51181785953E+02  0.00000000000E+00 0.  1.
<mgrwt>
<rscale>  0 0.45636416E+02</rscale>
<asrwt>0</asrwt>
<pdfrwt beam="2">  1        2 0.10430215E+00 0.66334738E+02</pdfrwt>
<pdfrwt beam="1">  1       -1 0.41214400E-02 0.31396558E+02</pdfrwt>
<totfact> 0.96251738E+03</totfact>
</mgrwt>
</event>
<event>
 7    1  0.3113530E-004  0.5177073E+02  0.7546771E-02  0.1474433E+00
         -2   -1    0    0    0  501 -0.00000000000E+00  0.00000000000E+00  0.39214649106E+03  0.39214649106E+03  0.00000000000E+00 0.  1.
          1   -1    0    0  503    0  0.00000000000E+00 -0.00000000000E+00 -0.59150523423E+03  0.59150523423E+03  0.00000000000E+00 0. -1.
         25    2    1    2    0    0  0.84689814945E+02 -0.28350725776E+02 -0.12732999096E+03  0.19953369233E+03  0.12499855747E+03 0.  0.
          4    1    3    3  502    0 -0.18071665446E+02  0.15310961711E+02 -0.70217384792E+02  0.74115481969E+02  0.12700000000E+01 0.  1.
         -4    1    3    3    0  502  0.10276148039E+03 -0.43661687487E+02 -0.57112606168E+02  0.12541821036E+03  0.12700000000E+01 0.  1.
          1    1    1    2  503    0 -0.47888103920E+02  0.15174764228E+02 -0.42551854396E+03  0.42847354086E+03  0.00000000000E+00 0. -1.
         -2    1    1    2    0  501 -0.36801711025E+02  0.13175961548E+02  0.35348979175E+03  0.35564449211E+03  0.00000000000E+00 0.  1.
<mgrwt>
<rscale>  0 0.44985340E+02</rscale>
<asrwt>0</asrwt>
<pdfrwt beam="2">  1        1 0.91000805E-01 0.51770735E+02</pdfrwt>
<pdfrwt beam="1">  1       -2 0.60330230E-01 0.39089281E+02</pdfrwt>
<totfact> 0.89029203E+01</totfact>
</mgrwt>
</event>
<event>
 7    1  0.3113530E-004  0.1021913E+03  0.7546771E-02  0.1430125E+00
          1   -1    0    0  503    0 -0.00000000000E+00  0.00000000000E+00  0.10573404028E+03  0.10573404028E+03  0.00000000000E+00 0. -1.
          2   -1    0    0  502    0  0.00000000000E+00 -0.00000000000E+00 -0.11432641492E+04  0.11432641492E+04  0.00000000000E+00 0. -1.
         25    2    1    2    0    0 -0.70744079619E+02  0.37905012940E+02 -0.93309133020E+02  0.17542337351E+03  0.12500100345E+03 0.  0.
          4    1    3    3  501    0  0.19609365772E+01  0.11312273370E+02  0.28690616213E+02  0.30928581599E+02  0.12700000000E+01 0.  1.
         -4    1    3    3    0  501 -0.72705016196E+02  0.26592739571E+02 -0.12199974923E+03  0.14449479192E+03  0.12700000000E+01 0.  1.
          2    1    1    2  502    0  0.82639584458E+02 -0.62610541967E+02 -0.10031947620E+04  0.10085381060E+04  0.00000000000E+00 0. -1.
          1    1    1    2  503    0 -0.11895504839E+02  0.24705529026E+02  0.58973786048E+02  0.65036709946E+02  0.00000000000E+00 0. -1.
<mgrwt>
<rscale>  0 0.52934893E+02</rscale>
<asrwt>0</asrwt>
<pdfrwt beam="2">  1        2 0.17588678E+00 0.10219127E+03</pdfrwt>
<pdfrwt beam="1">  1        1 0.16266777E-01 0.27420179E+02</pdfrwt>
<totfact> 0.93301531E+02</totfact>
</mgrwt>
</event>
<event>
 7    1  0.3113530E-004  0.1185742E+03  0.7546771E-02  0.1302976E+00
         -1   -1    0    0    0  501 -0.00000000000E+00  0.00000000000E+00  0.10631847897E+03  0.10631847897E+03  0.00000000000E+00 0.  1.
          2   -1    0    0  503    0  0.00000000000E+00 -0.00000000000E+00 -0.57877267863E+03  0.57877267863E+03  0.00000000000E+00 0. -1.
         25    2    1    2    0    0 -0.13105697452E+03 -0.33432322533E+02 -0.77166032925E+02  0.19968004048E+03  0.12499548459E+03 0.  0.
          4    1    3    3  502    0 -0.15537611507E+01 -0.15711829867E+02 -0.66689519511E+02  0.68544734912E+02  0.12700000000E+01 0.  1.
         -4    1    3    3    0  502 -0.12950321337E+03 -0.17720492666E+02 -0.10476513414E+02  0.13113530557E+03  0.12700000000E+01 0.  1.
          2    1    1    2  503    0  0.20085177877E+02  0.65210704668E+02 -0.35749643384E+03  0.36394992868E+03  0.00000000000E+00 0. -1.
         -1    1    1    2    0  501  0.11097179664E+03 -0.31778382135E+02 -0.37791732895E+02  0.12146118844E+03  0.00000000000E+00 0.  1.
<mgrwt>
<rscale>  0 0.89948709E+02</rscale>
<asrwt>0</asrwt>
<pdfrwt beam="2">  1        2 0.89041949E-01 0.68233792E+02</pdfrwt>
<pdfrwt beam="1">  1       -1 0.16356689E-01 0.11857424E+03</pdfrwt>
<totfact> 0.16728368E+03</totfact>
</mgrwt>
</event>
<event>
 7    1  0.3113530E-004  0.4475825E+02  0.7546771E-02  0.1567038E+00
         -3   -1    0    0    0  501 -0.00000000000E+00  0.00000000000E+00  0.11327661588E+03  0.11327661588E+03  0.00000000000E+00 0.  1.
          2   -1    0    0  503    0  0.00000000000E+00 -0.00000000000E+00 -0.18868187402E+04  0.18868187402E+04  0.00000000000E+00 0. -1.
         25    2    1    2    0    0 -0.27038771318E+02 -0.25927648849E+02 -0.35948470161E+03  0.38243824030E+03  0.12500567517E+03 0.  0.
          4    1    3    3  502    0  0.21809529168E+02  0.34322435537E+02 -0.21124827475E+03  0.21513049907E+03  0.12700000000E+01 0.  1.
         -4    1    3    3    0  502 -0.48848300486E+02 -0.60250084387E+02 -0.14823642686E+03  0.16730774124E+03  0.12700000000E+01 0.  1.
          2    1    1    2  503    0  0.10598753445E+02  0.43879683624E+02 -0.15140608634E+04  0.15147336592E+04  0.00000000000E+00 0. -1.
         -3    1    1    2    0  501  0.16440017873E+02 -0.17952034775E+02  0.10000344075E+03  0.10292345652E+03  0.00000000000E+00 0.  1.
<mgrwt>
<rscale>  0 0.33007889E+02</rscale>
<asrwt>0</asrwt>
<pdfrwt beam="2">  1        2 0.29027981E+00 0.44758249E+02</pdfrwt>
<pdfrwt beam="1">  1       -3 0.17427172E-01 0.24342345E+02</pdfrwt>
<totfact> 0.14264347E+02</totfact>
</mgrwt>
</event>
<event>
 7    1  0.3113530E-004  0.1102844E+03  0.7546771E-02  0.1316458E+00
          2   -1    0    0  503    0  0.00000000000E+00  0.00000000000E+00  0.33744320212E+04  0.33744320212E+04  0.00000000000E+00 0. -1.
          2   -1    0    0  502    0 -0.00000000000E+00 -0.00000000000E+00 -0.18944271692E+03  0.18944271692E+03  0.00000000000E+00 0. -1.
         25    2    1    2    0    0  0.11870140667E+03 -0.14554054724E+02  0.47295686661E+03  0.50360295151E+03  0.12500356251E+03 0.  0.
          4    1    3    3  501    0  0.12381611829E+03 -0.85719788483E+01  0.23720013701E+03  0.26771146383E+03  0.12700000000E+01 0.  1.
         -4    1    3    3    0  501 -0.51147116182E+01 -0.59820758757E+01  0.23575672961E+03  0.23589148768E+03  0.12700000000E+01 0.  1.
          2    1    1    2  502    0 -0.85403020507E+02  0.70274096657E+02 -0.15615252898E+03  0.19135238927E+03  0.00000000000E+00 0. -1.
          2    1    1    2  503    0 -0.33298386163E+02 -0.55720041933E+02  0.28681849667E+04  0.28689193974E+04  0.00000000000E+00 0. -1.
<mgrwt>
<rscale>  0 0.84609253E+02</rscale>
<asrwt>0</asrwt>
<pdfrwt beam="1">  1        2 0.51914334E+00 0.64911521E+02</pdfrwt>
<pdfrwt beam="2">  1        2 0.29145036E-01 0.11028436E+03</pdfrwt>
<totfact> 0.43512138E+01</totfact>
</mgrwt>
</event>
<event>
 7    1  0.3113530E-004  0.2209873E+03  0.7546771E-02  0.1186046E+00
         -1   -1    0    0    0  501 -0.00000000000E+00  0.00000000000E+00  0.11125437570E+04  0.11125437570E+04  0.00000000000E+00 0.  1.
          2   -1    0    0  503    0  0.00000000000E+00 -0.00000000000E+00 -0.10008216516E+04  0.10008216516E+04  0.00000000000E+00 0. -1.
         25    2    1    2    0    0 -0.22784474236E+03 -0.13144273225E+03  0.82343030283E+03  0.87341477057E+03  0.12500191736E+03 0.  0.
          4    1    3    3  502    0 -0.17665470922E+03 -0.54717580605E+02  0.40940455924E+03  0.44923780556E+03  0.12700000000E+01 0. -1.
         -4    1    3    3    0  502 -0.51190033138E+02 -0.76725151647E+02  0.41402574359E+03  0.42417696501E+03  0.12700000000E+01 0. -1.
          2    1    1    2  503    0  0.11890487275E+03 -0.97232364403E+01 -0.94153440513E+03  0.94906266713E+03  0.00000000000E+00 0. -1.
         -1    1    1    2    0  501  0.10893986961E+03  0.14116596869E+03  0.22982620762E+03  0.29088797090E+03  0.00000000000E+00 0.  1.
<mgrwt>
<rscale>  0 0.16237048E+03</rscale>
<asrwt>0</asrwt>
<pdfrwt beam="2">  1        2 0.15397256E+00 0.11930176E+03</pdfrwt>
<pdfrwt beam="1">  1       -1 0.17116058E+00 0.22098730E+03</pdfrwt>
<totfact> 0.84787063E+00</totfact>
</mgrwt>
</event>
<event>
 7    1  0.3113530E-004  0.1307642E+03  0.7546771E-02  0.1435127E+00
         -2   -1    0    0    0  501 -0.00000000000E+00  0.00000000000E+00  0.46564663215E+02  0.46564663215E+02  0.00000000000E+00 0.  1.
          2   -1    0    0  503    0  0.00000000000E+00 -0.00000000000E+00 -0.63503858868E+03  0.63503858868E+03  0.00000000000E+00 0. -1.
         25    2    1    2    0    0  0.12951581727E+03 -0.10037778523E+02 -0.36719416364E+03  0.40906235407E+03  0.12500140714E+03 0.  0.
          4    1    3    3  502    0  0.82040663119E+02  0.53512835568E+02 -0.23911118636E+03  0.25839904473E+03  0.12700000000E+01 0.  1.
         -4    1    3    3    0  502  0.47475154147E+02 -0.63550614091E+02 -0.12808297728E+03  0.15066330934E+03  0.12700000000E+01 0.  1.
          2    1    1    2  503    0 -0.13219053689E+03 -0.10422511927E+02 -0.15957855903E+03  0.20748080224E+03  0.00000000000E+00 0.  1.
         -2    1    1    2    0  501  0.26747196219E+01  0.20460290450E+02 -0.61701202802E+02  0.65060095585E+02  0.00000000000E+00 0. -1.
<mgrwt>
<rscale>  0 0.51944572E+02</rscale>
<asrwt>0</asrwt>
<pdfrwt beam="2">  1        2 0.97698247E-01 0.13076422E+03</pdfrwt>
<pdfrwt beam="1">  1       -2 0.71637942E-02 0.20634379E+02</pdfrwt>
<totfact> 0.42726610E+03</totfact>
</mgrwt>
</event>
<event>
 7    1  0.3113530E-004  0.1677270E+03  0.7546771E-02  0.1267495E+00
          2   -1    0    0  502    0  0.00000000000E+00  0.00000000000E+00  0.27947426405E+02  0.27947426405E+02  0.00000000000E+00 0. -1.
          1   -1    0    0  503    0 -0.00000000000E+00 -0.00000000000E+00 -0.31996068088E+04  0.31996068088E+04  0.00000000000E+00 0. -1.
         25    2    1    2    0    0  0.13478213263E+03  0.11601807707E+03 -0.11106224283E+04  0.11316938037E+04  0.12498907712E+03 0.  0.
          4    1    3    3  501    0 -0.23780143073E+02  0.10479275117E+02 -0.10374919783E+03  0.10696176589E+03  0.12700000000E+01 0. -1.
         -4    1    3    3    0  501  0.15856227570E+03  0.10553880196E+03 -0.10068732305E+04  0.10247320378E+04  0.12700000000E+01 0. -1.
          2    1    1    2  502    0 -0.76106778922E+02 -0.14923342928E+03 -0.40270575240E+03  0.43615912375E+03  0.00000000000E+00 0. -1.
          1    1    1    2  503    0 -0.58675353709E+02  0.33215352208E+02 -0.16583312017E+04  0.16597013078E+04  0.00000000000E+00 0. -1.
<mgrwt>
<rscale>  0 0.10634331E+03</rscale>
<asrwt>0</asrwt>
<pdfrwt beam="1">  1        2 0.42996044E-02 0.16772696E+03</pdfrwt>
<pdfrwt beam="2">  1        1 0.49224717E+00 0.67424452E+02</pdfrwt>
<totfact> 0.16699072E+02</totfact>
</mgrwt>
</event>
<event>
 7    1  0.3113530E-004  0.3142634E+03  0.7546771E-02  0.1270349E+00
          1   -1    0    0  503    0  0.00000000000E+00  0.00000000000E+00  0.14181012188E+04  0.14181012188E+04  0.00000000000E+00 0. -1.
          1   -1    0    0  502    0 -0.00000000000E+00 -0.00000000000E+00 -0.76919018409E+03  0.76919018409E+03  0.00000000000E+00 0. -1.
         25    2    1    2    0    0  0.28530633853E+03 -0.53817309152E+02  0.11599578051E+04  0.12022577617E+04  0.12500242551E+03 0.  0.
          4    1    3    3  501    0  0.23063965019E+03 -0.57022666791E+02  0.70374424211E+03  0.74276766486E+03  0.12700000000E+01 0. -1.
         -4    1    3    3    0  501  0.54666688335E+02  0.32053576389E+01  0.45621356297E+03  0.45949009681E+03  0.12700000000E+01 0. -1.
          1    1    1    2  502    0 -0.30365903218E+03  0.83624702519E+02 -0.71331624203E+03  0.77975762891E+03  0.00000000000E+00 0. -1.
          1    1    1    2  503    0  0.18352693656E+02 -0.29807393367E+02  0.20226947169E+03  0.20527601234E+03  0.00000000000E+00 0. -1.
<mgrwt>
<rscale>  0 0.10488363E+03</rscale>
<asrwt>0</asrwt>
<pdfrwt beam="1">  1        1 0.21816942E+00 0.35004315E+02</pdfrwt>
<pdfrwt beam="2">  1        1 0.11833695E+00 0.31426344E+03</pdfrwt>
<totfact> 0.28846729E+01</totfact>
</mgrwt>
</event>
<event>
 7    1  0.3113530E-004  0.8910179E+02  0.7546771E-02  0.1410333E+00
         -2   -1    0    0    0  501 -0.00000000000E+00  0.00000000000E+00  0.53779860584E+02  0.53779860584E+02  0.00000000000E+00 0.  1.
          2   -1    0    0  503    0  0.00000000000E+00 -0.00000000000E+00 -0.44313519488E+03  0.44313519488E+03  0.00000000000E+00 0. -1.
         25    2    1    2    0    0 -0.36618387110E+02 -0.51774627795E+02 -0.16752558037E+03  0.21842853647E+03  0.12499874842E+03 0.  0.
          4    1    3    3  502    0  0.40360630166E+02 -0.47539007467E+02 -0.64279788752E+02  0.89568084943E+02  0.12700000000E+01 0. -1.
         -4    1    3    3    0  502 -0.76979017276E+02 -0.42356203279E+01 -0.10324579162E+03  0.12886045153E+03  0.12700000000E+01 0. -1.
          2    1    1    2  503    0  0.57409084424E+02  0.81917033287E+02 -0.22017372902E+03  0.24183191325E+03  0.00000000000E+00 0. -1.
         -2    1    1    2    0  501 -0.20790697314E+02 -0.30142405493E+02 -0.16560249049E+01  0.36654605743E+02  0.00000000000E+00 0.  1.
<mgrwt>
<rscale>  0 0.57119665E+02</rscale>
<asrwt>0</asrwt>
<pdfrwt beam="2">  1        2 0.68174645E-01 0.89101790E+02</pdfrwt>
<pdfrwt beam="1">  1       -2 0.82738247E-02 0.36617178E+02</pdfrwt>
<totfact> 0.55224464E+03</totfact>
</mgrwt>
</event>
<event>
 7    1  0.3113530E-004  0.6724166E+02  0.7546771E-02  0.1445924E+00
          2   -1    0    0  503    0  0.00000000000E+00  0.00000000000E+00  0.10288366958E+04  0.10288366958E+04  0.00000000000E+00 0. -1.
         -1   -1    0    0    0  501 -0.00000000000E+00 -0.00000000000E+00 -0.26707145637E+03  0.26707145637E+03  0.00000000000E+00 0.  1.
         25    2    1    2    0    0 -0.33002626809E+02 -0.11625850359E+02  0.52918215179E+03  0.54486904647E+03  0.12499677697E+03 0.  0.
          4    1    3    3  502    0  0.27251534604E+02  0.55566417032E+01  0.26971417537E+02  0.38763290228E+02  0.12700000000E+01 0. -1.
         -4    1    3    3    0  502 -0.60254161414E+02 -0.17182492063E+02  0.50221073425E+03  0.50610575624E+03  0.12700000000E+01 0. -1.
          2    1    1    2  503    0 -0.18466728506E+02 -0.32084305878E+02  0.48669886093E+03  0.48810470595E+03  0.00000000000E+00 0. -1.
         -1    1    1    2    0  501  0.51469355315E+02  0.43710156237E+02 -0.25411577333E+03  0.26293439971E+03  0.00000000000E+00 0.  1.
<mgrwt>
<rscale>  0 0.49892222E+02</rscale>
<asrwt>0</asrwt>
<pdfrwt beam="1">  1        2 0.15828257E+00 0.37019221E+02</pdfrwt>
<pdfrwt beam="2">  1       -1 0.41087917E-01 0.67241658E+02</pdfrwt>
<totfact> 0.18924989E+02</totfact>
</mgrwt>
</event>
<event>
 7    1  0.3113530E-004  0.2857506E+02  0.7546771E-02  0.1660880E+00
          2   -1    0    0  503    0  0.00000000000E+00  0.00000000000E+00  0.77014400887E+02  0.77014400887E+02  0.00000000000E+00 0. -1.
         -2   -1    0    0    0  501 -0.00000000000E+00 -0.00000000000E+00 -0.18811461594E+03  0.18811461594E+03  0.00000000000E+00 0.  1.
         25    2    1    2    0    0  0.38471907449E+00 -0.40789280415E+02 -0.25755968705E+02  0.13400342704E+03  0.12501853914E+03 0.  0.
          4    1    3    3  502    0  0.58474853775E+01 -0.43014445071E+02 -0.73774134396E+02  0.85607659563E+02  0.12700000000E+01 0. -1.
         -4    1    3    3    0  502 -0.54627663030E+01  0.22251646554E+01  0.48018165691E+02  0.48395767478E+02  0.12700000000E+01 0. -1.
          2    1    1    2  503    0 -0.14615261830E+02  0.16292323074E+02  0.15212270744E+02  0.26654433978E+02  0.00000000000E+00 0. -1.
         -2    1    1    2    0  501  0.14230542756E+02  0.24496957341E+02 -0.10055651709E+03  0.10447115581E+03  0.00000000000E+00 0.  1.
<mgrwt>
<rscale>  0 0.25008511E+02</rscale>
<asrwt>0</asrwt>
<pdfrwt beam="1">  1        2 0.11848369E-01 0.21887112E+02</pdfrwt>
<pdfrwt beam="2">  1       -2 0.28940710E-01 0.28575063E+02</pdfrwt>
<totfact> 0.45473376E+03</totfact>
</mgrwt>
</event>
<event>
 7    1  0.3113530E-004  0.4853674E+02  0.7546771E-02  0.1577867E+00
          2   -1    0    0  502    0  0.00000000000E+00  0.00000000000E+00  0.53466925980E+03  0.53466925980E+03  0.00000000000E+00 0. -1.
          2   -1    0    0  503    0 -0.00000000000E+00 -0.00000000000E+00 -0.11341068069E+03  0.11341068069E+03  0.00000000000E+00 0. -1.
         25    2    1    2    0    0 -0.31809984133E+02 -0.33358543121E+02 -0.20884852973E+02  0.13485669056E+03  0.12500192965E+03 0.  0.
          4    1    3    3  501    0 -0.43237196006E+02 -0.51459862266E+02  0.34431246943E+02  0.75529439352E+02  0.12700000000E+01 0. -1.
         -4    1    3    3    0  501  0.11427211872E+02  0.18101319145E+02 -0.55316099916E+02  0.59327251208E+02  0.12700000000E+01 0. -1.
          2    1    1    2  502    0  0.15220109147E+02  0.46203922599E+02  0.47322714871E+03  0.47572091447E+03  0.00000000000E+00 0. -1.
          2    1    1    2  503    0  0.16589874987E+02 -0.12845379478E+02 -0.31083716625E+02  0.37502335464E+02  0.00000000000E+00 0. -1.
<mgrwt>
<rscale>  0 0.31912046E+02</rscale>
<asrwt>0</asrwt>
<pdfrwt beam="1">  1        2 0.82256808E-01 0.48536739E+02</pdfrwt>
<pdfrwt beam="2">  1        2 0.17447797E-01 0.20981604E+02</pdfrwt>
<totfact> 0.26394303E+03</totfact>
</mgrwt>
</event>
<event>
 7    1  0.3113530E-004  0.7368099E+02  0.7546771E-02  0.1367773E+00
          1   -1    0    0  503    0  0.00000000000E+00  0.00000000000E+00  0.54352223728E+03  0.54352223728E+03  0.00000000000E+00 0. -1.
         -1   -1    0    0    0  501 -0.00000000000E+00 -0.00000000000E+00 -0.52643310227E+02  0.52643310227E+02  0.00000000000E+00 0.  1.
         25    2    1    2    0    0  0.12341756388E+03 -0.29122183556E+02  0.22179114298E+03  0.28442200479E+03  0.12499827622E+03 0.  0.
          4    1    3    3  502    0 -0.13607673202E+01 -0.47295626955E+02  0.34234153670E+02  0.58415051094E+02  0.12700000000E+01 0. -1.
         -4    1    3    3    0  502  0.12477833120E+03  0.18173443398E+02  0.18755698931E+03  0.22600695370E+03  0.12700000000E+01 0. -1.
          1    1    1    2  503    0 -0.61228176047E+02  0.24372615839E+02  0.22731916388E+03  0.23667893065E+03  0.00000000000E+00 0. -1.
         -1    1    1    2    0  501 -0.62189387831E+02  0.47495677172E+01  0.41768620197E+02  0.75064612071E+02  0.00000000000E+00 0.  1.
<mgrwt>
<rscale>  0 0.67790261E+02</rscale>
<asrwt>0</asrwt>
<pdfrwt beam="1">  1        1 0.83618802E-01 0.73680988E+02</pdfrwt>
<pdfrwt beam="2">  1       -1 0.80989712E-02 0.62370493E+02</pdfrwt>
<totfact> 0.31787339E+03</totfact>
</mgrwt>
</event>
<event>
 7    1  0.3113530E-004  0.1003817E+03  0.7546771E-02  0.1376843E+00
          2   -1    0    0  502    0  0.00000000000E+00  0.00000000000E+00  0.62573958807E+03  0.62573958807E+03  0.00000000000E+00 0.  1.
          1   -1    0    0  503    0 -0.00000000000E+00 -0.00000000000E+00 -0.17100313863E+04  0.17100313863E+04  0.00000000000E+00 0. -1.
         25    2    1    2    0    0 -0.40771117879E+02  0.13102771009E+03  0.16664634951E+03  0.24945280298E+03  0.12500060099E+03 0.  0.
          4    1    3    3  501    0 -0.78122124707E+02  0.69482252405E+02  0.13511779416E+03  0.17084870783E+03  0.12700000000E+01 0.  1.
         -4    1    3    3    0  501  0.37351006828E+02  0.61545457688E+02  0.31528555348E+02  0.78604095157E+02  0.12700000000E+01 0.  1.
          2    1    1    2  502    0  0.21740976701E+02 -0.93048887589E+02  0.41195017207E+03  0.42288734885E+03  0.00000000000E+00 0.  1.
          1    1    1    2  503    0  0.19030141179E+02 -0.37978822503E+02 -0.16628883198E+04  0.16634308225E+04  0.00000000000E+00 0. -1.
<mgrwt>
<rscale>  0 0.65300820E+02</rscale>
<asrwt>0</asrwt>
<pdfrwt beam="1">  1        2 0.96267628E-01 0.10038165E+03</pdfrwt>
<pdfrwt beam="2">  1        1 0.26308176E+00 0.42479845E+02</pdfrwt>
<totfact> 0.42965943E+01</totfact>
</mgrwt>
</event>
<event>
 7    1  0.3113530E-004  0.3920372E+02  0.7546771E-02  0.1542244E+00
         -2   -1    0    0    0  501 -0.00000000000E+00  0.00000000000E+00  0.35983935247E+02  0.35983935247E+02  0.00000000000E+00 0.  1.
          1   -1    0    0  503    0  0.00000000000E+00 -0.00000000000E+00 -0.32535672362E+03  0.32535672362E+03  0.00000000000E+00 0. -1.
         25    2    1    2    0    0 -0.11221811370E+02 -0.69285246786E+00 -0.23913681982E+03  0.27006752744E+03  0.12499456663E+03 0.  0.
          4    1    3    3  502    0 -0.32723069435E+01  0.56029636503E+02 -0.17635328769E+03  0.18507329127E+03  0.12700000000E+01 0. -1.
         -4    1    3    3    0  502 -0.79495044269E+01 -0.56722488971E+02 -0.62783532126E+02  0.84994236169E+02  0.12700000000E+01 0. -1.
          1    1    1    2  503    0 -0.31508874047E+02 -0.81958686991E+01 -0.21772426873E+02  0.39166567112E+02  0.00000000000E+00 0. -1.
         -2    1    1    2    0  501  0.42730685417E+02  0.88887211669E+01 -0.28463541678E+02  0.52106564318E+02  0.00000000000E+00 0.  1.
<mgrwt>
<rscale>  0 0.35726313E+02</rscale>
<asrwt>0</asrwt>
<pdfrwt beam="2">  1        1 0.50054882E-01 0.32557356E+02</pdfrwt>
<pdfrwt beam="1">  1       -2 0.55359899E-02 0.39203719E+02</pdfrwt>
<totfact> 0.97271154E+03</totfact>
</mgrwt>
</event>
<event>
 7    1  0.3113530E-004  0.6749317E+02  0.7546771E-02  0.1442366E+00
          1   -1    0    0  503    0  0.00000000000E+00  0.00000000000E+00  0.13677720126E+03  0.13677720126E+03  0.00000000000E+00 0. -1.
          1   -1    0    0  502    0 -0.00000000000E+00 -0.00000000000E+00 -0.28720768784E+03  0.28720768784E+03  0.00000000000E+00 0. -1.
         25    2    1    2    0    0 -0.64051865256E+02 -0.78977844110E+02 -0.53304040785E+02  0.16972340658E+03  0.12499829068E+03 0.  0.
          4    1    3    3  501    0  0.19170530395E+02 -0.70243703703E+02 -0.47711283165E+01  0.72979885660E+02  0.12700000000E+01 0.  1.
         -4    1    3    3    0  501 -0.83222395650E+02 -0.87341404071E+01 -0.48532912468E+02  0.96743520915E+02  0.12700000000E+01 0.  1.
          1    1    1    2  502    0  0.38096858343E+02  0.51402449783E+02 -0.16476057101E+03  0.17674735703E+03  0.00000000000E+00 0. -1.
          1    1    1    2  503    0  0.25955006913E+02  0.27575394327E+02  0.67634125216E+02  0.77514125486E+02  0.00000000000E+00 0. -1.
<mgrwt>
<rscale>  0 0.50555931E+02</rscale>
<asrwt>0</asrwt>
<pdfrwt beam="1">  1        1 0.21042646E-01 0.37869047E+02</pdfrwt>
<pdfrwt beam="2">  1        1 0.44185798E-01 0.67493173E+02</pdfrwt>
<totfact> 0.24597825E+03</totfact>
</mgrwt>
</event>
<event>
 7    1  0.3113530E-004  0.9568055E+02  0.7546771E-02  0.1409617E+00
         -2   -1    0    0    0  501 -0.00000000000E+00  0.00000000000E+00  0.74790574262E+01  0.74790574262E+01  0.00000000000E+00 0.  1.
          2   -1    0    0  503    0  0.00000000000E+00 -0.00000000000E+00 -0.32428669286E+04  0.32428669286E+04  0.00000000000E+00 0. -1.
         25    2    1    2    0    0 -0.91725568868E+02  0.20232062154E+02 -0.23513830833E+04  0.23565732211E+04  0.12494809151E+03 0.  0.
          4    1    3    3  502    0  0.30329335990E+02  0.14048283531E+02 -0.42247909071E+03  0.42380115371E+03  0.12700000000E+01 0.  1.
         -4    1    3    3    0  502 -0.12205490486E+03  0.61837786228E+01 -0.19289039926E+04  0.19327720674E+04  0.12700000000E+01 0.  1.
          2    1    1    2  503    0 -0.47898428173E+01 -0.33954191202E+02 -0.23159940822E+03  0.23412414567E+03  0.00000000000E+00 0. -1.
         -2    1    1    2    0  501  0.96515411685E+02  0.13722129048E+02 -0.65240537967E+03  0.65964861930E+03  0.00000000000E+00 0.  1.
<mgrwt>
<rscale>  0 0.57279331E+02</rscale>
<asrwt>0</asrwt>
<pdfrwt beam="2">  1        2 0.49890322E+00 0.34290373E+02</pdfrwt>
<pdfrwt beam="1">  1       -2 0.11506228E-02 0.95680550E+02</pdfrwt>
<totfact> 0.32195537E+03</totfact>
</mgrwt>
</event>
<event>
 7    1  0.3113530E-004  0.9944701E+02  0.7546771E-02  0.1362989E+00
          2   -1    0    0  503    0  0.00000000000E+00  0.00000000000E+00  0.25037855969E+04  0.25037855969E+04  0.00000000000E+00 0. -1.
         -1   -1    0    0    0  501 -0.00000000000E+00 -0.00000000000E+00 -0.13690806610E+04  0.13690806610E+04  0.00000000000E+00 0.  1.
         25    2    1    2    0    0 -0.60637395533E+02 -0.63375818171E+02 -0.20252391654E+03  0.25364222091E+03  0.12500020557E+03 0.  0.
          4    1    3    3  502    0 -0.30608706606E+02 -0.97559974829E+02 -0.10799936207E+03  0.14872900429E+03  0.12700000000E+01 0. -1.
         -4    1    3    3    0  502 -0.30028688927E+02  0.34184156658E+02 -0.94524554473E+02  0.10491321663E+03  0.12700000000E+01 0. -1.
          2    1    1    2  503    0 -0.35771755825E+02  0.32141739082E+02  0.24757421812E+04  0.24762092112E+04  0.00000000000E+00 0. -1.
         -1    1    1    2    0  501  0.96409151358E+02  0.31234079089E+02 -0.11385133288E+04  0.11430148258E+04  0.00000000000E+00 0.  1.
<mgrwt>
<rscale>  0 0.69155410E+02</rscale>
<asrwt>0</asrwt>
<pdfrwt beam="1">  1        2 0.38519778E+00 0.48090643E+02</pdfrwt>
<pdfrwt beam="2">  1       -1 0.21062779E+00 0.99447011E+02</pdfrwt>
<totfact> 0.90621890E-01</totfact>
</mgrwt>
</event>
<event>
 7    1  0.3113530E-004  0.6204041E+02  0.7546771E-02  0.1523371E+00
         -3   -1    0    0    0  502 -0.00000000000E+00  0.00000000000E+00  0.34348084330E+03  0.34348084330E+03  0.00000000000E+00 0.  1.
         -2   -1    0    0    0  501  0.00000000000E+00 -0.00000000000E+00 -0.24096431597E+03  0.24096431597E+03  0.00000000000E+00 0.  1.
         25    2    1    2    0    0 -0.68075839182E+02 -0.46599360401E+02  0.51119200953E+02  0.15825809758E+03  0.12500652972E+03 0.  0.
          4    1    3    3  503    0 -0.55925653313E+02  0.64269707724E+01  0.79080640269E+02  0.97079066833E+02  0.12700000000E+01 0. -1.
         -4    1    3    3    0  503 -0.12150185869E+02 -0.53026331174E+02 -0.27961439316E+02  0.61179030746E+02  0.12700000000E+01 0. -1.
         -2    1    1    2    0  501  0.14546463814E+02  0.18188693018E+02 -0.18279915103E+03  0.18427685091E+03  0.00000000000E+00 0.  1.
         -3    1    1    2    0  502  0.53529375368E+02  0.28410667384E+02  0.23419647741E+03  0.24191021078E+03  0.00000000000E+00 0.  1.
<mgrwt>
<rscale>  0 0.38012189E+02</rscale>
<asrwt>0</asrwt>
<pdfrwt beam="2">  1       -2 0.37071433E-01 0.23290087E+02</pdfrwt>
<pdfrwt beam="1">  1       -3 0.52843207E-01 0.62040408E+02</pdfrwt>
<totfact> 0.89409317E+01</totfact>
</mgrwt>
</event>
<event>
 7    1  0.3113530E-004  0.4325149E+02  0.7546771E-02  0.1526809E+00
         -2   -1    0    0    0  501 -0.00000000000E+00  0.00000000000E+00  0.21321302988E+03  0.21321302988E+03  0.00000000000E+00 0.  1.
          1   -1    0    0  503    0  0.00000000000E+00 -0.00000000000E+00 -0.67798120360E+02  0.67798120360E+02  0.00000000000E+00 0. -1.
         25    2    1    2    0    0 -0.32395804833E+02  0.21575489480E+01  0.14486172395E+03  0.19407162890E+03  0.12499893955E+03 0.  0.
          4    1    3    3  502    0 -0.49943715597E+02 -0.26131813053E+02  0.15010764499E+03  0.16034701233E+03  0.12700000000E+01 0. -1.
         -4    1    3    3    0  502  0.17547910764E+02  0.28289362001E+02 -0.52459210420E+01  0.33724616561E+02  0.12700000000E+01 0. -1.
          1    1    1    2  503    0  0.28825816372E+02 -0.34615192127E+02 -0.18989337926E+02  0.48884907389E+02  0.00000000000E+00 0. -1.
         -2    1    1    2    0  501  0.35699884603E+01  0.32457643179E+02  0.19542523500E+02  0.38054613953E+02  0.00000000000E+00 0.  1.
<mgrwt>
<rscale>  0 0.37580677E+02</rscale>
<asrwt>0</asrwt>
<pdfrwt beam="2">  1        1 0.10430480E-01 0.43251485E+02</pdfrwt>
<pdfrwt beam="1">  1       -2 0.32802004E-01 0.32653383E+02</pdfrwt>
<totfact> 0.39440925E+03</totfact>
</mgrwt>
</event>
<event>
 7    1  0.3113530E-004  0.8284685E+02  0.7546771E-02  0.1394241E+00
          2   -1    0    0  503    0  0.00000000000E+00  0.00000000000E+00  0.93223412750E+03  0.93223412750E+03  0.00000000000E+00 0. -1.
         -1   -1    0    0    0  501 -0.00000000000E+00 -0.00000000000E+00 -0.16579117205E+03  0.16579117205E+03  0.00000000000E+00 0.  1.
         25    2    1    2    0    0  0.46067129743E+02  0.76755462694E+02  0.47714078550E+03  0.50130001678E+03  0.12499918456E+03 0.  0.
          4    1    3    3  502    0 -0.10356176401E+02  0.55950667067E+02  0.72295803163E+02  0.92010997114E+02  0.12700000000E+01 0. -1.
         -4    1    3    3    0  502  0.56423306144E+02  0.20804795627E+02  0.40484498233E+03  0.40928901967E+03  0.12700000000E+01 0. -1.
          2    1    1    2  503    0 -0.44284378452E+02  0.61840618398E+01  0.43057776551E+03  0.43289324429E+03  0.00000000000E+00 0. -1.
         -1    1    1    2    0  501 -0.17827512914E+01 -0.82939524533E+02 -0.14127559556E+03  0.16383203848E+03  0.00000000000E+00 0.  1.
<mgrwt>
<rscale>  0 0.60863951E+02</rscale>
<asrwt>0</asrwt>
<pdfrwt beam="1">  1        2 0.14342063E+00 0.44714078E+02</pdfrwt>
<pdfrwt beam="2">  1       -1 0.25506335E-01 0.82846851E+02</pdfrwt>
<totfact> 0.47348906E+02</totfact>
</mgrwt>
</event>
<event>
 7    1  0.3113530E-004  0.4901378E+02  0.7546771E-02  0.1481309E+00
          3   -1    0    0  503    0  0.00000000000E+00  0.00000000000E+00  0.68574479623E+02  0.68574479623E+02  0.00000000000E+00 0. -1.
         -1   -1    0    0    0  501 -0.00000000000E+00 -0.00000000000E+00 -0.14389032485E+04  0.14389032485E+04  0.00000000000E+00 0.  1.
         25    2    1    2    0    0  0.11449430213E+02  0.76235315224E+02 -0.21143864886E+03  0.25743784956E+03  0.12500012566E+03 0.  0.
          4    1    3    3  502    0 -0.43219725593E+02  0.68133655294E+02 -0.17055447026E+03  0.18868115934E+03  0.12700000000E+01 0.  1.
         -4    1    3    3    0  502  0.54669155806E+02  0.81016599303E+01 -0.40884178597E+02  0.68756690218E+02  0.12700000000E+01 0.  1.
          3    1    1    2  503    0 -0.26451367150E+02 -0.39884396267E+02  0.32596261682E+02  0.57904716261E+02  0.00000000000E+00 0. -1.
         -1    1    1    2    0  501  0.15001936937E+02 -0.36350918957E+02 -0.11914863817E+04  0.11921351623E+04  0.00000000000E+00 0.  1.
<mgrwt>
<rscale>  0 0.43902868E+02</rscale>
<asrwt>0</asrwt>
<pdfrwt beam="1">  1        3 0.10549920E-01 0.49013780E+02</pdfrwt>
<pdfrwt beam="2">  1       -1 0.22136973E+00 0.39324896E+02</pdfrwt>
<totfact> 0.37963721E+01</totfact>
</mgrwt>
</event>
<event>
 7    1  0.3113530E-004  0.4016361E+02  0.7546771E-02  0.1522897E+00
          2   -1    0    0  502    0  0.00000000000E+00  0.00000000000E+00  0.63729110940E+03  0.63729110940E+03  0.00000000000E+00 0.  1.
          3   -1    0    0  503    0 -0.00000000000E+00 -0.00000000000E+00 -0.24509523484E+03  0.24509523484E+03  0.00000000000E+00 0. -1.
         25    2    1    2    0    0  0.32247631746E+02 -0.22645992564E+02  0.22686898351E+03  0.26200700856E+03  0.12500154448E+03 0.  0.
          4    1    3    3  501    0  0.31150900386E+02 -0.40119199561E+02  0.20332871150E+02  0.54726294571E+02  0.12700000000E+01 0.  1.
         -4    1    3    3    0  501  0.10967313601E+01  0.17473206996E+02  0.20653611236E+03  0.20728071399E+03  0.12700000000E+01 0.  1.
          2    1    1    2  502    0 -0.12442054477E+01  0.41118952633E+02  0.39033427350E+03  0.39249606544E+03  0.00000000000E+00 0.  1.
          3    1    1    2  503    0 -0.31003426298E+02 -0.18472960069E+02 -0.22500738246E+03  0.22788327025E+03  0.00000000000E+00 0. -1.
<mgrwt>
<rscale>  0 0.38072175E+02</rscale>
<asrwt>0</asrwt>
<pdfrwt beam="1">  1        2 0.98044786E-01 0.40163608E+02</pdfrwt>
<pdfrwt beam="2">  1        3 0.37706959E-01 0.36089648E+02</pdfrwt>
<totfact> 0.18778687E+02</totfact>
</mgrwt>
</event>
<event>
 7    1  0.3113530E-004  0.4227949E+02  0.7546771E-02  0.1497562E+00
          2   -1    0    0  502    0  0.00000000000E+00  0.00000000000E+00  0.72593310064E+03  0.72593310064E+03  0.00000000000E+00 0. -1.
          1   -1    0    0  503    0 -0.00000000000E+00 -0.00000000000E+00 -0.84438335442E+02  0.84438335442E+02  0.00000000000E+00 0. -1.
         25    2    1    2    0    0 -0.92223837501E+01 -0.78299643767E+01  0.20658484781E+03  0.24175226399E+03  0.12498198709E+03 0.  0.
          4    1    3    3  501    0  0.32595780363E+02  0.45804143609E+02  0.11104324625E+03  0.12446975499E+03  0.12700000000E+01 0.  1.
         -4    1    3    3    0  501 -0.41818164113E+02 -0.53634107986E+02  0.95541601563E+02  0.11728250900E+03  0.12700000000E+01 0.  1.
          2    1    1    2  502    0 -0.11528415803E+02  0.42848298869E+02  0.49448182884E+03  0.49646868999E+03  0.00000000000E+00 0. -1.
          1    1    1    2  503    0  0.20750799554E+02 -0.35018334492E+02 -0.59571911455E+02  0.72150482099E+02  0.00000000000E+00 0. -1.
<mgrwt>
<rscale>  0 0.41484664E+02</rscale>
<asrwt>0</asrwt>
<pdfrwt beam="1">  1        2 0.11168201E+00 0.42279486E+02</pdfrwt>
<pdfrwt beam="2">  1        1 0.12990514E-01 0.40704784E+02</pdfrwt>
<totfact> 0.23549296E+03</totfact>
</mgrwt>
</event>
<event>
 7    1  0.3113530E-004  0.8232593E+02  0.7546771E-02  0.1371736E+00
          1   -1    0    0  503    0 -0.00000000000E+00  0.00000000000E+00  0.38625955461E+03  0.38625955461E+03  0.00000000000E+00 0. -1.
          2   -1    0    0  502    0  0.00000000000E+00 -0.00000000000E+00 -0.51359695624E+03  0.51359695624E+03  0.00000000000E+00 0. -1.
         25    2    1    2    0    0 -0.34870092853E+02 -0.45995713314E+02 -0.29626440021E+03  0.32669308807E+03  0.12499699975E+03 0.  0.
          4    1    3    3  501    0 -0.95967009562E+01  0.12091416431E+02  0.69158925084E+01  0.16962944607E+02  0.12700000000E+01 0.  1.
         -4    1    3    3    0  501 -0.25273391897E+02 -0.58087129746E+02 -0.30318029272E+03  0.30973014347E+03  0.12700000000E+01 0.  1.
          2    1    1    2  502    0  0.39571391860E+02 -0.36771235720E+02 -0.19374636316E+03  0.20113595419E+03  0.00000000000E+00 0. -1.
          1    1    1    2  503    0 -0.47012990069E+01  0.82766949035E+02  0.36267336174E+03  0.37202746858E+03  0.00000000000E+00 0. -1.
<mgrwt>
<rscale>  0 0.66686870E+02</rscale>
<asrwt>0</asrwt>
<pdfrwt beam="2">  1        2 0.79014916E-01 0.54018690E+02</pdfrwt>
<pdfrwt beam="1">  1        1 0.59424547E-01 0.82325925E+02</pdfrwt>
<totfact> 0.54275614E+02</totfact>
</mgrwt>
</event>
<event>
 7    1  0.3113530E-004  0.5590197E+02  0.7546771E-02  0.1519486E+00
          2   -1    0    0  503    0  0.00000000000E+00  0.00000000000E+00  0.31886478678E+02  0.31886478678E+02  0.00000000000E+00 0. -1.
          2   -1    0    0  502    0 -0.00000000000E+00 -0.00000000000E+00 -0.15485738264E+04  0.15485738264E+04  0.00000000000E+00 0. -1.
         25    2    1    2    0    0  0.31714692850E+02 -0.11508864231E+02 -0.74147955991E+03  0.75269763955E+03  0.12499409238E+03 0.  0.
          4    1    3    3  501    0  0.22877275207E+02 -0.33433576058E+02 -0.71870898619E+03  0.71985095225E+03  0.12700000000E+01 0.  1.
         -4    1    3    3    0  501  0.88374176425E+01  0.21924711827E+02 -0.22770573722E+02  0.32846687306E+02  0.12700000000E+01 0.  1.
          2    1    1    2  502    0  0.25093981293E+02  0.85988108613E+01 -0.77020311225E+03  0.77065977030E+03  0.00000000000E+00 0. -1.
          2    1    1    2  503    0 -0.56808674142E+02  0.29100533695E+01 -0.50046755969E+01  0.57102895253E+02  0.00000000000E+00 0. -1.
<mgrwt>
<rscale>  0 0.38508123E+02</rscale>
<asrwt>0</asrwt>
<pdfrwt beam="1">  1        2 0.49056125E-02 0.55901974E+02</pdfrwt>
<pdfrwt beam="2">  1        2 0.23824211E+00 0.26526354E+02</pdfrwt>
<totfact> 0.34015179E+03</totfact>
</mgrwt>
</event>
<event>
 7    1  0.3113530E-004  0.4060884E+02  0.7546771E-02  0.1528324E+00
         -1   -1    0    0    0  502 -0.00000000000E+00  0.00000000000E+00  0.14199747726E+04  0.14199747726E+04  0.00000000000E+00 0. -1.
         -2   -1    0    0    0  501  0.00000000000E+00 -0.00000000000E+00 -0.21295705552E+02  0.21295705552E+02  0.00000000000E+00 0.  1.
         25    2    1    2    0    0 -0.29390936138E+02  0.66683311072E+02  0.40502942176E+03  0.43009272636E+03  0.12498171735E+03 0.  0.
          4    1    3    3  503    0  0.21938354497E+02 -0.18846753908E+02  0.28697770276E+02  0.40763543145E+02  0.12700000000E+01 0.  1.
         -4    1    3    3    0  503 -0.51329290635E+02  0.85530064979E+02  0.37633165149E+03  0.38932918321E+03  0.12700000000E+01 0.  1.
         -2    1    1    2    0  501  0.76963474073E+01 -0.33560243080E+02  0.27099019735E+02  0.43816441544E+02  0.00000000000E+00 0.  1.
         -1    1    1    2    0  502  0.21694588730E+02 -0.33123067991E+02  0.96655062551E+03  0.96736131021E+03  0.00000000000E+00 0. -1.
<mgrwt>
<rscale>  0 0.37392790E+02</rscale>
<asrwt>0</asrwt>
<pdfrwt beam="2">  1       -2 0.32762635E-02 0.34431434E+02</pdfrwt>
<pdfrwt beam="1">  1       -1 0.21845758E+00 0.40608843E+02</pdfrwt>
<totfact> 0.32648092E+02</totfact>
</mgrwt>
</event>
<event>
 7    1  0.3113530E-004  0.6264794E+02  0.7546771E-02  0.1532062E+00
         -2   -1    0    0    0  501 -0.00000000000E+00  0.00000000000E+00  0.19420729177E+04  0.19420729177E+04  0.00000000000E+00 0. -1.
          2   -1    0    0  503    0  0.00000000000E+00 -0.00000000000E+00 -0.99228078190E+01  0.99228078190E+01  0.00000000000E+00 0.  1.
         25    2    1    2    0    0 -0.61127235097E+02  0.20623474602E+02  0.14718572186E+04  0.14785637966E+04  0.12500144936E+03 0.  0.
          4    1    3    3  502    0 -0.98279273828E+02  0.20663872247E+02  0.11966192097E+04  0.12008267807E+04  0.12700000000E+01 0.  1.
         -4    1    3    3    0  502  0.37152038731E+02 -0.40397644535E-01  0.27523800885E+03  0.27773701595E+03  0.12700000000E+01 0.  1.
          2    1    1    2  503    0 -0.46203437100E+00 -0.21770347760E+02  0.31327016047E+03  0.31402604185E+03  0.00000000000E+00 0. -1.
         -2    1    1    2    0  501  0.61589269468E+02  0.11468731580E+01  0.14702273082E+03  0.15940588700E+03  0.00000000000E+00 0.  1.
<mgrwt>
<rscale>  0 0.36934733E+02</rscale>
<asrwt>0</asrwt>
<pdfrwt beam="2">  1        2 0.15265874E-02 0.21775250E+02</pdfrwt>
<pdfrwt beam="1">  1       -2 0.29878015E+00 0.62647938E+02</pdfrwt>
<totfact> 0.23929633E+02</totfact>
</mgrwt>
</event>
<event>
 7    1  0.3113530E-004  0.1597390E+03  0.7546771E-02  0.1345852E+00
          2   -1    0    0  502    0  0.00000000000E+00  0.00000000000E+00  0.85824883528E+03  0.85824883528E+03  0.00000000000E+00 0. -1.
          2   -1    0    0  503    0 -0.00000000000E+00 -0.00000000000E+00 -0.86424969394E+03  0.86424969394E+03  0.00000000000E+00 0. -1.
         25    2    1    2    0    0  0.11779728591E+03 -0.10142727842E+03 -0.55260312018E+02  0.20698911151E+03  0.12500838701E+03 0.  0.
          4    1    3    3  501    0  0.81003176726E+02 -0.68982039188E+02  0.28284303833E+02  0.11009837017E+03  0.12700000000E+01 0.  1.
         -4    1    3    3    0  501  0.36794109180E+02 -0.32445239236E+02 -0.83544615851E+02  0.96890741339E+02  0.12700000000E+01 0.  1.
          2    1    1    2  502    0  0.23632526757E+02  0.25297791871E+02  0.77319516922E+03  0.77396979547E+03  0.00000000000E+00 0. -1.
          2    1    1    2  503    0 -0.14142981266E+03  0.76129486553E+02 -0.72393571587E+03  0.74153962224E+03  0.00000000000E+00 0. -1.
<mgrwt>
<rscale>  0 0.74363983E+02</rscale>
<asrwt>0</asrwt>
<pdfrwt beam="1">  1        2 0.13203828E+00 0.34618992E+02</pdfrwt>
<pdfrwt beam="2">  1        2 0.13296149E+00 0.15973896E+03</pdfrwt>
<totfact> 0.18042604E+02</totfact>
</mgrwt>
</event>
<event>
 7    1  0.3113530E-004  0.1005838E+03  0.7546771E-02  0.1304138E+00
          2   -1    0    0  503    0  0.00000000000E+00  0.00000000000E+00  0.69177430997E+03  0.69177430997E+03  0.00000000000E+00 0. -1.
          2   -1    0    0  502    0 -0.00000000000E+00 -0.00000000000E+00 -0.12756655937E+04  0.12756655937E+04  0.00000000000E+00 0. -1.
         25    2    1    2    0    0  0.69594182532E+02 -0.18474122182E+01 -0.60936769431E+03  0.62593979424E+03  0.12499950387E+03 0.  0.
          4    1    3    3  501    0  0.43916806512E+02  0.86810446750E+01 -0.59086790501E+03  0.59256268909E+03  0.12700000000E+01 0. -1.
         -4    1    3    3    0  501  0.25677376019E+02 -0.10528456893E+02 -0.18499789299E+02  0.33377105145E+02  0.12700000000E+01 0. -1.
          2    1    1    2  502    0 -0.10979518463E+03  0.70533745035E+02 -0.64917953472E+03  0.66216618764E+03  0.00000000000E+00 0. -1.
          2    1    1    2  503    0  0.40201002103E+02 -0.68686332817E+02  0.67465594526E+03  0.67933392184E+03  0.00000000000E+00 0. -1.
<mgrwt>
<rscale>  0 0.89471016E+02</rscale>
<asrwt>0</asrwt>
<pdfrwt beam="1">  1        2 0.10642682E+00 0.79586009E+02</pdfrwt>
<pdfrwt beam="2">  1        2 0.19625624E+00 0.10058379E+03</pdfrwt>
<totfact> 0.13323996E+02</totfact>
</mgrwt>
</event>
<event>
 7    1  0.3113530E-004  0.9665640E+02  0.7546771E-02  0.1346623E+00
         -3   -1    0    0    0  502 -0.00000000000E+00  0.00000000000E+00  0.52787038350E+03  0.52787038350E+03  0.00000000000E+00 0.  1.
         -1   -1    0    0    0  501  0.00000000000E+00 -0.00000000000E+00 -0.16299126537E+03  0.16299126537E+03  0.00000000000E+00 0.  1.
         25    2    1    2    0    0 -0.12362276012E+03  0.77273954675E+02  0.25360641033E+03  0.31811153834E+03  0.12499955428E+03 0.  0.
          4    1    3    3  503    0 -0.33261973749E+02  0.71951665272E+02  0.19439831770E+03  0.20994218218E+03  0.12700000000E+01 0.  1.
         -4    1    3    3    0  503 -0.90360786375E+02  0.53222894039E+01  0.59208092626E+02  0.10816935616E+03  0.12700000000E+01 0.  1.
         -1    1    1    2    0  501  0.68268851501E+02 -0.64380538908E+02 -0.10983073105E+03  0.14445857315E+03  0.00000000000E+00 0.  1.
         -3    1    1    2    0  502  0.55353908623E+02 -0.12893415768E+02  0.22110343884E+03  0.22829153738E+03  0.00000000000E+00 0.  1.
<mgrwt>
<rscale>  0 0.74118373E+02</rscale>
<asrwt>0</asrwt>
<pdfrwt beam="2">  1       -1 0.25075580E-01 0.96656404E+02</pdfrwt>
<pdfrwt beam="1">  1       -3 0.81210828E-01 0.56835687E+02</pdfrwt>
<totfact> 0.85688299E+01</totfact>
</mgrwt>
</event>
<event>
 7    1  0.3113530E-004  0.1179080E+03  0.7546771E-02  0.1448972E+00
          2   -1    0    0  503    0  0.00000000000E+00  0.00000000000E+00  0.13454136578E+04  0.13454136578E+04  0.00000000000E+00 0. -1.
         -1   -1    0    0    0  501 -0.00000000000E+00 -0.00000000000E+00 -0.63155913600E+02  0.63155913600E+02  0.00000000000E+00 0.  1.
         25    2    1    2    0    0  0.93532942366E+02 -0.35793453621E+02  0.70696153622E+02  0.17507418873E+03  0.12499377101E+03 0.  0.
          4    1    3    3  502    0  0.12227420306E+03 -0.25519378680E+02  0.72574641614E+02  0.14446768126E+03  0.12700000000E+01 0. -1.
         -4    1    3    3    0  502 -0.28741260697E+02 -0.10274074941E+02 -0.18784879918E+01  0.30606507469E+02  0.12700000000E+01 0. -1.
          2    1    1    2  503    0 -0.11406171508E+03  0.33641662437E+02  0.12063621783E+04  0.12122093637E+04  0.00000000000E+00 0. -1.
         -1    1    1    2    0  501  0.20528772710E+02  0.21517911840E+01  0.51994122826E+01  0.21286018941E+02  0.00000000000E+00 0.  1.
<mgrwt>
<rscale>  0 0.49333218E+02</rscale>
<asrwt>0</asrwt>
<pdfrwt beam="1">  1        2 0.20698670E+00 0.11790797E+03</pdfrwt>
<pdfrwt beam="2">  1       -1 0.97162954E-02 0.20641238E+02</pdfrwt>
<totfact> 0.10504513E+03</totfact>
</mgrwt>
</event>
<event>
 7    1  0.3113530E-004  0.7309332E+02  0.7546771E-02  0.1451416E+00
          1   -1    0    0  503    0  0.00000000000E+00  0.00000000000E+00  0.14286166533E+03  0.14286166533E+03  0.00000000000E+00 0. -1.
         -1   -1    0    0    0  501 -0.00000000000E+00 -0.00000000000E+00 -0.11234180561E+03  0.11234180561E+03  0.00000000000E+00 0.  1.
         25    2    1    2    0    0 -0.63938298532E+02 -0.16185618159E+02  0.14401077827E+02  0.14206338379E+03  0.12499813486E+03 0.  0.
          4    1    3    3  502    0  0.84915968622E+01  0.45127104207E+02 -0.82910326901E+00  0.45944129805E+02  0.12700000000E+01 0. -1.
         -4    1    3    3    0  502 -0.72429895394E+02 -0.61312722366E+02  0.15230181096E+02  0.96119253987E+02  0.12700000000E+01 0. -1.
          1    1    1    2  503    0  0.62325988738E+02  0.48848528245E+02  0.92767133010E+01  0.79729323298E+02  0.00000000000E+00 0. -1.
         -1    1    1    2    0  501  0.16123097942E+01 -0.32662910086E+02  0.68420685958E+01  0.33410763847E+02  0.00000000000E+00 0.  1.
<mgrwt>
<rscale>  0 0.48891178E+02</rscale>
<asrwt>0</asrwt>
<pdfrwt beam="1">  1        1 0.21978718E-01 0.73093316E+02</pdfrwt>
<pdfrwt beam="2">  1       -1 0.17283355E-01 0.32702679E+02</pdfrwt>
<totfact> 0.50408036E+03</totfact>
</mgrwt>
</event>
<event>
 7    1  0.3113530E-004  0.1158379E+03  0.7546771E-02  0.1384208E+00
          1   -1    0    0  503    0 -0.00000000000E+00  0.00000000000E+00  0.83638651620E+03  0.83638651620E+03  0.00000000000E+00 0. -1.
          2   -1    0    0  502    0  0.00000000000E+00 -0.00000000000E+00 -0.38096660088E+03  0.38096660088E+03  0.00000000000E+00 0. -1.
         25    2    1    2    0    0 -0.12070539579E+03 -0.21146132181E+02  0.66007692501E+03  0.68289357172E+03  0.12500052756E+03 0.  0.
          4    1    3    3  501    0 -0.14519379138E+03 -0.44186159304E+01  0.55645296846E+03  0.57510197377E+03  0.12700000000E+01 0.  1.
         -4    1    3    3    0  501  0.24488395595E+02 -0.16727516250E+02  0.10362395655E+03  0.10779159795E+03  0.12700000000E+01 0.  1.
          2    1    1    2  502    0  0.23368293380E+02 -0.25607897614E+02 -0.35093421720E+03  0.35264240578E+03  0.00000000000E+00 0. -1.
          1    1    1    2  503    0  0.97337102410E+02  0.46754029794E+02  0.14627720751E+03  0.18181713958E+03  0.00000000000E+00 0. -1.
<mgrwt>
<rscale>  0 0.63370510E+02</rscale>
<asrwt>0</asrwt>
<pdfrwt beam="2">  1        2 0.58610247E-01 0.34667587E+02</pdfrwt>
<pdfrwt beam="1">  1        1 0.12867485E+00 0.11583793E+03</pdfrwt>
<totfact> 0.25947201E+02</totfact>
</mgrwt>
</event>
<event>
 7    1  0.3113530E-004  0.4739958E+03  0.7546771E-02  0.1020798E+00
          2   -1    0    0  503    0  0.00000000000E+00  0.00000000000E+00  0.60016341047E+03  0.60016341047E+03  0.00000000000E+00 0. -1.
         -1   -1    0    0    0  501 -0.00000000000E+00 -0.00000000000E+00 -0.93587865094E+02  0.93587865094E+02  0.00000000000E+00 0.  1.
         25    2    1    2    0    0  0.18836436853E+03 -0.11234588000E+02  0.12133944915E+03  0.25681922867E+03  0.12500201196E+03 0.  0.
          4    1    3    3  502    0  0.92443781200E+02  0.51710268061E+02  0.29806086657E+02  0.11004462825E+03  0.12700000000E+01 0. -1.
         -4    1    3    3    0  502  0.95920587333E+02 -0.62944856060E+02  0.91533362488E+02  0.14677460042E+03  0.12700000000E+01 0. -1.
          2    1    1    2  503    0 -0.10419584243E+03  0.36404146321E+02  0.27252999067E+03  0.29403168411E+03  0.00000000000E+00 0. -1.
         -1    1    1    2    0  501 -0.84168526103E+02 -0.25169558321E+02  0.11270610557E+03  0.14290036279E+03  0.00000000000E+00 0.  1.
<mgrwt>
<rscale>  0 0.47399583E+03</rscale>
<asrwt>0</asrwt>
<pdfrwt beam="1">  1        2 0.92332830E-01 0.47399583E+03</pdfrwt>
<pdfrwt beam="2">  1       -1 0.14398133E-01 0.47399583E+03</pdfrwt>
<totfact> 0.19788329E+03</totfact>
</mgrwt>
</event>
<event>
 7    1  0.3113530E-004  0.9915199E+02  0.7546771E-02  0.1442476E+00
         -1   -1    0    0    0  501 -0.00000000000E+00  0.00000000000E+00  0.94135769506E+02  0.94135769506E+02  0.00000000000E+00 0.  1.
          2   -1    0    0  503    0  0.00000000000E+00 -0.00000000000E+00 -0.19812361577E+04  0.19812361577E+04  0.00000000000E+00 0. -1.
         25    2    1    2    0    0 -0.97763378665E+02  0.46886917200E+02 -0.50629404548E+03  0.53264896671E+03  0.12500080016E+03 0.  0.
          4    1    3    3  502    0 -0.52770416511E+02  0.53836720058E+02 -0.46531110707E+03  0.47138004683E+03  0.12700000000E+01 0.  1.
         -4    1    3    3    0  502 -0.44992962153E+02 -0.69498028575E+01 -0.40982938403E+02  0.61268919879E+02  0.12700000000E+01 0.  1.
          2    1    1    2  503    0  0.20865513649E+02  0.15100614123E+02 -0.14314798298E+04  0.14317115287E+04  0.00000000000E+00 0. -1.
         -1    1    1    2    0  501  0.76897865015E+02 -0.61987531324E+02  0.50673487140E+02  0.11101143176E+03  0.00000000000E+00 0.  1.
<mgrwt>
<rscale>  0 0.50535234E+02</rscale>
<asrwt>0</asrwt>
<pdfrwt beam="2">  1        2 0.30480554E+00 0.25756518E+02</pdfrwt>
<pdfrwt beam="1">  1       -1 0.14482427E-01 0.99151986E+02</pdfrwt>
<totfact> 0.36727398E+02</totfact>
</mgrwt>
</event>
<event>
 7    1  0.3113530E-004  0.2851823E+02  0.7546771E-02  0.1670937E+00
          2   -1    0    0  502    0  0.00000000000E+00  0.00000000000E+00  0.36753440316E+03  0.36753440316E+03  0.00000000000E+00 0. -1.
          1   -1    0    0  503    0 -0.00000000000E+00 -0.00000000000E+00 -0.55659440038E+03  0.55659440038E+03  0.00000000000E+00 0. -1.
         25    2    1    2    0    0 -0.45464178293E+02 -0.27375911994E+01 -0.11848187929E+03  0.17814873309E+03  0.12499811786E+03 0.  0.
          4    1    3    3  501    0  0.15685071641E+02  0.48198981760E+02 -0.64195134552E+02  0.81803371051E+02  0.12700000000E+01 0. -1.
         -4    1    3    3    0  501 -0.61149249934E+02 -0.50936572959E+02 -0.54286744741E+02  0.96345362041E+02  0.12700000000E+01 0. -1.
          2    1    1    2  502    0  0.18148750201E+02  0.10044860983E+02  0.33689202462E+03  0.33753001735E+03  0.00000000000E+00 0. -1.
          1    1    1    2  503    0  0.27315428091E+02 -0.73072697832E+01 -0.40747014254E+03  0.40845005309E+03  0.00000000000E+00 0. -1.
<mgrwt>
<rscale>  0 0.24321935E+02</rscale>
<asrwt>0</asrwt>
<pdfrwt beam="1">  1        2 0.56543755E-01 0.20743104E+02</pdfrwt>
<pdfrwt beam="2">  1        1 0.85629907E-01 0.28518226E+02</pdfrwt>
<totfact> 0.49575653E+02</totfact>
</mgrwt>
</event>
<event>
 7    1  0.3113530E-004  0.7888313E+02  0.7546771E-02  0.1352960E+00
          2   -1    0    0  503    0  0.00000000000E+00  0.00000000000E+00  0.10259441072E+03  0.10259441072E+03  0.00000000000E+00 0. -1.
          2   -1    0    0  502    0 -0.00000000000E+00 -0.00000000000E+00 -0.18582559535E+04  0.18582559535E+04  0.00000000000E+00 0.  1.
         25    2    1    2    0    0  0.55241588656E+02  0.38688116599E+02 -0.46336740951E+03  0.48464209103E+03  0.12498078543E+03 0.  0.
          4    1    3    3  501    0 -0.12161789839E+02  0.27395973832E+02 -0.35665452788E+03  0.35791411494E+03  0.12700000000E+01 0.  1.
         -4    1    3    3    0  501  0.67403378495E+02  0.11292142767E+02 -0.10671288163E+03  0.12672797610E+03  0.12700000000E+01 0.  1.
          2    1    1    2  502    0 -0.51309992331E+02  0.41473395374E+02 -0.13657901830E+04  0.13673827488E+04  0.00000000000E+00 0.  1.
          2    1    1    2  503    0 -0.39315963252E+01 -0.80161511973E+02  0.73496049656E+02  0.10882552443E+03  0.00000000000E+00 0. -1.
<mgrwt>
<rscale>  0 0.72141174E+02</rscale>
<asrwt>0</asrwt>
<pdfrwt beam="1">  1        2 0.15783757E-01 0.78883134E+02</pdfrwt>
<pdfrwt beam="2">  1        2 0.28588551E+00 0.65975434E+02</pdfrwt>
<totfact> 0.54656876E+02</totfact>
</mgrwt>
</event>
<event>
 7    1  0.3113530E-004  0.6427392E+02  0.7546771E-02  0.1435245E+00
         -1   -1    0    0    0  501 -0.00000000000E+00  0.00000000000E+00  0.98922022062E+02  0.98922022062E+02  0.00000000000E+00 0.  1.
          2   -1    0    0  503    0  0.00000000000E+00 -0.00000000000E+00 -0.16526324939E+03  0.16526324939E+03  0.00000000000E+00 0. -1.
         25    2    1    2    0    0 -0.16175878507E+02  0.71649046156E+02 -0.50488895390E+02  0.15352634098E+03  0.12500385577E+03 0.  0.
          4    1    3    3  502    0 -0.63753526558E+02  0.93107095051E+01 -0.98437895990E+01  0.65189834742E+02  0.12700000000E+01 0.  1.
         -4    1    3    3    0  502  0.47577648050E+02  0.62338336651E+02 -0.40645105791E+02  0.88336506243E+02  0.12700000000E+01 0.  1.
          2    1    1    2  503    0 -0.31256183866E+02 -0.27968702620E+02 -0.19120310698E+02  0.46095375444E+02  0.00000000000E+00 0. -1.
         -1    1    1    2    0  501  0.47432062373E+02 -0.43680343536E+02  0.32679787581E+01  0.64563555026E+02  0.00000000000E+00 0.  1.
<mgrwt>
<rscale>  0 0.51921356E+02</rscale>
<asrwt>0</asrwt>
<pdfrwt beam="2">  1        2 0.25425115E-01 0.41942787E+02</pdfrwt>
<pdfrwt beam="1">  1       -1 0.15218773E-01 0.64273918E+02</pdfrwt>
<totfact> 0.66655046E+03</totfact>
</mgrwt>
</event>
<event>
 7    1  0.3113530E-004  0.6519122E+02  0.7546771E-02  0.1457654E+00
          2   -1    0    0  502    0  0.00000000000E+00  0.00000000000E+00  0.18833540047E+04  0.18833540047E+04  0.00000000000E+00 0. -1.
          2   -1    0    0  503    0 -0.00000000000E+00 -0.00000000000E+00 -0.11722799652E+04  0.11722799652E+04  0.00000000000E+00 0. -1.
         25    2    1    2    0    0  0.70172450731E+02  0.54601502481E+02  0.65214409953E+03  0.66994297988E+03  0.12500469117E+03 0.  0.
          4    1    3    3  501    0 -0.28038843513E+01 -0.13728938293E+02  0.47140264523E+01  0.14838479016E+02  0.12700000000E+01 0.  1.
         -4    1    3    3    0  501  0.72976335083E+02  0.68330440774E+02  0.64743007308E+03  0.65510450086E+03  0.12700000000E+01 0.  1.
          2    1    1    2  502    0 -0.59734913140E+02 -0.21162729608E+02  0.12212249899E+04  0.12228681846E+04  0.00000000000E+00 0. -1.
          2    1    1    2  503    0 -0.10437537592E+02 -0.33438772873E+02 -0.11622950500E+04  0.11628228055E+04  0.00000000000E+00 0. -1.
<mgrwt>
<rscale>  0 0.47787466E+02</rscale>
<asrwt>0</asrwt>
<pdfrwt beam="1">  1        2 0.28974677E+00 0.65191224E+02</pdfrwt>
<pdfrwt beam="2">  1        2 0.18035076E+00 0.35029898E+02</pdfrwt>
<totfact> 0.36410695E+01</totfact>
</mgrwt>
</event>
<event>
 7    1  0.3113530E-004  0.5945889E+02  0.7546771E-02  0.1543339E+00
          2   -1    0    0  502    0  0.00000000000E+00  0.00000000000E+00  0.50516107198E+03  0.50516107198E+03  0.00000000000E+00 0. -1.
          1   -1    0    0  503    0 -0.00000000000E+00 -0.00000000000E+00 -0.16220337801E+04  0.16220337801E+04  0.00000000000E+00 0. -1.
         25    2    1    2    0    0  0.34399796500E+02  0.21492361384E+02 -0.16560477142E+03  0.21141192469E+03  0.12499917594E+03 0.  0.
          4    1    3    3  501    0  0.16735121343E+02  0.52154840251E+02 -0.16721862553E+03  0.17596554570E+03  0.12700000000E+01 0. -1.
         -4    1    3    3    0  501  0.17664675157E+02 -0.30662478867E+02  0.16138541050E+01  0.35446378993E+02  0.12700000000E+01 0. -1.
          2    1    1    2  502    0  0.10057019046E+02  0.18792621415E+02  0.48139387616E+03  0.48186551055E+03  0.00000000000E+00 0. -1.
          1    1    1    2  503    0 -0.44456815546E+02 -0.40284982799E+02 -0.14326618129E+04  0.14339174169E+04  0.00000000000E+00 0. -1.
<mgrwt>
<rscale>  0 0.35599636E+02</rscale>
<asrwt>0</asrwt>
<pdfrwt beam="1">  1        2 0.77717089E-01 0.21314461E+02</pdfrwt>
<pdfrwt beam="2">  1        1 0.24954366E+00 0.59458885E+02</pdfrwt>
<totfact> 0.60449724E+01</totfact>
</mgrwt>
</event>
<event>
 7    1  0.3113530E-004  0.5544933E+02  0.7546771E-02  0.1461859E+00
          2   -1    0    0  503    0  0.00000000000E+00  0.00000000000E+00  0.19810585325E+04  0.19810585325E+04  0.00000000000E+00 0. -1.
         -1   -1    0    0    0  501 -0.00000000000E+00 -0.00000000000E+00 -0.13376958713E+02  0.13376958713E+02  0.00000000000E+00 0.  1.
         25    2    1    2    0    0 -0.43571315865E+02  0.30792199984E+02  0.86364480736E+03  0.87427736881E+03  0.12502777765E+03 0.  0.
          4    1    3    3  502    0  0.20096340521E+02 -0.15796544105E+02  0.44449737516E+02  0.51291186116E+02  0.12700000000E+01 0.  1.
         -4    1    3    3    0  502 -0.63667656386E+02  0.46588744089E+02  0.81919506984E+03  0.82298618269E+03  0.12700000000E+01 0.  1.
          2    1    1    2  503    0  0.57160501619E+02  0.67703944477E+01  0.10564989727E+04  0.10580658016E+04  0.00000000000E+00 0. -1.
         -1    1    1    2    0  501 -0.13589185754E+02 -0.37562594432E+02  0.47537793681E+02  0.62092320765E+02  0.00000000000E+00 0.  1.
<mgrwt>
<rscale>  0 0.47063060E+02</rscale>
<asrwt>0</asrwt>
<pdfrwt beam="1">  1        2 0.30477800E+00 0.55449334E+02</pdfrwt>
<pdfrwt beam="2">  1       -1 0.20579952E-02 0.39945143E+02</pdfrwt>
<totfact> 0.52386454E+03</totfact>
</mgrwt>
</event>
<event>
 7    1  0.3113530E-004  0.6346928E+02  0.7546771E-02  0.1481061E+00
          1   -1    0    0  503    0 -0.00000000000E+00  0.00000000000E+00  0.10837782725E+03  0.10837782725E+03  0.00000000000E+00 0. -1.
          2   -1    0    0  502    0  0.00000000000E+00 -0.00000000000E+00 -0.24329432835E+04  0.24329432835E+04  0.00000000000E+00 0. -1.
         25    2    1    2    0    0  0.34365243518E+02  0.64220577465E+02 -0.32995508581E+03  0.36027878694E+03  0.12500077255E+03 0.  0.
          4    1    3    3  501    0  0.77084136484E+02  0.42496297339E+02 -0.26706052253E+03  0.28119536799E+03  0.12700000000E+01 0. -1.
         -4    1    3    3    0  501 -0.42718892966E+02  0.21724280126E+02 -0.62894563281E+02  0.79083418955E+02  0.12700000000E+01 0. -1.
          2    1    1    2  502    0 -0.39590776342E+01 -0.63250380815E+02 -0.20848498924E+04  0.20858128772E+04  0.00000000000E+00 0. -1.
          1    1    1    2  503    0 -0.30406165884E+02 -0.97019664989E+00  0.90239521866E+02  0.95229446664E+02  0.00000000000E+00 0. -1.
<mgrwt>
<rscale>  0 0.43941321E+02</rscale>
<asrwt>0</asrwt>
<pdfrwt beam="2">  1        2 0.37429894E+00 0.63469282E+02</pdfrwt>
<pdfrwt beam="1">  1        1 0.16673513E-01 0.30421640E+02</pdfrwt>
<totfact> 0.21034071E+02</totfact>
</mgrwt>
</event>
<event>
 7    1  0.3113530E-004  0.5176275E+02  0.7546771E-02  0.1469968E+00
          1   -1    0    0  503    0  0.00000000000E+00  0.00000000000E+00  0.29437929217E+03  0.29437929217E+03  0.00000000000E+00 0. -1.
         -3   -1    0    0    0  501 -0.00000000000E+00 -0.00000000000E+00 -0.39634466730E+03  0.39634466730E+03  0.00000000000E+00 0.  1.
         25    2    1    2    0    0  0.67569270469E+02 -0.51870774730E+02 -0.22010893910E+03  0.26707548495E+03  0.12500074401E+03 0.  0.
          4    1    3    3  502    0  0.40468658552E+02 -0.93304707496E+02 -0.15047025381E+03  0.18162155970E+03  0.12700000000E+01 0.  1.
         -4    1    3    3    0  502  0.27100611916E+02  0.41433932766E+02 -0.69638685294E+02  0.85453925248E+02  0.12700000000E+01 0.  1.
          1    1    1    2  503    0 -0.48892043578E+02  0.16090342636E+02  0.26571632104E+03  0.27065567483E+03  0.00000000000E+00 0. -1.
         -3    1    1    2    0  501 -0.18677226890E+02  0.35780432094E+02 -0.14757275707E+03  0.15299279968E+03  0.00000000000E+00 0.  1.
<mgrwt>
<rscale>  0 0.45708204E+02</rscale>
<asrwt>0</asrwt>
<pdfrwt beam="1">  1        1 0.45289122E-01 0.51762752E+02</pdfrwt>
<pdfrwt beam="2">  1       -3 0.60976102E-01 0.40361840E+02</pdfrwt>
<totfact> 0.11987755E+02</totfact>
</mgrwt>
</event>
<event>
 7    1  0.3113530E-004  0.1470037E+03  0.7546771E-02  0.1282536E+00
          1   -1    0    0  503    0 -0.00000000000E+00  0.00000000000E+00  0.40597265320E+03  0.40597265320E+03  0.00000000000E+00 0. -1.
          2   -1    0    0  502    0  0.00000000000E+00 -0.00000000000E+00 -0.50012084431E+03  0.50012084431E+03  0.00000000000E+00 0. -1.
         25    2    1    2    0    0 -0.98041958780E+02  0.91453109066E+02 -0.29080636671E+02  0.18560697282E+03  0.12501347164E+03 0.  0.
          4    1    3    3  501    0 -0.11672718349E+03  0.70254209350E+02 -0.55298243516E+02  0.14703876337E+03  0.12700000000E+01 0. -1.
         -4    1    3    3    0  501  0.18685224714E+02  0.21198899716E+02  0.26217606845E+02  0.38568209453E+02  0.12700000000E+01 0. -1.
          2    1    1    2  502    0  0.44270852304E+02  0.49747590416E+02 -0.37224813634E+03  0.37815791162E+03  0.00000000000E+00 0. -1.
          1    1    1    2  503    0  0.53771106476E+02 -0.14120069948E+03  0.30718058190E+03  0.34232861306E+03  0.00000000000E+00 0. -1.
<mgrwt>
<rscale>  0 0.98942066E+02</rscale>
<asrwt>0</asrwt>
<pdfrwt beam="2">  1        2 0.76941669E-01 0.66593777E+02</pdfrwt>
<pdfrwt beam="1">  1        1 0.62457331E-01 0.14700371E+03</pdfrwt>
<totfact> 0.51943717E+02</totfact>
</mgrwt>
</event>
<event>
 7    1  0.3113530E-004  0.8315013E+02  0.7546771E-02  0.1378131E+00
          2   -1    0    0  503    0  0.00000000000E+00  0.00000000000E+00  0.26744314218E+04  0.26744314218E+04  0.00000000000E+00 0. -1.
         -1   -1    0    0    0  501 -0.00000000000E+00 -0.00000000000E+00 -0.85976571766E+02  0.85976571766E+02  0.00000000000E+00 0.  1.
         25    2    1    2    0    0 -0.51975217037E+02  0.10482357175E+03  0.12616458158E+03  0.21267406067E+03  0.12499340004E+03 0.  0.
          4    1    3    3  502    0  0.19093073406E+02  0.94066968069E+02  0.92445288015E+02  0.13326996702E+03  0.12700000000E+01 0.  1.
         -4    1    3    3    0  502 -0.71068290443E+02  0.10756603683E+02  0.33719293567E+02  0.79404093647E+02  0.12700000000E+01 0.  1.
          2    1    1    2  503    0  0.42124019010E+02 -0.28295779954E+02  0.24696985758E+04  0.24702198565E+04  0.00000000000E+00 0. -1.
         -1    1    1    2    0  501  0.98511980264E+01 -0.76527791798E+02 -0.74083073585E+01  0.77514076386E+02  0.00000000000E+00 0.  1.
<mgrwt>
<rscale>  0 0.64957502E+02</rscale>
<asrwt>0</asrwt>
<pdfrwt beam="1">  1        2 0.41145092E+00 0.50745287E+02</pdfrwt>
<pdfrwt beam="2">  1       -1 0.13227167E-01 0.83150127E+02</pdfrwt>
<totfact> 0.17276233E+02</totfact>
</mgrwt>
</event>
<event>
 7    1  0.3113530E-004  0.2368004E+02  0.7546771E-02  0.1712192E+00
         -1   -1    0    0    0  501 -0.00000000000E+00  0.00000000000E+00  0.18340391175E+03  0.18340391175E+03  0.00000000000E+00 0.  1.
          2   -1    0    0  503    0  0.00000000000E+00 -0.00000000000E+00 -0.14735997063E+04  0.14735997063E+04  0.00000000000E+00 0.  1.
         25    2    1    2    0    0  0.27531874961E+02 -0.97503195630E+01 -0.47846507962E+03  0.49538611708E+03  0.12500199881E+03 0.  0.
          4    1    3    3  502    0  0.37379179112E+02  0.40325378767E+02 -0.38481441067E+03  0.38872494487E+03  0.12700000000E+01 0.  1.
         -4    1    3    3    0  502 -0.98473041508E+01 -0.50075698330E+02 -0.93650668949E+02  0.10666117221E+03  0.12700000000E+01 0.  1.
          2    1    1    2  503    0 -0.16566840123E+02 -0.11242292115E+02 -0.98577041743E+03  0.98597371426E+03  0.00000000000E+00 0.  1.
         -1    1    1    2    0  501 -0.10965034838E+02  0.20992611678E+02  0.17403970254E+03  0.17564378667E+03  0.00000000000E+00 0.  1.
<mgrwt>
<rscale>  0 0.21773912E+02</rscale>
<asrwt>0</asrwt>
<pdfrwt beam="2">  1        2 0.22670764E+00 0.20021222E+02</pdfrwt>
<pdfrwt beam="1">  1       -1 0.28215987E-01 0.23680035E+02</pdfrwt>
<totfact> 0.21483547E+02</totfact>
</mgrwt>
</event>
<event>
 7    1  0.3113530E-004  0.3321954E+02  0.7546771E-02  0.1616375E+00
         -2   -1    0    0    0  501 -0.00000000000E+00  0.00000000000E+00  0.80885220782E+01  0.80885220782E+01  0.00000000000E+00 0.  1.
          1   -1    0    0  503    0  0.00000000000E+00 -0.00000000000E+00 -0.14912027861E+04  0.14912027861E+04  0.00000000000E+00 0. -1.
         25    2    1    2    0    0  0.12451845480E+02  0.67168930195E+01 -0.11258885846E+04  0.11328943628E+04  0.12499746848E+03 0.  0.
          4    1    3    3  502    0  0.44100315744E+02 -0.51966190729E+01 -0.15051245721E+03  0.15693137154E+03  0.12700000000E+01 0. -1.
         -4    1    3    3    0  502 -0.31648470263E+02  0.11913512092E+02 -0.97537612743E+03  0.97596299126E+03  0.12700000000E+01 0. -1.
          1    1    1    2  503    0 -0.34797932486E+02  0.17863394019E+02 -0.10604204869E+03  0.11302616088E+03  0.00000000000E+00 0. -1.
         -2    1    1    2    0  501  0.22346087006E+02 -0.24580287038E+02 -0.25118363072E+03  0.25337078454E+03  0.00000000000E+00 0.  1.
<mgrwt>
<rscale>  0 0.28408715E+02</rscale>
<asrwt>0</asrwt>
<pdfrwt beam="2">  1        1 0.22941584E+00 0.24294586E+02</pdfrwt>
<pdfrwt beam="1">  1       -2 0.12443878E-02 0.33219544E+02</pdfrwt>
<totfact> 0.90647970E+03</totfact>
</mgrwt>
</event>
<event>
 7    1  0.3113530E-004  0.4910919E+02  0.7546771E-02  0.1565156E+00
          2   -1    0    0  503    0  0.00000000000E+00  0.00000000000E+00  0.15592095936E+04  0.15592095936E+04  0.00000000000E+00 0. -1.
         -1   -1    0    0    0  501 -0.00000000000E+00 -0.00000000000E+00 -0.99719334807E+01  0.99719334807E+01  0.00000000000E+00 0.  1.
         25    2    1    2    0    0 -0.47901708920E+02 -0.46151473364E+02  0.10137472172E+04  0.10235880476E+04  0.12499815439E+03 0.  0.
          4    1    3    3  502    0 -0.87165974154E+02 -0.52554624919E+02  0.72846245520E+03  0.73553997660E+03  0.12700000000E+01 0.  1.
         -4    1    3    3    0  502  0.39264265234E+02  0.64031515547E+01  0.28528476201E+03  0.28804807100E+03  0.12700000000E+01 0.  1.
          2    1    1    2  503    0  0.27795053306E+02  0.36166012579E+02  0.50825747994E+03  0.51030011892E+03  0.00000000000E+00 0. -1.
         -1    1    1    2    0  501  0.20106655615E+02  0.99854607852E+01  0.27232962985E+02  0.35293360566E+02  0.00000000000E+00 0.  1.
<mgrwt>
<rscale>  0 0.33203679E+02</rscale>
<asrwt>0</asrwt>
<pdfrwt beam="1">  1        2 0.23987821E+00 0.49109186E+02</pdfrwt>
<pdfrwt beam="2">  1       -1 0.15341448E-02 0.22449655E+02</pdfrwt>
<totfact> 0.11467411E+04</totfact>
</mgrwt>
</event>
<event>
 7    1  0.3113530E-004  0.9337599E+02  0.7546771E-02  0.1345438E+00
          2   -1    0    0  503    0  0.00000000000E+00  0.00000000000E+00  0.79693033447E+03  0.79693033447E+03  0.00000000000E+00 0. -1.
         -3   -1    0    0    0  501 -0.00000000000E+00 -0.00000000000E+00 -0.14468567490E+03  0.14468567490E+03  0.00000000000E+00 0.  1.
         25    2    1    2    0    0 -0.81116409286E+02 -0.85500551957E+02  0.11993939625E+03  0.20952538872E+03  0.12500085402E+03 0.  0.
          4    1    3    3  502    0 -0.61978614360E+02 -0.66102605416E+02  0.14597406873E+03  0.17181660200E+03  0.12700000000E+01 0.  1.
         -4    1    3    3    0  502 -0.19137794926E+02 -0.19397946541E+02 -0.26034672481E+02  0.37708786719E+02  0.12700000000E+01 0.  1.
          2    1    1    2  503    0  0.21851756459E+02  0.89979766949E+02  0.61960190418E+03  0.62648254356E+03  0.00000000000E+00 0. -1.
         -3    1    1    2    0  501  0.59264652827E+02 -0.44792149917E+01 -0.87296640862E+02  0.10560807709E+03  0.00000000000E+00 0.  1.
<mgrwt>
<rscale>  0 0.74496165E+02</rscale>
<asrwt>0</asrwt>
<pdfrwt beam="1">  1        2 0.12260466E+00 0.93375987E+02</pdfrwt>
<pdfrwt beam="2">  1       -3 0.22259335E-01 0.59433681E+02</pdfrwt>
<totfact> 0.38310729E+02</totfact>
</mgrwt>
</event>
<event>
 7    1  0.3113530E-004  0.9837947E+02  0.7546771E-02  0.1307566E+00
          2   -1    0    0  502    0  0.00000000000E+00  0.00000000000E+00  0.16097988694E+04  0.16097988694E+04  0.00000000000E+00 0. -1.
          1   -1    0    0  503    0 -0.00000000000E+00 -0.00000000000E+00 -0.69313814319E+02  0.69313814319E+02  0.00000000000E+00 0. -1.
         25    2    1    2    0    0 -0.62694511052E+01 -0.21194975813E+02  0.50480889252E+03  0.52052434174E+03  0.12500015746E+03 0.  0.
          4    1    3    3  501    0  0.32973804609E+02  0.35835267600E+02  0.11956701398E+03  0.12910972824E+03  0.12700000000E+01 0. -1.
         -4    1    3    3    0  501 -0.39243255715E+02 -0.57030243413E+02  0.38524187854E+03  0.39141461350E+03  0.12700000000E+01 0. -1.
          2    1    1    2  502    0  0.10132044376E+03 -0.41788210661E+01  0.10537026201E+04  0.10585709737E+04  0.00000000000E+00 0. -1.
          1    1    1    2  503    0 -0.95050992655E+02  0.25373796879E+02 -0.18026457546E+02  0.10001736821E+03  0.00000000000E+00 0. -1.
<mgrwt>
<rscale>  0 0.88081028E+02</rscale>
<asrwt>0</asrwt>
<pdfrwt beam="1">  1        2 0.24766134E+00 0.78860632E+02</pdfrwt>
<pdfrwt beam="2">  1        1 0.10663665E-01 0.98379473E+02</pdfrwt>
<totfact> 0.10009873E+03</totfact>
</mgrwt>
</event>
<event>
 7    1  0.3113530E-004  0.1922912E+03  0.7546771E-02  0.1309197E+00
          1   -1    0    0  502    0  0.00000000000E+00  0.00000000000E+00  0.52110683275E+03  0.52110683275E+03  0.00000000000E+00 0. -1.
          1   -1    0    0  503    0 -0.00000000000E+00 -0.00000000000E+00 -0.39981378020E+03  0.39981378020E+03  0.00000000000E+00 0. -1.
         25    2    1    2    0    0  0.69942798868E+02 -0.18344961514E+03  0.76152249686E+02  0.24488306224E+03  0.12499117021E+03 0.  0.
          4    1    3    3  501    0  0.80390003600E+02 -0.11966304225E+03  0.10056895634E+03  0.17577691612E+03  0.12700000000E+01 0. -1.
         -4    1    3    3    0  501 -0.10447204732E+02 -0.63786572889E+02 -0.24416706659E+02  0.69106146121E+02  0.12700000000E+01 0. -1.
          1    1    1    2  502    0 -0.39255627474E+02 -0.62642982889E+01  0.33001499012E+03  0.33240057074E+03  0.00000000000E+00 0. -1.
          1    1    1    2  503    0 -0.30687171394E+02  0.18971391343E+03 -0.28487418727E+03  0.34363697998E+03  0.00000000000E+00 0. -1.
<mgrwt>
<rscale>  0 0.87430085E+02</rscale>
<asrwt>0</asrwt>
<pdfrwt beam="1">  1        1 0.80170282E-01 0.39752305E+02</pdfrwt>
<pdfrwt beam="2">  1        1 0.61509812E-01 0.19229124E+03</pdfrwt>
<totfact> 0.32772520E+02</totfact>
</mgrwt>
</event>
<event>
 7    1  0.3113530E-004  0.8169218E+02  0.7546771E-02  0.1326205E+00
          3   -1    0    0  503    0  0.00000000000E+00  0.00000000000E+00  0.20116844478E+04  0.20116844478E+04  0.00000000000E+00 0. -1.
         -3   -1    0    0    0  501 -0.00000000000E+00 -0.00000000000E+00 -0.55525485569E+03  0.55525485569E+03  0.00000000000E+00 0.  1.
         25    2    1    2    0    0  0.47248438778E+01 -0.47879758921E+01  0.16655896512E+03  0.20835552980E+03  0.12499955629E+03 0.  0.
          4    1    3    3  502    0 -0.36414733681E+02 -0.51290423894E+02  0.78492860225E+02  0.10059563817E+03  0.12700000000E+01 0.  1.
         -4    1    3    3    0  502  0.41139577558E+02  0.46502448002E+02  0.88066104895E+02  0.10775989163E+03  0.12700000000E+01 0.  1.
          3    1    1    2  503    0 -0.85008924189E+02  0.76846673038E+01  0.18202019498E+04  0.18222021593E+04  0.00000000000E+00 0. -1.
         -3    1    1    2    0  501  0.80284080311E+02 -0.28966914117E+01 -0.53033132278E+03  0.53638161443E+03  0.00000000000E+00 0.  1.
<mgrwt>
<rscale>  0 0.81011416E+02</rscale>
<asrwt>0</asrwt>
<pdfrwt beam="1">  1        3 0.30948991E+00 0.81692185E+02</pdfrwt>
<pdfrwt beam="2">  1       -3 0.85423825E-01 0.80336320E+02</pdfrwt>
<totfact> 0.13514458E-01</totfact>
</mgrwt>
</event>
<event>
 7    1  0.3113530E-004  0.3126178E+03  0.7546771E-02  0.1327080E+00
         -1   -1    0    0    0  501 -0.00000000000E+00  0.00000000000E+00  0.22053688899E+03  0.22053688899E+03  0.00000000000E+00 0.  1.
          1   -1    0    0  503    0  0.00000000000E+00 -0.00000000000E+00 -0.72922530114E+03  0.72922530114E+03  0.00000000000E+00 0. -1.
         25    2    1    2    0    0  0.24912010810E+03  0.21338633397E+03 -0.38463841945E+03  0.52073512390E+03  0.12499519899E+03 0.  0.
          4    1    3    3  502    0  0.14433163300E+03  0.10775488661E+03 -0.29897522088E+03  0.34904230614E+03  0.12700000000E+01 0. -1.
         -4    1    3    3    0  502  0.10478847509E+03  0.10563144736E+03 -0.85663198564E+02  0.17169281776E+03  0.12700000000E+01 0. -1.
          1    1    1    2  503    0 -0.17226835036E+02 -0.11712692280E+02 -0.11988041375E+03  0.12167688608E+03  0.00000000000E+00 0. -1.
         -1    1    1    2    0  501 -0.23189327306E+03 -0.20167364169E+03 -0.41695789559E+01  0.30735018014E+03  0.00000000000E+00 0.  1.
<mgrwt>
<rscale>  0 0.80698789E+02</rscale>
<asrwt>0</asrwt>
<pdfrwt beam="2">  1        1 0.11218851E+00 0.20831491E+02</pdfrwt>
<pdfrwt beam="1">  1       -1 0.33928752E-01 0.31261779E+03</pdfrwt>
<totfact> 0.24794073E+02</totfact>
</mgrwt>
</event>
<event>
 7    1  0.3113530E-004  0.4833635E+02  0.7546771E-02  0.1530646E+00
          1   -1    0    0  503    0 -0.00000000000E+00  0.00000000000E+00  0.62434522026E+03  0.62434522026E+03  0.00000000000E+00 0. -1.
          2   -1    0    0  502    0  0.00000000000E+00 -0.00000000000E+00 -0.16765667423E+04  0.16765667423E+04  0.00000000000E+00 0. -1.
         25    2    1    2    0    0  0.90833375072E+01  0.21631497464E+02  0.71040116447E+02  0.14567598965E+03  0.12499746843E+03 0.  0.
          4    1    3    3  501    0 -0.24165345612E+01  0.91859397283E+01 -0.36021401849E+02  0.37274326542E+02  0.12700000000E+01 0. -1.
         -4    1    3    3    0  501  0.11499872068E+02  0.12445557736E+02  0.10706151830E+03  0.10840166311E+03  0.12700000000E+01 0. -1.
          2    1    1    2  502    0  0.60218785981E+00 -0.48421137638E+02 -0.16384976429E+04  0.16392130719E+04  0.00000000000E+00 0. -1.
          1    1    1    2  503    0 -0.96855253670E+01  0.26789640174E+02  0.51523600438E+03  0.51602290107E+03  0.00000000000E+00 0. -1.
<mgrwt>
<rscale>  0 0.37107210E+02</rscale>
<asrwt>0</asrwt>
<pdfrwt beam="2">  1        2 0.25793334E+00 0.48336355E+02</pdfrwt>
<pdfrwt beam="1">  1        1 0.96053111E-01 0.28486738E+02</pdfrwt>
<totfact> 0.63552978E+01</totfact>
</mgrwt>
</event>
<event>
 7    1  0.3113530E-004  0.9647119E+02  0.7546771E-02  0.1335679E+00
          2   -1    0    0  502    0  0.00000000000E+00  0.00000000000E+00  0.23656473026E+04  0.23656473026E+04  0.00000000000E+00 0. -1.
          2   -1    0    0  503    0 -0.00000000000E+00 -0.00000000000E+00 -0.56712857666E+03  0.56712857666E+03  0.00000000000E+00 0. -1.
         25    2    1    2    0    0  0.14760880184E+03 -0.49514092102E+02  0.57180424712E+03  0.60566083448E+03  0.12499978282E+03 0.  0.
          4    1    3    3  501    0  0.14313583268E+03  0.64068779199E+01  0.39657128595E+03  0.42166255753E+03  0.12700000000E+01 0.  1.
         -4    1    3    3    0  501  0.44729691584E+01 -0.55920970022E+02  0.17523296117E+03  0.18399827695E+03  0.12700000000E+01 0.  1.
          2    1    1    2  502    0 -0.62381614536E+02  0.51937630666E+01  0.17721649399E+04  0.17732701473E+04  0.00000000000E+00 0. -1.
          2    1    1    2  503    0 -0.85227187305E+02  0.44320329036E+02 -0.54545046107E+03  0.55384489751E+03  0.00000000000E+00 0. -1.
<mgrwt>
<rscale>  0 0.77710042E+02</rscale>
<asrwt>0</asrwt>
<pdfrwt beam="1">  1        2 0.36394573E+00 0.62597452E+02</pdfrwt>
<pdfrwt beam="2">  1        2 0.87250552E-01 0.96471190E+02</pdfrwt>
<totfact> 0.48988610E+01</totfact>
</mgrwt>
</event>
<event>
 7    1  0.3113530E-004  0.8138711E+02  0.7546771E-02  0.1345118E+00
          1   -1    0    0  503    0  0.00000000000E+00  0.00000000000E+00  0.62549421883E+02  0.62549421883E+02  0.00000000000E+00 0. -1.
         -1   -1    0    0    0  501 -0.00000000000E+00 -0.00000000000E+00 -0.54361891854E+03  0.54361891854E+03  0.00000000000E+00 0.  1.
         25    2    1    2    0    0 -0.22412780238E+02 -0.12322736981E+03 -0.38621039476E+03  0.42481943453E+03  0.12500306216E+03 0.  0.
          4    1    3    3  502    0  0.44844648295E+02 -0.92672777731E+02 -0.23223498258E+03  0.25403540353E+03  0.12700000000E+01 0.  1.
         -4    1    3    3    0  502 -0.67257428533E+02 -0.30554592079E+02 -0.15397541218E+03  0.17078403100E+03  0.12700000000E+01 0.  1.
          1    1    1    2  503    0  0.48916974791E+02  0.60196284916E+02 -0.20289273723E+02  0.80175543457E+02  0.00000000000E+00 0. -1.
         -1    1    1    2    0  501 -0.26504194553E+02  0.63031084895E+02 -0.74569828173E+02  0.10117336243E+03  0.00000000000E+00 0.  1.
<mgrwt>
<rscale>  0 0.74598873E+02</rscale>
<asrwt>0</asrwt>
<pdfrwt beam="1">  1        1 0.96229879E-02 0.81387107E+02</pdfrwt>
<pdfrwt beam="2">  1       -1 0.83633680E-01 0.68376823E+02</pdfrwt>
<totfact> 0.98004572E+02</totfact>
</mgrwt>
</event>
<event>
 7    1  0.3113530E-004  0.5916587E+02  0.7546771E-02  0.1434527E+00
          2   -1    0    0  503    0  0.00000000000E+00  0.00000000000E+00  0.71778723486E+03  0.71778723486E+03  0.00000000000E+00 0. -1.
         -3   -1    0    0    0  501 -0.00000000000E+00 -0.00000000000E+00 -0.51950335449E+02  0.51950335449E+02  0.00000000000E+00 0.  1.
         25    2    1    2    0    0 -0.70183702465E+02 -0.11130869288E+02  0.23467547934E+03  0.27522524126E+03  0.12500681772E+03 0.  0.
          4    1    3    3  502    0 -0.25560121629E+02 -0.67226702281E+02  0.11087359595E+03  0.13216397579E+03  0.12700000000E+01 0.  1.
         -4    1    3    3    0  502 -0.44623580836E+02  0.56095832993E+02  0.12380188339E+03  0.14306126547E+03  0.12700000000E+01 0.  1.
          2    1    1    2  503    0  0.19111936667E+02  0.41633840399E+02  0.43258884203E+03  0.43500775745E+03  0.00000000000E+00 0. -1.
         -3    1    1    2    0  501  0.51071765798E+02 -0.30502971111E+02 -0.14274219647E+01  0.59504571604E+02  0.00000000000E+00 0.  1.
<mgrwt>
<rscale>  0 0.52061929E+02</rscale>
<asrwt>0</asrwt>
<pdfrwt beam="1">  1        2 0.11042880E+00 0.45810946E+02</pdfrwt>
<pdfrwt beam="2">  1       -3 0.79923598E-02 0.59165869E+02</pdfrwt>
<totfact> 0.24344977E+03</totfact>
</mgrwt>
</event>
<event>
 7    1  0.3113530E-004  0.1528299E+03  0.7546771E-02  0.1222674E+00
          1   -1    0    0  503    0 -0.00000000000E+00  0.00000000000E+00  0.24984196044E+03  0.24984196044E+03  0.00000000000E+00 0. -1.
          2   -1    0    0  502    0  0.00000000000E+00 -0.00000000000E+00 -0.12334328641E+04  0.12334328641E+04  0.00000000000E+00 0. -1.
         25    2    1    2    0    0  0.14623107140E+02 -0.90441519764E+02 -0.38868285487E+03  0.41843650619E+03  0.12498497625E+03 0.  0.
          4    1    3    3  501    0 -0.22262681927E+02  0.23017463085E+02 -0.12454682995E+03  0.12860387383E+03  0.12700000000E+01 0. -1.
         -4    1    3    3    0  501  0.36885789067E+02 -0.11345898285E+03 -0.26413602491E+03  0.28983263236E+03  0.12700000000E+01 0. -1.
          2    1    1    2  502    0 -0.16113414810E+02  0.20665595992E+03 -0.80146075549E+03  0.82783190957E+03  0.00000000000E+00 0. -1.
          1    1    1    2  503    0  0.14903076691E+01 -0.11621444015E+03  0.20655270674E+03  0.23700640873E+03  0.00000000000E+00 0. -1.
<mgrwt>
<rscale>  0 0.13327604E+03</rscale>
<asrwt>0</asrwt>
<pdfrwt beam="2">  1        2 0.18975890E+00 0.15282992E+03</pdfrwt>
<pdfrwt beam="1">  1        1 0.38437225E-01 0.11622400E+03</pdfrwt>
<totfact> 0.29800832E+02</totfact>
</mgrwt>
</event>
<event>
 7    1  0.3113530E-004  0.9615668E+02  0.7546771E-02  0.1399523E+00
          1   -1    0    0  503    0  0.00000000000E+00  0.00000000000E+00  0.65319366756E+03  0.65319366756E+03  0.00000000000E+00 0. -1.
          1   -1    0    0  502    0 -0.00000000000E+00 -0.00000000000E+00 -0.31964045015E+03  0.31964045015E+03  0.00000000000E+00 0. -1.
         25    2    1    2    0    0 -0.56117793334E+02 -0.11223637479E+03 -0.11335186884E+03  0.21028130171E+03  0.12499347633E+03 0.  0.
          4    1    3    3  501    0 -0.33209666518E+02  0.45823566506E+01  0.13637542143E+02  0.36214298259E+02  0.12700000000E+01 0.  1.
         -4    1    3    3    0  501 -0.22908126816E+02 -0.11681873144E+03 -0.12698941098E+03  0.17406700346E+03  0.12700000000E+01 0.  1.
          1    1    1    2  502    0  0.41256532025E+02  0.78417588436E+02 -0.14476529682E+03  0.16973040616E+03  0.00000000000E+00 0. -1.
          1    1    1    2  503    0  0.14861261309E+02  0.33818786357E+02  0.59167038307E+03  0.59282240983E+03  0.00000000000E+00 0. -1.
<mgrwt>
<rscale>  0 0.59598933E+02</rscale>
<asrwt>0</asrwt>
<pdfrwt beam="1">  1        1 0.10049133E+00 0.36940051E+02</pdfrwt>
<pdfrwt beam="2">  1        1 0.49175454E-01 0.96156684E+02</pdfrwt>
<totfact> 0.32725678E+02</totfact>
</mgrwt>
</event>
<event>
 7    1  0.3113530E-004  0.8223122E+02  0.7546771E-02  0.1367683E+00
          2   -1    0    0  502    0  0.00000000000E+00  0.00000000000E+00  0.41788043413E+04  0.41788043413E+04  0.00000000000E+00 0. -1.
          1   -1    0    0  503    0 -0.00000000000E+00 -0.00000000000E+00 -0.24544039863E+03  0.24544039863E+03  0.00000000000E+00 0. -1.
         25    2    1    2    0    0  0.32192791533E+02 -0.36548997211E+01  0.29421831529E+03  0.32130746148E+03  0.12499733451E+03 0.  0.
          4    1    3    3  501    0 -0.26970309426E+02  0.41614982198E+02  0.76338827673E+02  0.91040836136E+02  0.12700000000E+01 0. -1.
         -4    1    3    3    0  501  0.59163100958E+02 -0.45269881919E+02  0.21787948762E+03  0.23026662535E+03  0.12700000000E+01 0. -1.
          2    1    1    2  502    0  0.46924077338E+02  0.30429651452E+02  0.38633114741E+04  0.38637162653E+04  0.00000000000E+00 0. -1.
          1    1    1    2  503    0 -0.79116868870E+02 -0.26774751731E+02 -0.22416584676E+03  0.23922101313E+03  0.00000000000E+00 0. -1.
<mgrwt>
<rscale>  0 0.67815543E+02</rscale>
<asrwt>0</asrwt>
<pdfrwt beam="1">  1        2 0.64289292E+00 0.55927030E+02</pdfrwt>
<pdfrwt beam="2">  1        1 0.37760064E-01 0.82231218E+02</pdfrwt>
<totfact> 0.70492987E+00</totfact>
</mgrwt>
</event>
<event>
 7    1  0.3113530E-004  0.4394807E+02  0.7546771E-02  0.1499558E+00
          1   -1    0    0  503    0  0.00000000000E+00  0.00000000000E+00  0.59416590473E+02  0.59416590473E+02  0.00000000000E+00 0. -1.
         -2   -1    0    0    0  501 -0.00000000000E+00 -0.00000000000E+00 -0.26976238968E+03  0.26976238968E+03  0.00000000000E+00 0.  1.
         25    2    1    2    0    0  0.71682030634E+02 -0.17122352562E+01 -0.10029260516E+03  0.17556866778E+03  0.12499802074E+03 0.  0.
          4    1    3    3  502    0  0.28990068843E+02 -0.44674609600E+02  0.56069511473E+01  0.53565806590E+02  0.12700000000E+01 0. -1.
         -4    1    3    3    0  502  0.42691961791E+02  0.42962374344E+02 -0.10589955631E+03  0.12200286119E+03  0.12700000000E+01 0. -1.
          1    1    1    2  503    0 -0.37151665879E+02 -0.15594935615E+02 -0.37012877080E+01  0.40461683419E+02  0.00000000000E+00 0. -1.
         -2    1    1    2    0  501 -0.34530364755E+02  0.17307170871E+02 -0.10635190633E+03  0.11314862896E+03  0.00000000000E+00 0.  1.
<mgrwt>
<rscale>  0 0.41200614E+02</rscale>
<asrwt>0</asrwt>
<pdfrwt beam="1">  1        1 0.91410138E-02 0.43948070E+02</pdfrwt>
<pdfrwt beam="2">  1       -2 0.41501906E-01 0.38624918E+02</pdfrwt>
<totfact> 0.30698325E+03</totfact>
</mgrwt>
</event>
<event>
 7    1  0.3113530E-004  0.1081086E+03  0.7546771E-02  0.1370636E+00
         -3   -1    0    0    0  501 -0.00000000000E+00  0.00000000000E+00  0.49432383789E+03  0.49432383789E+03  0.00000000000E+00 0.  1.
          2   -1    0    0  503    0  0.00000000000E+00 -0.00000000000E+00 -0.26586379705E+04  0.26586379705E+04  0.00000000000E+00 0. -1.
         25    2    1    2    0    0 -0.11297142278E+03 -0.70975481018E+02 -0.94655527444E+02  0.20589968352E+03  0.12503979177E+03 0.  0.
          4    1    3    3  502    0 -0.11484760525E+03 -0.64810938631E+01 -0.41505461255E+02  0.12229592480E+03  0.12700000000E+01 0.  1.
         -4    1    3    3    0  502  0.18761824702E+01 -0.64494387155E+02 -0.53150066189E+02  0.83603758714E+02  0.12700000000E+01 0.  1.
          2    1    1    2  503    0  0.40693558929E+02 -0.82006406312E+01 -0.25016361879E+04  0.25019805820E+04  0.00000000000E+00 0. -1.
         -3    1    1    2    0  501  0.72277863852E+02  0.79176121649E+02  0.43197758270E+03  0.44508154287E+03  0.00000000000E+00 0.  1.
<mgrwt>
<rscale>  0 0.66990772E+02</rscale>
<asrwt>0</asrwt>
<pdfrwt beam="2">  1        2 0.40902123E+00 0.41511640E+02</pdfrwt>
<pdfrwt beam="1">  1       -3 0.76049821E-01 0.10810856E+03</pdfrwt>
<totfact> 0.43610140E+00</totfact>
</mgrwt>
</event>
<event>
 7    1  0.3113530E-004  0.2185849E+02  0.7546771E-02  0.1725829E+00
         -3   -1    0    0    0  502 -0.00000000000E+00  0.00000000000E+00  0.13519909094E+02  0.13519909094E+02  0.00000000000E+00 0.  1.
         -2   -1    0    0    0  501  0.00000000000E+00 -0.00000000000E+00 -0.63639338248E+03  0.63639338248E+03  0.00000000000E+00 0.  1.
         25    2    1    2    0    0  0.71419795639E+01  0.11839008778E+02 -0.51256293301E+03  0.52776578109E+03  0.12499915759E+03 0.  0.
          4    1    3    3  503    0  0.26916729729E+02  0.44807840261E+02 -0.45818263639E+03  0.46115636619E+03  0.12700000000E+01 0. -1.
         -4    1    3    3    0  503 -0.19774750165E+02 -0.32968831482E+02 -0.54380296619E+02  0.66609414904E+02  0.12700000000E+01 0. -1.
         -2    1    1    2    0  501 -0.22720781233E+02  0.34937824067E+01 -0.87844008194E+02  0.90802038474E+02  0.00000000000E+00 0.  1.
         -3    1    1    2    0  502  0.15578801669E+02 -0.15332791185E+02 -0.22466532180E+02  0.31345472004E+02  0.00000000000E+00 0.  1.
<mgrwt>
<rscale>  0 0.21016995E+02</rscale>
<asrwt>0</asrwt>
<pdfrwt beam="2">  1       -2 0.97906672E-01 0.20207897E+02</pdfrwt>
<pdfrwt beam="1">  1       -3 0.20799861E-02 0.21858489E+02</pdfrwt>
<totfact> 0.21872755E+03</totfact>
</mgrwt>
</event>
<event>
 7    1  0.3113530E-004  0.8983799E+02  0.7546771E-02  0.1353799E+00
          2   -1    0    0  502    0  0.00000000000E+00  0.00000000000E+00  0.73358404553E+03  0.73358404553E+03  0.00000000000E+00 0. -1.
          2   -1    0    0  503    0 -0.00000000000E+00 -0.00000000000E+00 -0.13298289869E+04  0.13298289869E+04  0.00000000000E+00 0. -1.
         25    2    1    2    0    0 -0.35891334705E+02  0.40393891642E+02 -0.15277790928E+03  0.20466102405E+03  0.12500076325E+03 0.  0.
          4    1    3    3  501    0  0.24984551306E+02  0.53447893632E+02 -0.28240237620E+02  0.65421931020E+02  0.12700000000E+01 0.  1.
         -4    1    3    3    0  501 -0.60875886011E+02 -0.13054001990E+02 -0.12453767166E+03  0.13923909303E+03  0.12700000000E+01 0.  1.
          2    1    1    2  502    0 -0.54546269926E+02 -0.18252954184E+02  0.70458582600E+03  0.70692973632E+03  0.00000000000E+00 0. -1.
          2    1    1    2  503    0  0.90437604631E+02 -0.22140937458E+02 -0.11480528581E+04  0.11518222721E+04  0.00000000000E+00 0. -1.
<mgrwt>
<rscale>  0 0.71884734E+02</rscale>
<asrwt>0</asrwt>
<pdfrwt beam="1">  1        2 0.11285908E+00 0.57519265E+02</pdfrwt>
<pdfrwt beam="2">  1        2 0.20458907E+00 0.89837986E+02</pdfrwt>
<totfact> 0.11864218E+02</totfact>
</mgrwt>
</event>
<event>
 7    1  0.3113530E-004  0.1973609E+03  0.7546771E-02  0.1207019E+00
          2   -1    0    0  502    0  0.00000000000E+00  0.00000000000E+00  0.12569058352E+04  0.12569058352E+04  0.00000000000E+00 0. -1.
          2   -1    0    0  503    0 -0.00000000000E+00 -0.00000000000E+00 -0.79556186820E+03  0.79556186820E+03  0.00000000000E+00 0. -1.
         25    2    1    2    0    0 -0.10264014057E+03 -0.40378733242E+02  0.40774905590E+02  0.17161771150E+03  0.12499842168E+03 0.  0.
          4    1    3    3  501    0 -0.30384156167E+01 -0.23442730348E+02  0.63746319463E+02  0.67999997947E+02  0.12700000000E+01 0.  1.
         -4    1    3    3    0  501 -0.99601724951E+02 -0.16936002894E+02 -0.22971413873E+02  0.10361771356E+03  0.12700000000E+01 0.  1.
          2    1    1    2  502    0 -0.69407290490E+02 -0.80419541438E+02  0.11330418831E+04  0.11380108011E+04  0.00000000000E+00 0. -1.
          2    1    1    2  503    0  0.17204743106E+03  0.12079827468E+03 -0.71247282170E+03  0.74283919078E+03  0.00000000000E+00 0. -1.
<mgrwt>
<rscale>  0 0.14479473E+03</rscale>
<asrwt>0</asrwt>
<pdfrwt beam="1">  1        2 0.19337013E+00 0.10622935E+03</pdfrwt>
<pdfrwt beam="2">  1        2 0.12239413E+00 0.19736086E+03</pdfrwt>
<totfact> 0.11138943E+02</totfact>
</mgrwt>
</event>
<event>
 7    1  0.3113530E-004  0.1124503E+03  0.7546771E-02  0.1370454E+00
         -1   -1    0    0    0  501 -0.00000000000E+00  0.00000000000E+00  0.54241617846E+03  0.54241617846E+03  0.00000000000E+00 0.  1.
          2   -1    0    0  503    0  0.00000000000E+00 -0.00000000000E+00 -0.33129390696E+03  0.33129390696E+03  0.00000000000E+00 0. -1.
         25    2    1    2    0    0 -0.24705305144E+02  0.71173034342E+02 -0.13195379004E+03  0.19675420940E+03  0.12499785314E+03 0.  0.
          4    1    3    3  502    0 -0.15081826668E+01 -0.22587452568E+02 -0.87555394517E+02  0.90443505226E+02  0.12700000000E+01 0. -1.
         -4    1    3    3    0  502 -0.23197122477E+02  0.93760486910E+02 -0.44398395524E+02  0.10631070417E+03  0.12700000000E+01 0. -1.
          2    1    1    2  503    0 -0.24555124913E+02  0.31536762591E+02 -0.15806059499E+03  0.16303580356E+03  0.00000000000E+00 0. -1.
         -1    1    1    2    0  501  0.49260430057E+02 -0.10270979693E+03  0.50113665654E+03  0.51392007246E+03  0.00000000000E+00 0.  1.
<mgrwt>
<rscale>  0 0.67041223E+02</rscale>
<asrwt>0</asrwt>
<pdfrwt beam="2">  1        2 0.50968293E-01 0.39969007E+02</pdfrwt>
<pdfrwt beam="1">  1       -1 0.83448643E-01 0.11245027E+03</pdfrwt>
<totfact> 0.17218695E+02</totfact>
</mgrwt>
</event>
<event>
 7    1  0.3113530E-004  0.5180482E+02  0.7546771E-02  0.1476004E+00
          2   -1    0    0  502    0  0.00000000000E+00  0.00000000000E+00  0.87132865558E+03  0.87132865558E+03  0.00000000000E+00 0. -1.
          1   -1    0    0  503    0 -0.00000000000E+00 -0.00000000000E+00 -0.23599385493E+04  0.23599385493E+04  0.00000000000E+00 0. -1.
         25    2    1    2    0    0  0.86924715179E+02 -0.13734034508E+02 -0.99474552313E+02  0.18238668711E+03  0.12500074906E+03 0.  0.
          4    1    3    3  501    0  0.48717927629E+02 -0.45861845527E+02 -0.11239283502E+03  0.13080713900E+03  0.12700000000E+01 0. -1.
         -4    1    3    3    0  501  0.38206787550E+02  0.32127811020E+02  0.12918282710E+02  0.51579548117E+02  0.12700000000E+01 0. -1.
          2    1    1    2  502    0 -0.48494386106E+02  0.17654058562E+02  0.82890189923E+03  0.83050691136E+03  0.00000000000E+00 0. -1.
          1    1    1    2  503    0 -0.38430329073E+02 -0.39200240543E+01 -0.22180372406E+04  0.22183736064E+04  0.00000000000E+00 0. -1.
<mgrwt>
<rscale>  0 0.44734851E+02</rscale>
<asrwt>0</asrwt>
<pdfrwt beam="1">  1        2 0.13405056E+00 0.51804824E+02</pdfrwt>
<pdfrwt beam="2">  1        1 0.36306747E+00 0.38629740E+02</pdfrwt>
<totfact> 0.12120450E+01</totfact>
</mgrwt>
</event>
<event>
 7    1  0.3113530E-004  0.8798532E+02  0.7546771E-02  0.1406970E+00
          2   -1    0    0  502    0  0.00000000000E+00  0.00000000000E+00  0.41986386049E+03  0.41986386049E+03  0.00000000000E+00 0. -1.
          2   -1    0    0  503    0 -0.00000000000E+00 -0.00000000000E+00 -0.31398056235E+03  0.31398056235E+03  0.00000000000E+00 0. -1.
         25    2    1    2    0    0 -0.60533237616E+02  0.90068634684E+02 -0.25307126926E+03  0.30241261299E+03  0.12502675456E+03 0.  0.
          4    1    3    3  501    0 -0.25253183087E+02  0.11010978892E+03 -0.22865064182E+03  0.25503846333E+03  0.12700000000E+01 0. -1.
         -4    1    3    3    0  501 -0.35280054529E+02 -0.20041154240E+02 -0.24420627441E+02  0.47374149654E+02  0.12700000000E+01 0. -1.
          2    1    1    2  502    0  0.69787592328E+02 -0.53140896866E+02  0.37857446407E+03  0.38860376710E+03  0.00000000000E+00 0. -1.
          2    1    1    2  503    0 -0.92543547112E+01 -0.36927737817E+02 -0.19619896656E+02  0.42828042755E+02  0.00000000000E+00 0. -1.
<mgrwt>
<rscale>  0 0.57875498E+02</rscale>
<asrwt>0</asrwt>
<pdfrwt beam="1">  1        2 0.64594440E-01 0.87985317E+02</pdfrwt>
<pdfrwt beam="2">  1        2 0.48304702E-01 0.38069685E+02</pdfrwt>
<totfact> 0.12149992E+03</totfact>
</mgrwt>
</event>
<event>
 7    1  0.3113530E-004  0.5390452E+02  0.7546771E-02  0.1428456E+00
          1   -1    0    0  503    0 -0.00000000000E+00  0.00000000000E+00  0.22172644862E+03  0.22172644862E+03  0.00000000000E+00 0. -1.
          2   -1    0    0  502    0  0.00000000000E+00 -0.00000000000E+00 -0.10656397435E+04  0.10656397435E+04  0.00000000000E+00 0. -1.
         25    2    1    2    0    0  0.22418586956E+02 -0.33736680757E+02 -0.31908198999E+02  0.13521712698E+03  0.12499912638E+03 0.  0.
          4    1    3    3  501    0  0.28412878934E+01  0.40213342071E+02 -0.41783178381E+02  0.58074372085E+02  0.12700000000E+01 0.  1.
         -4    1    3    3    0  501  0.19577299063E+02 -0.73950022828E+02  0.98749793817E+01  0.77142754894E+02  0.12700000000E+01 0.  1.
          2    1    1    2  502    0  0.31164835704E+02  0.43982391018E+02 -0.97694002777E+03  0.97842603990E+03  0.00000000000E+00 0. -1.
          1    1    1    2  503    0 -0.53583422660E+02 -0.10245710261E+02  0.16493493185E+03  0.17372302527E+03  0.00000000000E+00 0. -1.
<mgrwt>
<rscale>  0 0.53271238E+02</rscale>
<asrwt>0</asrwt>
<pdfrwt beam="2">  1        2 0.16394458E+00 0.53904524E+02</pdfrwt>
<pdfrwt beam="1">  1        1 0.34111761E-01 0.52645391E+02</pdfrwt>
<totfact> 0.44986886E+02</totfact>
</mgrwt>
</event>
<event>
 7    1  0.3113530E-004  0.2067580E+03  0.7546771E-02  0.1178796E+00
          2   -1    0    0  503    0  0.00000000000E+00  0.00000000000E+00  0.66499532664E+03  0.66499532664E+03  0.00000000000E+00 0. -1.
         -2   -1    0    0    0  501 -0.00000000000E+00 -0.00000000000E+00 -0.24132480778E+03  0.24132480778E+03  0.00000000000E+00 0. -1.
         25    2    1    2    0    0  0.11521540942E+03  0.12112861307E+03  0.24445430873E+03  0.32144368328E+03  0.12498560314E+03 0.  0.
          4    1    3    3  502    0  0.11809755568E+03  0.11025623982E+03  0.13259524262E+03  0.20901335446E+03  0.12700000000E+01 0.  1.
         -4    1    3    3    0  502 -0.28821462687E+01  0.10872373256E+02  0.11185906611E+03  0.11243032882E+03  0.12700000000E+01 0.  1.
          2    1    1    2  503    0 -0.25227624411E+03 -0.10272217728E+03  0.29716623245E+03  0.40311650767E+03  0.00000000000E+00 0. -1.
         -2    1    1    2    0  501  0.13706083469E+03 -0.18406435799E+02 -0.11795002233E+03  0.18175994348E+03  0.00000000000E+00 0. -1.
<mgrwt>
<rscale>  0 0.16909414E+03</rscale>
<asrwt>0</asrwt>
<pdfrwt beam="1">  1        2 0.10230697E+00 0.20675804E+03</pdfrwt>
<pdfrwt beam="2">  1       -2 0.37126894E-01 0.13829125E+03</pdfrwt>
<totfact> 0.31000736E+02</totfact>
</mgrwt>
</event>
<event>
 7    1  0.3113530E-004  0.7855073E+02  0.7546771E-02  0.1347322E+00
         -1   -1    0    0    0  501 -0.00000000000E+00  0.00000000000E+00  0.59264700478E+03  0.59264700478E+03  0.00000000000E+00 0.  1.
          2   -1    0    0  503    0  0.00000000000E+00 -0.00000000000E+00 -0.44783302307E+03  0.44783302307E+03  0.00000000000E+00 0.  1.
         25    2    1    2    0    0 -0.21973284313E+02 -0.11366524772E+03 -0.13403791354E+01  0.17038716901E+03  0.12500950757E+03 0.  0.
          4    1    3    3  502    0  0.22208068911E+02 -0.79334967902E+02 -0.49869644620E+02  0.96311109490E+02  0.12700000000E+01 0.  1.
         -4    1    3    3    0  502 -0.44181353224E+02 -0.34330279817E+02  0.48529265485E+02  0.74076059517E+02  0.12700000000E+01 0.  1.
          2    1    1    2  503    0  0.54708388577E+02  0.42892896182E+02 -0.35559188698E+03  0.36232361007E+03  0.00000000000E+00 0.  1.
         -1    1    1    2    0  501 -0.32735104264E+02  0.70772351537E+02  0.50174624782E+03  0.50776924877E+03  0.00000000000E+00 0.  1.
<mgrwt>
<rscale>  0 0.73896693E+02</rscale>
<asrwt>0</asrwt>
<pdfrwt beam="2">  1        2 0.68897388E-01 0.69518403E+02</pdfrwt>
<pdfrwt beam="1">  1       -1 0.91176463E-01 0.78550729E+02</pdfrwt>
<totfact> 0.10633308E+02</totfact>
</mgrwt>
</event>
<event>
 7    1  0.3113530E-004  0.3469606E+02  0.7546771E-02  0.1574959E+00
         -1   -1    0    0    0  501 -0.00000000000E+00  0.00000000000E+00  0.64776239818E+01  0.64776239818E+01  0.00000000000E+00 0.  1.
          2   -1    0    0  503    0  0.00000000000E+00 -0.00000000000E+00 -0.23932724464E+04  0.23932724464E+04  0.00000000000E+00 0. -1.
         25    2    1    2    0    0  0.30171030455E+02  0.50188772294E+02 -0.15876513338E+04  0.15936411900E+04  0.12500512233E+03 0.  0.
          4    1    3    3  502    0  0.17316387414E+02 -0.40258926789E+02 -0.37537445933E+03  0.37792623100E+03  0.12700000000E+01 0. -1.
         -4    1    3    3    0  502  0.12854643041E+02  0.90447699083E+02 -0.12122768745E+04  0.12157149590E+04  0.12700000000E+01 0. -1.
          2    1    1    2  503    0 -0.69109599219E+01 -0.31423979831E+02 -0.73090665480E+03  0.73161449269E+03  0.00000000000E+00 0. -1.
         -1    1    1    2    0  501 -0.23260070533E+02 -0.18764792463E+02 -0.68236833772E+02  0.74494387712E+02  0.00000000000E+00 0.  1.
<mgrwt>
<rscale>  0 0.32201121E+02</rscale>
<asrwt>0</asrwt>
<pdfrwt beam="2">  1        2 0.36819584E+00 0.34696062E+02</pdfrwt>
<pdfrwt beam="1">  1       -1 0.99655732E-03 0.29885587E+02</pdfrwt>
<totfact> 0.89769367E+03</totfact>
</mgrwt>
</event>
<event>
 7    1  0.3113530E-004  0.1475974E+03  0.7546771E-02  0.1303673E+00
          2   -1    0    0  503    0  0.00000000000E+00  0.00000000000E+00  0.14781540289E+04  0.14781540289E+04  0.00000000000E+00 0. -1.
         -1   -1    0    0    0  501 -0.00000000000E+00 -0.00000000000E+00 -0.24662638196E+04  0.24662638196E+04  0.00000000000E+00 0.  1.
         25    2    1    2    0    0 -0.18572248211E+03  0.73261693041E+02 -0.37179861767E+03  0.44013654725E+03  0.12500340832E+03 0.  0.
          4    1    3    3  502    0 -0.42032984523E+02  0.40658136732E+02 -0.22371130703E+03  0.23123195640E+03  0.12700000000E+01 0. -1.
         -4    1    3    3    0  502 -0.14368949759E+03  0.32603556309E+02 -0.14808731064E+03  0.20890459084E+03  0.12700000000E+01 0. -1.
          2    1    1    2  503    0  0.14091127927E+03 -0.42299706403E+02  0.14398760028E+04  0.14473728467E+04  0.00000000000E+00 0. -1.
         -1    1    1    2    0  501  0.44811202842E+02 -0.30961986638E+02 -0.20561871758E+04  0.20569084546E+04  0.00000000000E+00 0.  1.
<mgrwt>
<rscale>  0 0.89661790E+02</rscale>
<asrwt>0</asrwt>
<pdfrwt beam="1">  1        2 0.22740831E+00 0.14759744E+03</pdfrwt>
<pdfrwt beam="2">  1       -1 0.37942520E+00 0.54467316E+02</pdfrwt>
<totfact> 0.26241398E-01</totfact>
</mgrwt>
</event>
<event>
 7    1  0.3113530E-004  0.1257013E+03  0.7546771E-02  0.1296468E+00
          3   -1    0    0  503    0 -0.00000000000E+00  0.00000000000E+00  0.10970045545E+03  0.10970045545E+03  0.00000000000E+00 0. -1.
          1   -1    0    0  502    0  0.00000000000E+00 -0.00000000000E+00 -0.11637474027E+04  0.11637474027E+04  0.00000000000E+00 0. -1.
         25    2    1    2    0    0 -0.12329490625E+03  0.15128763990E+01 -0.76064900810E+03  0.78065118322E+03  0.12500173454E+03 0.  0.
          4    1    3    3  501    0  0.17986996912E+02  0.22879398216E+02 -0.19844825306E+03  0.20057497591E+03  0.12700000000E+01 0.  1.
         -4    1    3    3    0  501 -0.14128190316E+03 -0.21366521817E+02 -0.56220075504E+03  0.58007620731E+03  0.12700000000E+01 0.  1.
          1    1    1    2  502    0  0.12123010475E+03  0.66802052696E+02 -0.36707216806E+03  0.39230247145E+03  0.00000000000E+00 0. -1.
          3    1    1    2  503    0  0.20648015058E+01 -0.68314929095E+02  0.73674228864E+02  0.10049420352E+03  0.00000000000E+00 0. -1.
<mgrwt>
<rscale>  0 0.92688693E+02</rscale>
<asrwt>0</asrwt>
<pdfrwt beam="2">  1        1 0.17903805E+00 0.12570125E+03</pdfrwt>
<pdfrwt beam="1">  1        3 0.16876994E-01 0.68346126E+02</pdfrwt>
<totfact> 0.19120949E+02</totfact>
</mgrwt>
</event>
<event>
 7    1  0.3113530E-004  0.1132737E+03  0.7546771E-02  0.1385555E+00
          1   -1    0    0  503    0  0.00000000000E+00  0.00000000000E+00  0.48934042643E+03  0.48934042643E+03  0.00000000000E+00 0. -1.
         -1   -1    0    0    0  501 -0.00000000000E+00 -0.00000000000E+00 -0.99021841927E+03  0.99021841927E+03  0.00000000000E+00 0.  1.
         25    2    1    2    0    0  0.94736883373E+01 -0.14577699560E+03 -0.11047153141E+03  0.22173766512E+03  0.12499179838E+03 0.  0.
          4    1    3    3  502    0 -0.24920877115E+02 -0.74327027783E+02 -0.11843068169E+03  0.14203167408E+03  0.12700000000E+01 0.  1.
         -4    1    3    3    0  502  0.34394565453E+02 -0.71449967822E+02  0.79591502837E+01  0.79705991040E+02  0.12700000000E+01 0.  1.
          1    1    1    2  503    0 -0.38828480249E+01  0.34852078669E+02  0.42924700090E+03  0.43067706194E+03  0.00000000000E+00 0. -1.
         -1    1    1    2    0  501 -0.55908403123E+01  0.11092491694E+03 -0.81965346234E+03  0.82714411865E+03  0.00000000000E+00 0.  1.
<mgrwt>
<rscale>  0 0.63025766E+02</rscale>
<asrwt>0</asrwt>
<pdfrwt beam="1">  1        1 0.75283143E-01 0.35067704E+02</pdfrwt>
<pdfrwt beam="2">  1       -1 0.15234129E+00 0.11327366E+03</pdfrwt>
<totfact> 0.18959093E+01</totfact>
</mgrwt>
</event>
<event>
 7    1  0.3113530E-004  0.8249357E+02  0.7546771E-02  0.1330707E+00
         -1   -1    0    0    0  501 -0.00000000000E+00  0.00000000000E+00  0.10401726817E+04  0.10401726817E+04  0.00000000000E+00 0.  1.
          1   -1    0    0  503    0  0.00000000000E+00 -0.00000000000E+00 -0.53499534067E+02  0.53499534067E+02  0.00000000000E+00 0. -1.
         25    2    1    2    0    0 -0.31970053159E+02 -0.39762436725E+02  0.10199148331E+03  0.16920127328E+03  0.12499469004E+03 0.  0.
          4    1    3    3  502    0 -0.18322963807E+02 -0.27941096964E+02 -0.24480411612E+02  0.41440793367E+02  0.12700000000E+01 0.  1.
         -4    1    3    3    0  502 -0.13647089352E+02 -0.11821339761E+02  0.12647189493E+03  0.12776047991E+03  0.12700000000E+01 0.  1.
          1    1    1    2  503    0  0.22448415161E+02  0.12170465368E+03  0.20252457150E+03  0.23734396165E+03  0.00000000000E+00 0. -1.
         -1    1    1    2    0  501  0.95216379974E+01 -0.81942216954E+02  0.68215709277E+03  0.68712698079E+03  0.00000000000E+00 0.  1.
<mgrwt>
<rscale>  0 0.79419519E+02</rscale>
<asrwt>0</asrwt>
<pdfrwt beam="2">  1        1 0.82306984E-02 0.76460022E+02</pdfrwt>
<pdfrwt beam="1">  1       -1 0.16002655E+00 0.82493566E+02</pdfrwt>
<totfact> 0.26656144E+02</totfact>
</mgrwt>
</event>
<event>
 7    1  0.3113530E-004  0.4351656E+02  0.7546771E-02  0.1487724E+00
          1   -1    0    0  502    0  0.00000000000E+00  0.00000000000E+00  0.45419936147E+03  0.45419936147E+03  0.00000000000E+00 0. -1.
          3   -1    0    0  503    0 -0.00000000000E+00 -0.00000000000E+00 -0.41921824290E+02  0.41921824290E+02  0.00000000000E+00 0. -1.
         25    2    1    2    0    0  0.22949567514E+01  0.98451987032E+01  0.30830502248E+03  0.33283653373E+03  0.12500390607E+03 0.  0.
          4    1    3    3  501    0 -0.25806696549E+01  0.13679624665E+02 -0.82410606995E+01  0.16227136787E+02  0.12700000000E+01 0. -1.
         -4    1    3    3    0  501  0.48756264063E+01 -0.38344259622E+01  0.31654608318E+03  0.31660939694E+03  0.12700000000E+01 0. -1.
          1    1    1    2  502    0  0.42318946242E+02  0.14103662299E+01  0.10906106953E+03  0.11699230415E+03  0.00000000000E+00 0. -1.
          3    1    1    2  503    0 -0.44613902993E+02 -0.11255564933E+02 -0.50885548259E+01  0.46292347882E+02  0.00000000000E+00 0. -1.
<mgrwt>
<rscale>  0 0.42925487E+02</rscale>
<asrwt>0</asrwt>
<pdfrwt beam="1">  1        1 0.69876821E-01 0.42342441E+02</pdfrwt>
<pdfrwt beam="2">  1        3 0.64495118E-02 0.43516561E+02</pdfrwt>
<totfact> 0.35153120E+03</totfact>
</mgrwt>
</event>
<event>
 7    1  0.3113530E-004  0.3974763E+02  0.7546771E-02  0.1539900E+00
          1   -1    0    0  503    0  0.00000000000E+00  0.00000000000E+00  0.64402363755E+03  0.64402363755E+03  0.00000000000E+00 0. -1.
         -2   -1    0    0    0  501 -0.00000000000E+00 -0.00000000000E+00 -0.21860463542E+02  0.21860463542E+02  0.00000000000E+00 0.  1.
         25    2    1    2    0    0 -0.24993565556E+02  0.16009086042E+02  0.50005319967E+03  0.51629541097E+03  0.12500711874E+03 0.  0.
          4    1    3    3  502    0  0.16050626673E+01 -0.30895152533E+02  0.29848438518E+02  0.43007311683E+02  0.12700000000E+01 0.  1.
         -4    1    3    3    0  502 -0.26598628223E+02  0.46904238575E+02  0.47020476115E+03  0.47328809929E+03  0.12700000000E+01 0.  1.
          1    1    1    2  503    0  0.53742040783E+02 -0.62745870010E+00  0.73392740362E+02  0.90967549103E+02  0.00000000000E+00 0. -1.
         -2    1    1    2    0  501 -0.28748475227E+02 -0.15381627342E+02  0.48717233971E+02  0.58621141011E+02  0.00000000000E+00 0.  1.
<mgrwt>
<rscale>  0 0.35999460E+02</rscale>
<asrwt>0</asrwt>
<pdfrwt beam="1">  1        1 0.99080545E-01 0.39747626E+02</pdfrwt>
<pdfrwt beam="2">  1       -2 0.33631487E-02 0.32604743E+02</pdfrwt>
<totfact> 0.83707148E+03</totfact>
</mgrwt>
</event>
<event>
 7    1  0.3113530E-004  0.6473575E+02  0.7546771E-02  0.1432335E+00
         -1   -1    0    0    0  501 -0.00000000000E+00  0.00000000000E+00  0.14764708395E+02  0.14764708395E+02  0.00000000000E+00 0.  1.
          2   -1    0    0  503    0  0.00000000000E+00 -0.00000000000E+00 -0.35748225555E+04  0.35748225555E+04  0.00000000000E+00 0. -1.
         25    2    1    2    0    0  0.53039350396E+01  0.43375705347E+02 -0.32385332239E+03  0.34987804256E+03  0.12499634675E+03 0.  0.
          4    1    3    3  502    0 -0.19314290822E+02  0.56278777436E+02 -0.59818770630E+02  0.84381519537E+02  0.12700000000E+01 0.  1.
         -4    1    3    3    0  502  0.24618225862E+02 -0.12903072089E+02 -0.26403455176E+03  0.26549652302E+03  0.12700000000E+01 0.  1.
          2    1    1    2  503    0  0.59804145943E+02 -0.24782678800E+02 -0.23617792423E+04  0.23626662706E+04  0.00000000000E+00 0. -1.
         -1    1    1    2    0  501 -0.65108080982E+02 -0.18593026547E+02 -0.87442528250E+03  0.87704295079E+03  0.00000000000E+00 0.  1.
<mgrwt>
<rscale>  0 0.52494095E+02</rscale>
<asrwt>0</asrwt>
<pdfrwt beam="2">  1        2 0.54997247E+00 0.64735748E+02</pdfrwt>
<pdfrwt beam="1">  1       -1 0.22714946E-02 0.42567363E+02</pdfrwt>
<totfact> 0.60573286E+02</totfact>
</mgrwt>
</event>
<event>
 7    1  0.3113530E-004  0.6653132E+02  0.7546771E-02  0.1388148E+00
         -1   -1    0    0    0  501 -0.00000000000E+00  0.00000000000E+00  0.69938615226E+02  0.69938615226E+02  0.00000000000E+00 0.  1.
          2   -1    0    0  503    0  0.00000000000E+00 -0.00000000000E+00 -0.27926280889E+03  0.27926280889E+03  0.00000000000E+00 0. -1.
         25    2    1    2    0    0  0.69692524159E+02 -0.56015703535E+02 -0.15434781973E+03  0.21781777718E+03  0.12500611039E+03 0.  0.
          4    1    3    3  502    0  0.39005840344E+01 -0.60202366314E+02 -0.12827235635E+02  0.61690277513E+02  0.12700000000E+01 0. -1.
         -4    1    3    3    0  502  0.65791940125E+02  0.41866627789E+01 -0.14152058409E+03  0.15612749967E+03  0.12700000000E+01 0. -1.
          2    1    1    2  503    0 -0.11320265321E+02  0.59367724583E+02 -0.33463045016E+02  0.69082924886E+02  0.00000000000E+00 0. -1.
         -1    1    1    2    0  501 -0.58372258838E+02 -0.33520210479E+01 -0.21513328927E+02  0.62300722054E+02  0.00000000000E+00 0.  1.
<mgrwt>
<rscale>  0 0.62369714E+02</rscale>
<asrwt>0</asrwt>
<pdfrwt beam="2">  1        2 0.42963508E-01 0.66531316E+02</pdfrwt>
<pdfrwt beam="1">  1       -1 0.10759787E-01 0.58468424E+02</pdfrwt>
<totfact> 0.65612851E+03</totfact>
</mgrwt>
</event>
<event>
 7    1  0.3113530E-004  0.1581469E+03  0.7546771E-02  0.1199926E+00
          2   -1    0    0  502    0  0.00000000000E+00  0.00000000000E+00  0.78570252497E+03  0.78570252497E+03  0.00000000000E+00 0. -1.
          2   -1    0    0  503    0 -0.00000000000E+00 -0.00000000000E+00 -0.15633274148E+04  0.15633274148E+04  0.00000000000E+00 0. -1.
         25    2    1    2    0    0 -0.28930704963E+02 -0.27298398065E+03 -0.80802460212E+02  0.31227159922E+03  0.12500909855E+03 0.  0.
          4    1    3    3  501    0  0.31077116033E+02 -0.17759206980E+03 -0.13041924275E+02  0.18076624432E+03  0.12700000000E+01 0. -1.
         -4    1    3    3    0  501 -0.60007820996E+02 -0.95391910855E+02 -0.67760535937E+02  0.13150535490E+03  0.12700000000E+01 0. -1.
          2    1    1    2  502    0 -0.41021339890E+02  0.14812421110E+03  0.65733182791E+03  0.67506197065E+03  0.00000000000E+00 0. -1.
          2    1    1    2  503    0  0.69952044852E+02  0.12485976955E+03 -0.13541542575E+04  0.13616963699E+04  0.00000000000E+00 0. -1.
<mgrwt>
<rscale>  0 0.15044580E+03</rscale>
<asrwt>0</asrwt>
<pdfrwt beam="1">  1        2 0.12087731E+00 0.15814691E+03</pdfrwt>
<pdfrwt beam="2">  1        2 0.24051191E+00 0.14311971E+03</pdfrwt>
<totfact> 0.76951534E+01</totfact>
</mgrwt>
</event>
<event>
 7    1  0.3113530E-004  0.5833960E+02  0.7546771E-02  0.1541855E+00
          2   -1    0    0  503    0  0.00000000000E+00  0.00000000000E+00  0.25220948414E+04  0.25220948414E+04  0.00000000000E+00 0. -1.
         -1   -1    0    0    0  501 -0.00000000000E+00 -0.00000000000E+00 -0.56396246167E+01  0.56396246167E+01  0.00000000000E+00 0.  1.
         25    2    1    2    0    0  0.64193559101E+01  0.56298450239E+02  0.13536991443E+04  0.13606385144E+04  0.12500028001E+03 0.  0.
          4    1    3    3  502    0 -0.18952793905E+02 -0.21698175609E+02  0.83460008542E+03  0.83509815872E+03  0.12700000000E+01 0. -1.
         -4    1    3    3    0  502  0.25372149815E+02  0.77996625847E+02  0.51909905887E+03  0.52554035568E+03  0.12700000000E+01 0. -1.
          2    1    1    2  503    0 -0.28021511809E+02 -0.52500312293E+02  0.10748036841E+04  0.10764499279E+04  0.00000000000E+00 0. -1.
         -1    1    1    2    0  501  0.21602155899E+02 -0.37981379457E+01  0.87952388442E+02  0.90646023763E+02  0.00000000000E+00 0.  1.
<mgrwt>
<rscale>  0 0.35771390E+02</rscale>
<asrwt>0</asrwt>
<pdfrwt beam="1">  1        2 0.38801369E+00 0.58339599E+02</pdfrwt>
<pdfrwt beam="2">  1       -1 0.86763657E-03 0.21933513E+02</pdfrwt>
<totfact> 0.80437270E+03</totfact>
</mgrwt>
</event>
<event>
 7    1  0.3113530E-004  0.6318565E+02  0.7546771E-02  0.1449327E+00
          1   -1    0    0  502    0  0.00000000000E+00  0.00000000000E+00  0.11168708603E+03  0.11168708603E+03  0.00000000000E+00 0. -1.
          1   -1    0    0  503    0 -0.00000000000E+00 -0.00000000000E+00 -0.10635420400E+04  0.10635420400E+04  0.00000000000E+00 0. -1.
         25    2    1    2    0    0  0.32262823480E+02  0.94457962070E+02 -0.23905592247E+03  0.28764490356E+03  0.12501463954E+03 0.  0.
          4    1    3    3  501    0  0.79691576093E+02  0.47715905946E+02 -0.12814784638E+03  0.15827519835E+03  0.12700000000E+01 0.  1.
         -4    1    3    3    0  501 -0.47428752613E+02  0.46742056124E+02 -0.11090807609E+03  0.12936970521E+03  0.12700000000E+01 0.  1.
          1    1    1    2  502    0 -0.16507299973E+02 -0.59420468851E+02  0.75986718156E+02  0.97863498849E+02  0.00000000000E+00 0. -1.
          1    1    1    2  503    0 -0.15755523507E+02 -0.35037493218E+02 -0.78878574966E+03  0.78972072362E+03  0.00000000000E+00 0. -1.
<mgrwt>
<rscale>  0 0.49268653E+02</rscale>
<asrwt>0</asrwt>
<pdfrwt beam="1">  1        1 0.17182629E-01 0.63185647E+02</pdfrwt>
<pdfrwt beam="2">  1        1 0.16362185E+00 0.38416955E+02</pdfrwt>
<totfact> 0.57795251E+02</totfact>
</mgrwt>
</event>
<event>
 7    1  0.3113530E-004  0.6782884E+02  0.7546771E-02  0.1491499E+00
          2   -1    0    0  503    0  0.00000000000E+00  0.00000000000E+00  0.45054067843E+03  0.45054067843E+03  0.00000000000E+00 0.  1.
         -2   -1    0    0    0  501 -0.00000000000E+00 -0.00000000000E+00 -0.37559912663E+02  0.37559912663E+02  0.00000000000E+00 0. -1.
         25    2    1    2    0    0  0.66063486601E+02  0.28091849362E+02  0.21529781681E+03  0.25909631128E+03  0.12499684929E+03 0.  0.
          4    1    3    3  502    0  0.10117146013E+03  0.10041088266E+02  0.17673660654E+03  0.20389685821E+03  0.12700000000E+01 0.  1.
         -4    1    3    3    0  502 -0.35107973526E+02  0.18050761095E+02  0.38561210265E+02  0.55199453062E+02  0.12700000000E+01 0.  1.
          2    1    1    2  503    0 -0.47795991005E+02 -0.47234250625E+02  0.64242547576E+02  0.92965779227E+02  0.00000000000E+00 0. -1.
         -2    1    1    2    0  501 -0.18267495595E+02  0.19142401263E+02  0.13344040139E+03  0.13603850059E+03  0.00000000000E+00 0.  1.
<mgrwt>
<rscale>  0 0.42364524E+02</rscale>
<asrwt>0</asrwt>
<pdfrwt beam="1">  1        2 0.69313947E-01 0.67828844E+02</pdfrwt>
<pdfrwt beam="2">  1       -2 0.57784484E-02 0.26460025E+02</pdfrwt>
<totfact> 0.88629878E+03</totfact>
</mgrwt>
</event>
<event>
 7    1  0.3113530E-004  0.5207946E+02  0.7546771E-02  0.1547070E+00
         -1   -1    0    0    0  501 -0.00000000000E+00  0.00000000000E+00  0.58730935898E+02  0.58730935898E+02  0.00000000000E+00 0.  1.
          2   -1    0    0  503    0  0.00000000000E+00 -0.00000000000E+00 -0.20980073444E+03  0.20980073444E+03  0.00000000000E+00 0. -1.
         25    2    1    2    0    0  0.40467950196E+02  0.90275013783E+01 -0.85717752073E+02  0.15713805814E+03  0.12500274205E+03 0.  0.
          4    1    3    3  502    0  0.16187703913E+02 -0.52801285041E+02 -0.95406016279E+01  0.56059374232E+02  0.12700000000E+01 0. -1.
         -4    1    3    3    0  502  0.24280246283E+02  0.61828786419E+02 -0.76177150445E+02  0.10107868390E+03  0.12700000000E+01 0. -1.
          2    1    1    2  503    0  0.15079431116E+02 -0.18354958407E+02 -0.46115532085E+02  0.51874232914E+02  0.00000000000E+00 0. -1.
         -1    1    1    2    0  501 -0.55547381312E+02  0.93274570289E+01 -0.19236514385E+02  0.59519379289E+02  0.00000000000E+00 0.  1.
<mgrwt>
<rscale>  0 0.35173010E+02</rscale>
<asrwt>0</asrwt>
<pdfrwt beam="2">  1        2 0.32277035E-01 0.23754868E+02</pdfrwt>
<pdfrwt beam="1">  1       -1 0.90355288E-02 0.52079459E+02</pdfrwt>
<totfact> 0.11013982E+04</totfact>
</mgrwt>
</event>
<event>
 7    1  0.3113530E-004  0.9832515E+02  0.7546771E-02  0.1323715E+00
          1   -1    0    0  503    0  0.00000000000E+00  0.00000000000E+00  0.22539705629E+04  0.22539705629E+04  0.00000000000E+00 0. -1.
         -1   -1    0    0    0  501 -0.00000000000E+00 -0.00000000000E+00 -0.65269261166E+02  0.65269261166E+02  0.00000000000E+00 0.  1.
         25    2    1    2    0    0 -0.17108231541E+02 -0.42438686335E+02  0.61517172022E+03  0.62940996378E+03  0.12500769364E+03 0.  0.
          4    1    3    3  502    0 -0.23874954592E+01  0.44389753948E+02  0.23475812003E+03  0.23893333424E+03  0.12700000000E+01 0.  1.
         -4    1    3    3    0  502 -0.14720736082E+02 -0.86828440283E+02  0.38041360019E+03  0.39047662954E+03  0.12700000000E+01 0.  1.
          1    1    1    2  503    0  0.25977800701E+02  0.11009642042E+03  0.16089679789E+04  0.16129395602E+04  0.00000000000E+00 0. -1.
         -1    1    1    2    0  501 -0.88695691607E+01 -0.67657734088E+02 -0.35438397338E+02  0.76890300071E+02  0.00000000000E+00 0.  1.
<mgrwt>
<rscale>  0 0.81910790E+02</rscale>
<asrwt>0</asrwt>
<pdfrwt beam="1">  1        1 0.34676464E+00 0.98325154E+02</pdfrwt>
<pdfrwt beam="2">  1       -1 0.10041427E-01 0.68236634E+02</pdfrwt>
<totfact> 0.14663815E+02</totfact>
</mgrwt>
</event>
<event>
 7    1  0.3113530E-004  0.7035288E+02  0.7546771E-02  0.1364116E+00
         -2   -1    0    0    0  501 -0.00000000000E+00  0.00000000000E+00  0.31949332106E+03  0.31949332106E+03  0.00000000000E+00 0.  1.
          1   -1    0    0  503    0  0.00000000000E+00 -0.00000000000E+00 -0.13036890972E+03  0.13036890972E+03  0.00000000000E+00 0. -1.
         25    2    1    2    0    0 -0.46589051264E+02  0.11353471041E+03  0.23681199565E+03  0.29455548110E+03  0.12498935953E+03 0.  0.
          4    1    3    3  502    0  0.39770947907E+01  0.12344069001E+03  0.16223440571E+03  0.20389957462E+03  0.12700000000E+01 0. -1.
         -4    1    3    3    0  502 -0.50566146055E+02 -0.99059795988E+01  0.74577589936E+02  0.90655906477E+02  0.12700000000E+01 0. -1.
          1    1    1    2  503    0 -0.27823559278E+01 -0.67738894779E+02 -0.55363904483E+02  0.87529773734E+02  0.00000000000E+00 0. -1.
         -2    1    1    2    0  501  0.49371407192E+02 -0.45795815636E+02  0.76763201693E+01  0.67776975952E+02  0.00000000000E+00 0.  1.
<mgrwt>
<rscale>  0 0.68830400E+02</rscale>
<asrwt>0</asrwt>
<pdfrwt beam="2">  1        1 0.20056755E-01 0.70352879E+02</pdfrwt>
<pdfrwt beam="1">  1       -2 0.49152818E-01 0.67340869E+02</pdfrwt>
<totfact> 0.85336854E+02</totfact>
</mgrwt>
</event>
<event>
 7    1  0.3113530E-004  0.2498998E+03  0.7546771E-02  0.1212141E+00
          2   -1    0    0  502    0  0.00000000000E+00  0.00000000000E+00  0.18996473320E+04  0.18996473320E+04  0.00000000000E+00 0. -1.
          1   -1    0    0  503    0 -0.00000000000E+00 -0.00000000000E+00 -0.41787045716E+03  0.41787045716E+03  0.00000000000E+00 0. -1.
         25    2    1    2    0    0 -0.13910893087E+03 -0.29171432491E+03  0.13744836036E+03  0.37278270716E+03  0.12500541183E+03 0.  0.
          4    1    3    3  501    0 -0.56184542725E+02 -0.20003019820E+03  0.13750394872E+03  0.24915403237E+03  0.12700000000E+01 0.  1.
         -4    1    3    3    0  501 -0.82924388143E+02 -0.91684126710E+02 -0.55588362611E-01  0.12362867479E+03  0.12700000000E+01 0.  1.
          2    1    1    2  502    0  0.98185839467E+02  0.22363963893E+03  0.16300150716E+04  0.16482124501E+04  0.00000000000E+00 0. -1.
          1    1    1    2  503    0  0.40923091401E+02  0.68074685978E+02 -0.28568655712E+03  0.29652263185E+03  0.00000000000E+00 0. -1.
<mgrwt>
<rscale>  0 0.14088693E+03</rscale>
<asrwt>0</asrwt>
<pdfrwt beam="1">  1        2 0.29225343E+00 0.24989977E+03</pdfrwt>
<pdfrwt beam="2">  1        1 0.64287764E-01 0.79428347E+02</pdfrwt>
<totfact> 0.67691892E+01</totfact>
</mgrwt>
</event>
<event>
 7    1  0.3113530E-004  0.7613440E+02  0.7546771E-02  0.1373466E+00
          2   -1    0    0  502    0  0.00000000000E+00  0.00000000000E+00  0.73844626628E+03  0.73844626628E+03  0.00000000000E+00 0. -1.
          2   -1    0    0  503    0 -0.00000000000E+00 -0.00000000000E+00 -0.23964373422E+04  0.23964373422E+04  0.00000000000E+00 0.  1.
         25    2    1    2    0    0 -0.26516599976E+02  0.11051424955E+03 -0.72617558844E+03  0.74556787010E+03  0.12499573697E+03 0.  0.
          4    1    3    3  501    0  0.50782349487E+01  0.19065479135E+02 -0.87061849306E+01  0.21603044250E+02  0.12700000000E+01 0. -1.
         -4    1    3    3    0  501 -0.31594834925E+02  0.91448770415E+02 -0.71746940351E+03  0.72396482585E+03  0.12700000000E+01 0. -1.
          2    1    1    2  502    0  0.49532353946E+02 -0.57729538581E+02  0.72626398714E+03  0.73023662790E+03  0.00000000000E+00 0. -1.
          2    1    1    2  503    0 -0.23015753970E+02 -0.52784710969E+02 -0.16580794747E+04  0.16590791105E+04  0.00000000000E+00 0.  1.
<mgrwt>
<rscale>  0 0.66212878E+02</rscale>
<asrwt>0</asrwt>
<pdfrwt beam="1">  1        2 0.11360711E+00 0.76134396E+02</pdfrwt>
<pdfrwt beam="2">  1        2 0.36868268E+00 0.57584292E+02</pdfrwt>
<totfact> 0.35613627E+01</totfact>
</mgrwt>
</event>
<event>
 7    1  0.3113530E-004  0.6319685E+02  0.7546771E-02  0.1416305E+00
         -2   -1    0    0    0  501 -0.00000000000E+00  0.00000000000E+00  0.36589472877E+02  0.36589472877E+02  0.00000000000E+00 0.  1.
          1   -1    0    0  503    0  0.00000000000E+00 -0.00000000000E+00 -0.46793212198E+03  0.46793212198E+03  0.00000000000E+00 0. -1.
         25    2    1    2    0    0  0.65890606829E+02  0.37426376327E+02 -0.26961152719E+03  0.30668781000E+03  0.12499892597E+03 0.  0.
          4    1    3    3  502    0  0.27167991122E+02  0.30523140754E+02 -0.26375044154E+03  0.26690011273E+03  0.12700000000E+01 0.  1.
         -4    1    3    3    0  502  0.38722615707E+02  0.69032355723E+01 -0.58610856481E+01  0.39787697263E+02  0.12700000000E+01 0.  1.
          1    1    1    2  503    0 -0.61794388420E+02  0.11690436661E+02 -0.10755463893E+03  0.12459218718E+03  0.00000000000E+00 0. -1.
         -2    1    1    2    0  501 -0.40962184085E+01 -0.49116812988E+02 -0.54176482981E+02  0.73241597685E+02  0.00000000000E+00 0.  1.
<mgrwt>
<rscale>  0 0.55810424E+02</rscale>
<asrwt>0</asrwt>
<pdfrwt beam="2">  1        1 0.71989559E-01 0.63196846E+02</pdfrwt>
<pdfrwt beam="1">  1       -2 0.56291495E-02 0.49287324E+02</pdfrwt>
<totfact> 0.62479478E+03</totfact>
</mgrwt>
</event>
<event>
 7    1  0.3113530E-004  0.2830586E+02  0.7546771E-02  0.1628601E+00
          1   -1    0    0  503    0  0.00000000000E+00  0.00000000000E+00  0.40563721683E+03  0.40563721683E+03  0.00000000000E+00 0. -1.
         -1   -1    0    0    0  501 -0.00000000000E+00 -0.00000000000E+00 -0.79729899847E+02  0.79729899847E+02  0.00000000000E+00 0.  1.
         25    2    1    2    0    0 -0.31541505345E+02  0.46184063265E+01  0.18701407603E+02  0.13033850145E+03  0.12498874381E+03 0.  0.
          4    1    3    3  502    0 -0.17483494368E+02  0.46562332022E+02  0.54223577986E+02  0.73590302678E+02  0.12700000000E+01 0. -1.
         -4    1    3    3    0  502 -0.14058010976E+02 -0.41943925696E+02 -0.35522170383E+02  0.56748198774E+02  0.12700000000E+01 0. -1.
          1    1    1    2  503    0  0.10188382831E+02 -0.24512120096E+02  0.32145674158E+03  0.32255090122E+03  0.00000000000E+00 0. -1.
         -1    1    1    2    0  501  0.21353122513E+02  0.19893713770E+02 -0.14250832193E+02  0.32477714002E+02  0.00000000000E+00 0.  1.
<mgrwt>
<rscale>  0 0.27411391E+02</rscale>
<asrwt>0</asrwt>
<pdfrwt beam="1">  1        1 0.62405725E-01 0.26545191E+02</pdfrwt>
<pdfrwt beam="2">  1       -1 0.12266139E-01 0.28305855E+02</pdfrwt>
<totfact> 0.23545091E+03</totfact>
</mgrwt>
</event>
<event>
 7    1  0.3113530E-004  0.1074183E+03  0.7546771E-02  0.1277751E+00
         -1   -1    0    0    0  501 -0.00000000000E+00  0.00000000000E+00  0.44113988751E+03  0.44113988751E+03  0.00000000000E+00 0.  1.
          1   -1    0    0  503    0  0.00000000000E+00 -0.00000000000E+00 -0.20987204182E+03  0.20987204182E+03  0.00000000000E+00 0. -1.
         25    2    1    2    0    0  0.96290707004E+02 -0.45834326074E+02 -0.45930041927E+02  0.17062364218E+03  0.12502068955E+03 0.  0.
          4    1    3    3  502    0  0.12787143105E+02  0.49905827877E+01 -0.68844425241E+02  0.70211001503E+02  0.12700000000E+01 0. -1.
         -4    1    3    3    0  502  0.83503563899E+02 -0.50824908862E+02  0.22914383314E+02  0.10041264067E+03  0.12700000000E+01 0. -1.
          1    1    1    2  503    0 -0.72386645398E+02 -0.62108467294E+02 -0.68508487463E+02  0.11743381539E+03  0.00000000000E+00 0. -1.
         -1    1    1    2    0  501 -0.23904061606E+02  0.10794279337E+03  0.34570637508E+03  0.36295447177E+03  0.00000000000E+00 0.  1.
<mgrwt>
<rscale>  0 0.10122020E+03</rscale>
<asrwt>0</asrwt>
<pdfrwt beam="2">  1        1 0.32288006E-01 0.95379705E+02</pdfrwt>
<pdfrwt beam="1">  1       -1 0.67867675E-01 0.10741834E+03</pdfrwt>
<totfact> 0.31933638E+02</totfact>
</mgrwt>
</event>
<event>
 7    1  0.3113530E-004  0.1007203E+03  0.7546771E-02  0.1474439E+00
          1   -1    0    0  503    0  0.00000000000E+00  0.00000000000E+00  0.43585058612E+03  0.43585058612E+03  0.00000000000E+00 0. -1.
         -1   -1    0    0    0  501 -0.00000000000E+00 -0.00000000000E+00 -0.66320350737E+03  0.66320350737E+03  0.00000000000E+00 0.  1.
         25    2    1    2    0    0 -0.47295179006E+02 -0.70323556337E+02  0.31779393989E+02  0.15432752580E+03  0.12499927521E+03 0.  0.
          4    1    3    3  502    0  0.42277395345E+02 -0.19064155766E+02  0.19732976901E+02  0.50416499973E+02  0.12700000000E+01 0. -1.
         -4    1    3    3    0  502 -0.89572574351E+02 -0.51259400571E+02  0.12046417088E+02  0.10391102582E+03  0.12700000000E+01 0. -1.
          1    1    1    2  503    0  0.65195549413E+02  0.79446946798E+02  0.33492047270E+03  0.35033412630E+03  0.00000000000E+00 0. -1.
         -1    1    1    2    0  501 -0.17900370407E+02 -0.91233904606E+01 -0.59405278795E+03  0.59439244139E+03  0.00000000000E+00 0.  1.
<mgrwt>
<rscale>  0 0.44984446E+02</rscale>
<asrwt>0</asrwt>
<pdfrwt beam="1">  1        1 0.67053936E-01 0.10072033E+03</pdfrwt>
<pdfrwt beam="2">  1       -1 0.10203131E+00 0.20091280E+02</pdfrwt>
<totfact> 0.60087939E+01</totfact>
</mgrwt>
</event>
<event>
 7    1  0.3113530E-004  0.3622745E+02  0.7546771E-02  0.1551822E+00
          2   -1    0    0  503    0  0.00000000000E+00  0.00000000000E+00  0.94152375569E+03  0.94152375569E+03  0.00000000000E+00 0. -1.
         -1   -1    0    0    0  501 -0.00000000000E+00 -0.00000000000E+00 -0.11248558468E+02  0.11248558468E+02  0.00000000000E+00 0.  1.
         25    2    1    2    0    0  0.30796958245E+01 -0.12944509530E+02  0.54660324986E+03  0.56087110937E+03  0.12499697480E+03 0.  0.
          4    1    3    3  502    0  0.40743484031E+01  0.53186476526E+02  0.33335841632E+03  0.33760161172E+03  0.12700000000E+01 0.  1.
         -4    1    3    3    0  502 -0.99465257859E+00 -0.66130986056E+02  0.21324483354E+03  0.22326949765E+03  0.12700000000E+01 0.  1.
          2    1    1    2  503    0  0.42687342594E+01 -0.32845666209E+02  0.14104872931E+03  0.14488548554E+03  0.00000000000E+00 0. -1.
         -1    1    1    2    0  501 -0.73484300839E+01  0.45790175738E+02  0.24262321805E+03  0.24701571925E+03  0.00000000000E+00 0.  1.
<mgrwt>
<rscale>  0 0.34639885E+02</rscale>
<asrwt>0</asrwt>
<pdfrwt beam="1">  1        2 0.14484975E+00 0.33121894E+02</pdfrwt>
<pdfrwt beam="2">  1       -1 0.17305482E-02 0.36227446E+02</pdfrwt>
<totfact> 0.22933795E+04</totfact>
</mgrwt>
</event>
<event>
 7    1  0.3113530E-004  0.4499399E+02  0.7546771E-02  0.1546683E+00
          2   -1    0    0  503    0  0.00000000000E+00  0.00000000000E+00  0.48778637616E+02  0.48778637616E+02  0.00000000000E+00 0. -1.
         -1   -1    0    0    0  501 -0.00000000000E+00 -0.00000000000E+00 -0.27792243491E+03  0.27792243491E+03  0.00000000000E+00 0.  1.
         25    2    1    2    0    0 -0.38939636369E+02  0.86994980646E+01 -0.18641773625E+03  0.22796638550E+03  0.12500049592E+03 0.  0.
          4    1    3    3  502    0  0.34696344582E+02 -0.26543455243E+02 -0.35203499666E+02  0.56118540897E+02  0.12700000000E+01 0.  1.
         -4    1    3    3    0  502 -0.73635980951E+02  0.35242953308E+02 -0.15121423658E+03  0.17184784460E+03  0.12700000000E+01 0.  1.
          2    1    1    2  503    0  0.30423112432E+02 -0.34915209593E+02  0.18246147166E+01  0.46346163270E+02  0.00000000000E+00 0. -1.
         -1    1    1    2    0  501  0.85165239372E+01  0.26215711528E+02 -0.44550675762E+02  0.52388523760E+02  0.00000000000E+00 0.  1.
<mgrwt>
<rscale>  0 0.35216914E+02</rscale>
<asrwt>0</asrwt>
<pdfrwt beam="1">  1        2 0.75044057E-02 0.44993986E+02</pdfrwt>
<pdfrwt beam="2">  1       -1 0.42757298E-01 0.27564374E+02</pdfrwt>
<totfact> 0.49890732E+03</totfact>
</mgrwt>
</event>
<event>
 7    1  0.3113530E-004  0.3928350E+02  0.7546771E-02  0.1556961E+00
          2   -1    0    0  503    0  0.00000000000E+00  0.00000000000E+00  0.39958947727E+02  0.39958947727E+02  0.00000000000E+00 0. -1.
         -1   -1    0    0    0  501 -0.00000000000E+00 -0.00000000000E+00 -0.79631269158E+03  0.79631269158E+03  0.00000000000E+00 0.  1.
         25    2    1    2    0    0 -0.10128547755E+02  0.27849761713E+02 -0.73174404568E+02  0.14785550691E+03  0.12501424212E+03 0.  0.
          4    1    3    3  502    0 -0.20983510225E+02 -0.47172131974E+02 -0.38892703160E+02  0.64651163914E+02  0.12700000000E+01 0. -1.
         -4    1    3    3    0  502  0.10854962471E+02  0.75021893687E+02 -0.34281701408E+02  0.83204343000E+02  0.12700000000E+01 0. -1.
          2    1    1    2  503    0 -0.28434974317E+02 -0.35336313123E+02 -0.38362163923E+03  0.38629362521E+03  0.00000000000E+00 0. -1.
         -1    1    1    2    0  501  0.38563522072E+02  0.74865514104E+01 -0.29955770005E+03  0.30212250718E+03  0.00000000000E+00 0.  1.
<mgrwt>
<rscale>  0 0.34076165E+02</rscale>
<asrwt>0</asrwt>
<pdfrwt beam="1">  1        2 0.61475312E-02 0.29559101E+02</pdfrwt>
<pdfrwt beam="2">  1       -1 0.12250963E+00 0.39283504E+02</pdfrwt>
<totfact> 0.78715615E+02</totfact>
</mgrwt>
</event>
<event>
 7    1  0.3113530E-004  0.1520122E+03  0.7546771E-02  0.1335964E+00
          1   -1    0    0  503    0  0.00000000000E+00  0.00000000000E+00  0.64242042497E+02  0.64242042497E+02  0.00000000000E+00 0. -1.
         -1   -1    0    0    0  501 -0.00000000000E+00 -0.00000000000E+00 -0.14498661624E+04  0.14498661624E+04  0.00000000000E+00 0.  1.
         25    2    1    2    0    0  0.15674782780E+03 -0.22194371318E+02 -0.55042045542E+03  0.58621685074E+03  0.12500018685E+03 0.  0.
          4    1    3    3  502    0 -0.11680335424E+02  0.10104831104E+02 -0.14754619496E+03  0.14835777834E+03  0.12700000000E+01 0. -1.
         -4    1    3    3    0  502  0.16842816322E+03 -0.32299202421E+02 -0.40287426046E+03  0.43785907240E+03  0.12700000000E+01 0. -1.
          1    1    1    2  503    0 -0.66515576514E+01  0.39065098044E+02  0.29937274207E+02  0.49664529508E+02  0.00000000000E+00 0. -1.
         -1    1    1    2    0  501 -0.15009627015E+03 -0.16870726726E+02 -0.86514093872E+03  0.87822682468E+03  0.00000000000E+00 0.  1.
<mgrwt>
<rscale>  0 0.77613393E+02</rscale>
<asrwt>0</asrwt>
<pdfrwt beam="1">  1        1 0.98833908E-02 0.39627328E+02</pdfrwt>
<pdfrwt beam="2">  1       -1 0.22305634E+00 0.15201224E+03</pdfrwt>
<totfact> 0.71917715E+01</totfact>
</mgrwt>
</event>
<event>
 7    1  0.3113530E-004  0.8859026E+02  0.7546771E-02  0.1398512E+00
         -2   -1    0    0    0  501 -0.00000000000E+00  0.00000000000E+00  0.23421552716E+02  0.23421552716E+02  0.00000000000E+00 0.  1.
          1   -1    0    0  503    0  0.00000000000E+00 -0.00000000000E+00 -0.10876226885E+04  0.10876226885E+04  0.00000000000E+00 0. -1.
         25    2    1    2    0    0  0.11004455327E+03  0.47520956086E+02 -0.56758548906E+03  0.59340340593E+03  0.12492505677E+03 0.  0.
          4    1    3    3  502    0  0.10317906190E+03  0.61157722227E+02 -0.27025095866E+03  0.29567444828E+03  0.12700000000E+01 0.  1.
         -4    1    3    3    0  502  0.68654913633E+01 -0.13636766142E+02 -0.29733453039E+03  0.29772895766E+03  0.12700000000E+01 0.  1.
          1    1    1    2  503    0 -0.37203688513E+02 -0.15794762352E+02 -0.33627675078E+03  0.33869697677E+03  0.00000000000E+00 0. -1.
         -2    1    1    2    0  501 -0.72840864754E+02 -0.31726193734E+02 -0.16033889592E+03  0.17894385849E+03  0.00000000000E+00 0.  1.
<mgrwt>
<rscale>  0 0.59838223E+02</rscale>
<asrwt>0</asrwt>
<pdfrwt beam="2">  1        1 0.16732651E+00 0.40417681E+02</pdfrwt>
<pdfrwt beam="1">  1       -2 0.36033171E-02 0.88590260E+02</pdfrwt>
<totfact> 0.39880167E+03</totfact>
</mgrwt>
</event>
<event>
 7    1  0.3113530E-004  0.3915363E+02  0.7546771E-02  0.1561666E+00
          2   -1    0    0  503    0  0.00000000000E+00  0.00000000000E+00  0.35080032154E+03  0.35080032154E+03  0.00000000000E+00 0. -1.
         -1   -1    0    0    0  501 -0.00000000000E+00 -0.00000000000E+00 -0.32328118287E+02  0.32328118287E+02  0.00000000000E+00 0.  1.
         25    2    1    2    0    0 -0.95305984935E+00 -0.13245093647E+02  0.14476917862E+03  0.19173338560E+03  0.12500894066E+03 0.  0.
          4    1    3    3  502    0 -0.21861859542E+02  0.65953334357E+01 -0.16310204388E+02  0.28090478688E+02  0.12700000000E+01 0.  1.
         -4    1    3    3    0  502  0.20908799692E+02 -0.19840427083E+02  0.16107938301E+03  0.16364290691E+03  0.12700000000E+01 0.  1.
          2    1    1    2  503    0 -0.38654378952E+02  0.62326391516E+01  0.10070426589E+03  0.10804793367E+03  0.00000000000E+00 0. -1.
         -1    1    1    2    0  501  0.39607438802E+02  0.70124544953E+01  0.72998758738E+02  0.83347120548E+02  0.00000000000E+00 0.  1.
<mgrwt>
<rscale>  0 0.33571316E+02</rscale>
<asrwt>0</asrwt>
<pdfrwt beam="1">  1        2 0.53969278E-01 0.39153631E+02</pdfrwt>
<pdfrwt beam="2">  1       -1 0.49735569E-02 0.28784898E+02</pdfrwt>
<totfact> 0.14741039E+04</totfact>
</mgrwt>
</event>
<event>
 7    1  0.3113530E-004  0.7317086E+02  0.7546771E-02  0.1454315E+00
         -3   -1    0    0    0  501 -0.00000000000E+00  0.00000000000E+00  0.15447164870E+03  0.15447164870E+03  0.00000000000E+00 0.  1.
          1   -1    0    0  503    0  0.00000000000E+00 -0.00000000000E+00 -0.95271573961E+03  0.95271573961E+03  0.00000000000E+00 0. -1.
         25    2    1    2    0    0  0.80158948050E+02 -0.53597614270E+02 -0.33231958341E+03  0.36791429203E+03  0.12500583807E+03 0.  0.
          4    1    3    3  502    0  0.34916511982E+02  0.35350639265E+02 -0.17227825947E+03  0.17930488585E+03  0.12700000000E+01 0.  1.
         -4    1    3    3    0  502  0.45242436068E+02 -0.88948253535E+02 -0.16004132394E+03  0.18860940617E+03  0.12700000000E+01 0.  1.
          1    1    1    2  503    0 -0.66210950298E+02  0.24819196743E+02 -0.59861825072E+03  0.60277997027E+03  0.00000000000E+00 0. -1.
         -3    1    1    2    0  501 -0.13947997752E+02  0.28778417527E+02  0.13269374322E+03  0.13649312600E+03  0.00000000000E+00 0.  1.
<mgrwt>
<rscale>  0 0.48373866E+02</rscale>
<asrwt>0</asrwt>
<pdfrwt beam="2">  1        1 0.14657165E+00 0.73170855E+02</pdfrwt>
<pdfrwt beam="1">  1       -3 0.23764869E-01 0.31980368E+02</pdfrwt>
<totfact> 0.14170605E+02</totfact>
</mgrwt>
</event>
<event>
 7    1  0.3113530E-004  0.1781903E+03  0.7546771E-02  0.1180745E+00
         -1   -1    0    0    0  501 -0.00000000000E+00  0.00000000000E+00  0.95993831898E+03  0.95993831898E+03  0.00000000000E+00 0.  1.
          2   -1    0    0  503    0  0.00000000000E+00 -0.00000000000E+00 -0.28541464258E+03  0.28541464258E+03  0.00000000000E+00 0. -1.
         25    2    1    2    0    0  0.11166126134E+03 -0.35710301910E+02  0.48352328669E+03  0.51298868643E+03  0.12497664060E+03 0.  0.
          4    1    3    3  502    0  0.13009583291E+03 -0.57043684586E+02  0.42279071856E+03  0.44601851115E+03  0.12700000000E+01 0.  1.
         -4    1    3    3    0  502 -0.18434571576E+02  0.21333382676E+02  0.60732568130E+02  0.66970175282E+02  0.12700000000E+01 0.  1.
          2    1    1    2  503    0  0.17228495906E+03 -0.45493562984E+02 -0.18326360174E+03  0.25561165684E+03  0.00000000000E+00 0. -1.
         -1    1    1    2    0  501 -0.28394622039E+03  0.81203864893E+02  0.37426399145E+03  0.47675261829E+03  0.00000000000E+00 0.  1.
<mgrwt>
<rscale>  0 0.16725100E+03</rscale>
<asrwt>0</asrwt>
<pdfrwt beam="2">  1        2 0.43909945E-01 0.17819027E+03</pdfrwt>
<pdfrwt beam="1">  1       -1 0.14768282E+00 0.15698331E+03</pdfrwt>
<totfact> 0.53985770E+01</totfact>
</mgrwt>
</event>
<event>
 7    1  0.3113530E-004  0.5536993E+02  0.7546771E-02  0.1480329E+00
          1   -1    0    0  503    0 -0.00000000000E+00  0.00000000000E+00  0.33864577192E+03  0.33864577192E+03  0.00000000000E+00 0. -1.
          2   -1    0    0  502    0  0.00000000000E+00 -0.00000000000E+00 -0.23549893619E+04  0.23549893619E+04  0.00000000000E+00 0.  1.
         25    2    1    2    0    0  0.84763957427E+01  0.34347015105E+02 -0.81859294084E+03  0.82883648610E+03  0.12499580459E+03 0.  0.
          4    1    3    3  501    0 -0.27476380191E+01 -0.18736829980E+02 -0.67596978861E+03  0.67623619123E+03  0.12700000000E+01 0.  1.
         -4    1    3    3    0  501  0.11224033762E+02  0.53083845085E+02 -0.14262315223E+03  0.15260029487E+03  0.12700000000E+01 0.  1.
          2    1    1    2  502    0 -0.43233887550E+02 -0.38883336768E+02 -0.15297998141E+04  0.15309044888E+04  0.00000000000E+00 0.  1.
          1    1    1    2  503    0  0.34757491807E+02  0.45363216628E+01  0.33204916488E+03  0.33389415890E+03  0.00000000000E+00 0. -1.
<mgrwt>
<rscale>  0 0.44054983E+02</rscale>
<asrwt>0</asrwt>
<pdfrwt beam="2">  1        2 0.36230606E+00 0.55369927E+02</pdfrwt>
<pdfrwt beam="1">  1        1 0.52099349E-01 0.35052267E+02</pdfrwt>
<totfact> 0.60909607E+01</totfact>
</mgrwt>
</event>
<event>
 7    1  0.3113530E-004  0.6430187E+02  0.7546771E-02  0.1463759E+00
          2   -1    0    0  503    0  0.00000000000E+00  0.00000000000E+00  0.40053479255E+03  0.40053479255E+03  0.00000000000E+00 0. -1.
         -1   -1    0    0    0  501 -0.00000000000E+00 -0.00000000000E+00 -0.45102551928E+02  0.45102551928E+02  0.00000000000E+00 0.  1.
         25    2    1    2    0    0 -0.58260982311E+02 -0.37511226299E+02  0.11339504295E+03  0.18244780373E+03  0.12500932431E+03 0.  0.
          4    1    3    3  502    0 -0.28126533570E+01  0.22441992639E+01  0.11414050696E+03  0.11420427172E+03  0.12700000000E+01 0. -1.
         -4    1    3    3    0  502 -0.55448328954E+02 -0.39755425563E+02 -0.74546401555E+00  0.68243532017E+02  0.12700000000E+01 0. -1.
          2    1    1    2  503    0  0.30534354377E+02  0.57147082879E+02  0.11840197240E+03  0.13497097076E+03  0.00000000000E+00 0. -1.
         -1    1    1    2    0  501  0.27726627934E+02 -0.19635856579E+02  0.12363522528E+03  0.12821856999E+03  0.00000000000E+00 0.  1.
<mgrwt>
<rscale>  0 0.46740628E+02</rscale>
<asrwt>0</asrwt>
<pdfrwt beam="1">  1        2 0.61620735E-01 0.64301867E+02</pdfrwt>
<pdfrwt beam="2">  1       -1 0.69388544E-02 0.33975473E+02</pdfrwt>
<totfact> 0.81833950E+03</totfact>
</mgrwt>
</event>
<event>
 7    1  0.3113530E-004  0.5693207E+02  0.7546771E-02  0.1426964E+00
          1   -1    0    0  503    0  0.00000000000E+00  0.00000000000E+00  0.81127262620E+03  0.81127262620E+03  0.00000000000E+00 0. -1.
         -2   -1    0    0    0  501 -0.00000000000E+00 -0.00000000000E+00 -0.22269909978E+02  0.22269909978E+02  0.00000000000E+00 0.  1.
         25    2    1    2    0    0 -0.59451854114E+02 -0.14950016535E+02  0.44952412466E+03  0.47058986583E+03  0.12499942887E+03 0.  0.
          4    1    3    3  502    0 -0.55719048177E+02  0.47139182572E+02  0.29758157341E+03  0.30640352576E+03  0.12700000000E+01 0.  1.
         -4    1    3    3    0  502 -0.37328059374E+01 -0.62089199107E+02  0.15194255125E+03  0.16418634008E+03  0.12700000000E+01 0.  1.
          1    1    1    2  503    0  0.27665059839E+02  0.54081131957E+02  0.27211444325E+03  0.27881247210E+03  0.00000000000E+00 0. -1.
         -2    1    1    2    0  501  0.31786794275E+02 -0.39131115422E+02  0.67364148307E+02  0.84140198250E+02  0.00000000000E+00 0.  1.
<mgrwt>
<rscale>  0 0.53574385E+02</rscale>
<asrwt>0</asrwt>
<pdfrwt beam="1">  1        1 0.12481115E+00 0.56932071E+02</pdfrwt>
<pdfrwt beam="2">  1       -2 0.34261406E-02 0.50414725E+02</pdfrwt>
<totfact> 0.61952549E+03</totfact>
</mgrwt>
</event>
<event>
 7    1  0.3113530E-004  0.1995109E+03  0.7546771E-02  0.1261156E+00
          1   -1    0    0  503    0  0.00000000000E+00  0.00000000000E+00  0.84472201352E+02  0.84472201352E+02  0.00000000000E+00 0. -1.
         -1   -1    0    0    0  501 -0.00000000000E+00 -0.00000000000E+00 -0.24098850632E+04  0.24098850632E+04  0.00000000000E+00 0.  1.
         25    2    1    2    0    0  0.14808614703E+03 -0.91304293238E+02 -0.29046482325E+03  0.36091458076E+03  0.12499416047E+03 0.  0.
          4    1    3    3  502    0  0.11779761002E+02 -0.92624036887E+01 -0.14362714606E+03  0.14441234323E+03  0.12700000000E+01 0. -1.
         -4    1    3    3    0  502  0.13630638603E+03 -0.82041889549E+02 -0.14683767719E+03  0.21650223753E+03  0.12700000000E+01 0. -1.
          1    1    1    2  503    0 -0.20671944115E+03  0.77221663178E+02 -0.20096269823E+03  0.29846627731E+03  0.00000000000E+00 0. -1.
         -1    1    1    2    0  501  0.58633294122E+02  0.14082630060E+02 -0.18339853404E+04  0.18349764065E+04  0.00000000000E+00 0.  1.
<mgrwt>
<rscale>  0 0.10968437E+03</rscale>
<asrwt>0</asrwt>
<pdfrwt beam="1">  1        1 0.12995722E-01 0.19951087E+03</pdfrwt>
<pdfrwt beam="2">  1       -1 0.37075160E+00 0.60300777E+02</pdfrwt>
<totfact> 0.76727216E+00</totfact>
</mgrwt>
</event>
<event>
 7    1  0.3113530E-004  0.4502086E+02  0.7546771E-02  0.1507629E+00
         -3   -1    0    0    0  501 -0.00000000000E+00  0.00000000000E+00  0.19625722631E+03  0.19625722631E+03  0.00000000000E+00 0.  1.
          1   -1    0    0  503    0  0.00000000000E+00 -0.00000000000E+00 -0.75190825969E+03  0.75190825969E+03  0.00000000000E+00 0. -1.
         25    2    1    2    0    0  0.76389153078E+02 -0.14068830288E+02 -0.38562977407E+03  0.41275818634E+03  0.12500305215E+03 0.  0.
          4    1    3    3  502    0  0.52448980693E+02  0.50247236091E+02 -0.14009232028E+03  0.15780732369E+03  0.12700000000E+01 0.  1.
         -4    1    3    3    0  502  0.23940172385E+02 -0.64316066379E+02 -0.24553745379E+03  0.25495086264E+03  0.12700000000E+01 0.  1.
          1    1    1    2  503    0 -0.41360507305E+02  0.72818869857E+01 -0.34970377763E+03  0.35221648106E+03  0.00000000000E+00 0. -1.
         -3    1    1    2    0  501 -0.35028645773E+02  0.67869433021E+01  0.17968251833E+03  0.18319081859E+03  0.00000000000E+00 0.  1.
<mgrwt>
<rscale>  0 0.40079272E+02</rscale>
<asrwt>0</asrwt>
<pdfrwt beam="2">  1        1 0.11567819E+00 0.45020855E+02</pdfrwt>
<pdfrwt beam="1">  1       -3 0.30193419E-01 0.35680087E+02</pdfrwt>
<totfact> 0.13793747E+02</totfact>
</mgrwt>
</event>
<event>
 7    1  0.3113530E-004  0.5216479E+02  0.7546771E-02  0.1471095E+00
          1   -1    0    0  503    0  0.00000000000E+00  0.00000000000E+00  0.10228855486E+04  0.10228855486E+04  0.00000000000E+00 0. -1.
         -2   -1    0    0    0  501 -0.00000000000E+00 -0.00000000000E+00 -0.18084342234E+02  0.18084342234E+02  0.00000000000E+00 0.  1.
         25    2    1    2    0    0 -0.84407333406E+02 -0.22088079830E+02  0.53708254532E+03  0.55830085563E+03  0.12501881344E+03 0.  0.
          4    1    3    3  502    0 -0.91224771980E+02  0.84271240465E+01  0.50587832172E+03  0.51410841729E+03  0.12700000000E+01 0.  1.
         -4    1    3    3    0  502  0.68174385741E+01 -0.30515203877E+02  0.31204223595E+02  0.44192438341E+02  0.12700000000E+01 0.  1.
          1    1    1    2  503    0  0.45527546470E+02  0.13917030114E+02  0.40906869100E+03  0.41182961910E+03  0.00000000000E+00 0. -1.
         -2    1    1    2    0  501  0.38879786936E+02  0.81710497159E+01  0.58649970024E+02  0.70839416072E+02  0.00000000000E+00 0.  1.
<mgrwt>
<rscale>  0 0.45524297E+02</rscale>
<asrwt>0</asrwt>
<pdfrwt beam="1">  1        1 0.15736696E+00 0.52164786E+02</pdfrwt>
<pdfrwt beam="2">  1       -2 0.27822073E-02 0.39729131E+02</pdfrwt>
<totfact> 0.56652653E+03</totfact>
</mgrwt>
</event>
<event>
 7    1  0.3113530E-004  0.6123232E+02  0.7546771E-02  0.1473048E+00
          1   -1    0    0  503    0  0.00000000000E+00  0.00000000000E+00  0.12228022455E+04  0.12228022455E+04  0.00000000000E+00 0. -1.
         -2   -1    0    0    0  501 -0.00000000000E+00 -0.00000000000E+00 -0.13417668219E+02  0.13417668219E+02  0.00000000000E+00 0.  1.
         25    2    1    2    0    0  0.57338114821E+02 -0.19343565148E+02  0.47179442313E+03  0.49180976284E+03  0.12500012885E+03 0.  0.
          4    1    3    3  502    0  0.45211301396E+02 -0.46830556626E+02  0.10339736062E+03  0.12218751938E+03  0.12700000000E+01 0. -1.
         -4    1    3    3    0  502  0.12126813425E+02  0.27486991478E+02  0.36839706250E+03  0.36962224347E+03  0.12700000000E+01 0. -1.
          1    1    1    2  503    0  0.73450045573E+01  0.32558874415E+02  0.30323521668E+03  0.30506659278E+03  0.00000000000E+00 0. -1.
         -2    1    1    2    0  501 -0.64683119378E+02 -0.13215309267E+02  0.43435493746E+03  0.43934355808E+03  0.00000000000E+00 0.  1.
<mgrwt>
<rscale>  0 0.45207921E+02</rscale>
<asrwt>0</asrwt>
<pdfrwt beam="1">  1        1 0.18812333E+00 0.33377079E+02</pdfrwt>
<pdfrwt beam="2">  1       -2 0.20642576E-02 0.61232325E+02</pdfrwt>
<totfact> 0.70357828E+03</totfact>
</mgrwt>
</event>
<event>
 7    1  0.3113530E-004  0.8995136E+02  0.7546771E-02  0.1437573E+00
          2   -1    0    0  503    0  0.00000000000E+00  0.00000000000E+00  0.21825424621E+03  0.21825424621E+03  0.00000000000E+00 0. -1.
         -2   -1    0    0    0  501 -0.00000000000E+00 -0.00000000000E+00 -0.37202896927E+03  0.37202896927E+03  0.00000000000E+00 0.  1.
         25    2    1    2    0    0  0.83988029724E+02  0.14808088084E+02 -0.27793355210E+03  0.31645761426E+03  0.12500037452E+03 0.  0.
          4    1    3    3  502    0 -0.34873802735E+01  0.15588688152E+02  0.76621074791E+01  0.17762032837E+02  0.12700000000E+01 0.  1.
         -4    1    3    3    0  502  0.87475409997E+02 -0.78060006786E+00 -0.28559565958E+03  0.29869558142E+03  0.12700000000E+01 0.  1.
          2    1    1    2  503    0 -0.89151699407E+02  0.14186218624E+02  0.18521189096E+03  0.20604057576E+03  0.00000000000E+00 0. -1.
         -2    1    1    2    0  501  0.51636696833E+01 -0.28994306708E+02 -0.61053061920E+02  0.67785025454E+02  0.00000000000E+00 0.  1.
<mgrwt>
<rscale>  0 0.51469549E+02</rscale>
<asrwt>0</asrwt>
<pdfrwt beam="1">  1        2 0.33577577E-01 0.89951356E+02</pdfrwt>
<pdfrwt beam="2">  1       -2 0.57235225E-01 0.29450523E+02</pdfrwt>
<totfact> 0.44866884E+02</totfact>
</mgrwt>
</event>
<event>
 7    1  0.3113530E-004  0.4454012E+02  0.7546771E-02  0.1511758E+00
          2   -1    0    0  502    0  0.00000000000E+00  0.00000000000E+00  0.90934239751E+03  0.90934239751E+03  0.00000000000E+00 0. -1.
          2   -1    0    0  503    0 -0.00000000000E+00 -0.00000000000E+00 -0.18749660032E+04  0.18749660032E+04  0.00000000000E+00 0. -1.
         25    2    1    2    0    0 -0.75591699481E+01 -0.76904880225E+02 -0.21732623577E+03  0.26235037193E+03  0.12500209296E+03 0.  0.
          4    1    3    3  501    0 -0.61885796959E+02 -0.28169782607E+02 -0.14207620142E+03  0.15751396264E+03  0.12700000000E+01 0.  1.
         -4    1    3    3    0  501  0.54326627011E+02 -0.48735097618E+02 -0.75250034358E+02  0.10483640929E+03  0.12700000000E+01 0.  1.
          2    1    1    2  502    0  0.13554766040E+02  0.42351773485E+02  0.88608467313E+03  0.88719978153E+03  0.00000000000E+00 0. -1.
          2    1    1    2  503    0 -0.59955960918E+01  0.34553106741E+02 -0.16343820430E+04  0.16347582472E+04  0.00000000000E+00 0. -1.
<mgrwt>
<rscale>  0 0.39522098E+02</rscale>
<asrwt>0</asrwt>
<pdfrwt beam="1">  1        2 0.13989883E+00 0.44540118E+02</pdfrwt>
<pdfrwt beam="2">  1        2 0.28845630E+00 0.35069422E+02</pdfrwt>
<totfact> 0.54273165E+01</totfact>
</mgrwt>
</event>
<event>
 7    1  0.3113530E-004  0.9041314E+02  0.7546771E-02  0.1342327E+00
         -3   -1    0    0    0  501 -0.00000000000E+00  0.00000000000E+00  0.11301595508E+04  0.11301595508E+04  0.00000000000E+00 0.  1.
          1   -1    0    0  503    0  0.00000000000E+00 -0.00000000000E+00 -0.99344813588E+03  0.99344813588E+03  0.00000000000E+00 0. -1.
         25    2    1    2    0    0  0.10903667015E+03  0.72517856688E+02 -0.47489689404E+03  0.50823348598E+03  0.12500552520E+03 0.  0.
          4    1    3    3  502    0  0.38634369719E+02  0.42553945783E+02 -0.38886895210E+03  0.39309557061E+03  0.12700000000E+01 0.  1.
         -4    1    3    3    0  502  0.70402300427E+02  0.29963910904E+02 -0.86027941934E+02  0.11513791537E+03  0.12700000000E+01 0.  1.
          1    1    1    2  503    0 -0.46049214502E+02 -0.69749147139E+02 -0.49750180957E+03  0.50447351190E+03  0.00000000000E+00 0. -1.
         -3    1    1    2    0  501 -0.62987455644E+02 -0.27687095488E+01  0.11091101185E+04  0.11109006888E+04  0.00000000000E+00 0.  1.
<mgrwt>
<rscale>  0 0.75500947E+02</rscale>
<asrwt>0</asrwt>
<pdfrwt beam="2">  1        1 0.15283817E+00 0.90413143E+02</pdfrwt>
<pdfrwt beam="1">  1       -3 0.17387070E+00 0.63048278E+02</pdfrwt>
<totfact> 0.22627953E+00</totfact>
</mgrwt>
</event>
<event>
 7    1  0.3113530E-004  0.5230185E+02  0.7546771E-02  0.1499142E+00
         -1   -1    0    0    0  501 -0.00000000000E+00  0.00000000000E+00  0.23715960589E+02  0.23715960589E+02  0.00000000000E+00 0.  1.
          2   -1    0    0  503    0  0.00000000000E+00 -0.00000000000E+00 -0.52867515118E+03  0.52867515118E+03  0.00000000000E+00 0. -1.
         25    2    1    2    0    0 -0.42864636161E+02  0.51317616408E+01 -0.27617646207E+03  0.30621352670E+03  0.12501829355E+03 0.  0.
          4    1    3    3  502    0 -0.68556383503E+02 -0.33371485806E+02 -0.11101185395E+03  0.13468065341E+03  0.12700000000E+01 0.  1.
         -4    1    3    3    0  502  0.25691747342E+02  0.38503247447E+02 -0.16516460812E+03  0.17153287329E+03  0.12700000000E+01 0.  1.
          2    1    1    2  503    0  0.50776332101E+02  0.26440609824E+02 -0.16345817928E+03  0.17319329699E+03  0.00000000000E+00 0. -1.
         -1    1    1    2    0  501 -0.79116959401E+01 -0.31572371465E+02 -0.65324549237E+02  0.72984288073E+02  0.00000000000E+00 0.  1.
<mgrwt>
<rscale>  0 0.41259552E+02</rscale>
<asrwt>0</asrwt>
<pdfrwt beam="2">  1        2 0.81334639E-01 0.52301852E+02</pdfrwt>
<pdfrwt beam="1">  1       -1 0.36486093E-02 0.32548573E+02</pdfrwt>
<totfact> 0.15159386E+04</totfact>
</mgrwt>
</event>
<event>
 7    1  0.3113530E-004  0.9144235E+02  0.7546771E-02  0.1463063E+00
          1   -1    0    0  503    0 -0.00000000000E+00  0.00000000000E+00  0.19511638560E+03  0.19511638560E+03  0.00000000000E+00 0. -1.
          2   -1    0    0  502    0  0.00000000000E+00 -0.00000000000E+00 -0.53284380102E+03  0.53284380102E+03  0.00000000000E+00 0. -1.
         25    2    1    2    0    0 -0.10299580317E+02  0.71984620692E+02 -0.66340561523E+02  0.15910567045E+03  0.12500270915E+03 0.  0.
          4    1    3    3  501    0 -0.26129695268E+02 -0.27981663458E+02 -0.38083153340E+02  0.54015497156E+02  0.12700000000E+01 0.  1.
         -4    1    3    3    0  501  0.15830114950E+02  0.99966284149E+02 -0.28257408183E+02  0.10509017330E+03  0.12700000000E+01 0.  1.
          2    1    1    2  502    0 -0.15391626148E+02  0.18430207444E+02 -0.40487923037E+03  0.40559063832E+03  0.00000000000E+00 0. -1.
          1    1    1    2  503    0  0.25691206465E+02 -0.90414828136E+02  0.13349237648E+03  0.16326387786E+03  0.00000000000E+00 0. -1.
<mgrwt>
<rscale>  0 0.46858413E+02</rscale>
<asrwt>0</asrwt>
<pdfrwt beam="2">  1        2 0.81975968E-01 0.24011970E+02</pdfrwt>
<pdfrwt beam="1">  1        1 0.30017906E-01 0.91442347E+02</pdfrwt>
<totfact> 0.12164423E+03</totfact>
</mgrwt>
</event>
<event>
 7    1  0.3113530E-004  0.7429978E+02  0.7546771E-02  0.1433130E+00
          1   -1    0    0  503    0 -0.00000000000E+00  0.00000000000E+00  0.13922459418E+04  0.13922459418E+04  0.00000000000E+00 0. -1.
          2   -1    0    0  502    0  0.00000000000E+00 -0.00000000000E+00 -0.11392091244E+04  0.11392091244E+04  0.00000000000E+00 0.  1.
         25    2    1    2    0    0  0.88621468225E+02 -0.52694977465E+02  0.50111630610E+02  0.16960831981E+03  0.12500112538E+03 0.  0.
          4    1    3    3  501    0  0.44670678888E+02 -0.59801058975E+02  0.84928169280E+02  0.11307538655E+03  0.12700000000E+01 0.  1.
         -4    1    3    3    0  501  0.43950789336E+02  0.71060815108E+01 -0.34816538670E+02  0.56532933257E+02  0.12700000000E+01 0.  1.
          2    1    1    2  502    0 -0.17624324429E+02  0.32380392477E+02 -0.10780823315E+04  0.10787124826E+04  0.00000000000E+00 0.  1.
          1    1    1    2  503    0 -0.70997143795E+02  0.20314584988E+02  0.12810075183E+04  0.12831342637E+04  0.00000000000E+00 0. -1.
<mgrwt>
<rscale>  0 0.52336798E+02</rscale>
<asrwt>0</asrwt>
<pdfrwt beam="2">  1        2 0.17526294E+00 0.36866063E+02</pdfrwt>
<pdfrwt beam="1">  1        1 0.21419168E+00 0.74299782E+02</pdfrwt>
<totfact> 0.31805093E+01</totfact>
</mgrwt>
</event>
<event>
 7    1  0.3113530E-004  0.5598662E+02  0.7546771E-02  0.1446637E+00
          3   -1    0    0  503    0 -0.00000000000E+00  0.00000000000E+00  0.64601959025E+02  0.64601959025E+02  0.00000000000E+00 0. -1.
          2   -1    0    0  502    0  0.00000000000E+00 -0.00000000000E+00 -0.50437530637E+03  0.50437530637E+03  0.00000000000E+00 0. -1.
         25    2    1    2    0    0 -0.60926711844E+02  0.76487272566E+02 -0.11210024222E+03  0.19430184650E+03  0.12499750463E+03 0.  0.
          4    1    3    3  501    0 -0.51402049222E+02  0.78462582556E+02 -0.13785288058E+03  0.16674404670E+03  0.12700000000E+01 0.  1.
         -4    1    3    3    0  501 -0.95246626220E+01 -0.19753099898E+01  0.25752638354E+02  0.27557799800E+02  0.12700000000E+01 0.  1.
          2    1    1    2  502    0  0.31028885180E+02 -0.43896545178E+02 -0.32601513605E+03  0.33041726245E+03  0.00000000000E+00 0. -1.
          3    1    1    2  503    0  0.29897826664E+02 -0.32590727388E+02 -0.16579690773E+01  0.44258156450E+02  0.00000000000E+00 0. -1.
<mgrwt>
<rscale>  0 0.49760682E+02</rscale>
<asrwt>0</asrwt>
<pdfrwt beam="2">  1        2 0.77596200E-01 0.55986623E+02</pdfrwt>
<pdfrwt beam="1">  1        3 0.99387631E-02 0.44227091E+02</pdfrwt>
<totfact> 0.24038457E+03</totfact>
</mgrwt>
</event>
<event>
 7    1  0.3113530E-004  0.5759189E+02  0.7546771E-02  0.1520535E+00
          1   -1    0    0  503    0  0.00000000000E+00  0.00000000000E+00  0.63214659402E+03  0.63214659402E+03  0.00000000000E+00 0. -1.
          1   -1    0    0  502    0 -0.00000000000E+00 -0.00000000000E+00 -0.98720723382E+02  0.98720723382E+02  0.00000000000E+00 0. -1.
         25    2    1    2    0    0  0.14285187483E+02  0.31553928164E+02  0.44040701812E+03  0.45910817541E+03  0.12498903213E+03 0.  0.
          4    1    3    3  501    0  0.49540371111E+00 -0.44688821602E+02  0.93336595851E+02  0.10349236313E+03  0.12700000000E+01 0. -1.
         -4    1    3    3    0  501  0.13789783772E+02  0.76242749766E+02  0.34707042227E+03  0.35561581228E+03  0.12700000000E+01 0. -1.
          1    1    1    2  502    0 -0.35261590373E+02 -0.46173040565E+02 -0.78881651492E+02  0.97967567964E+02  0.00000000000E+00 0. -1.
          1    1    1    2  503    0  0.20976402890E+02  0.14619112401E+02  0.17190050401E+03  0.17379157403E+03  0.00000000000E+00 0. -1.
<mgrwt>
<rscale>  0 0.38373369E+02</rscale>
<asrwt>0</asrwt>
<pdfrwt beam="1">  1        1 0.97253320E-01 0.25568104E+02</pdfrwt>
<pdfrwt beam="2">  1        1 0.15187804E-01 0.57591892E+02</pdfrwt>
<totfact> 0.14510869E+03</totfact>
</mgrwt>
</event>
<event>
 7    1  0.3113530E-004  0.6586527E+02  0.7546771E-02  0.1419265E+00
          1   -1    0    0  503    0 -0.00000000000E+00  0.00000000000E+00  0.10245101756E+03  0.10245101756E+03  0.00000000000E+00 0. -1.
          2   -1    0    0  502    0  0.00000000000E+00 -0.00000000000E+00 -0.60897485956E+03  0.60897485956E+03  0.00000000000E+00 0. -1.
         25    2    1    2    0    0  0.65713902483E+01 -0.10156735333E+03 -0.60316602470E+02  0.17212494813E+03  0.12501917774E+03 0.  0.
          4    1    3    3  501    0  0.59995719911E+02 -0.44168771181E+02 -0.22533075985E+01  0.74545670903E+02  0.12700000000E+01 0.  1.
         -4    1    3    3    0  501 -0.53424329663E+02 -0.57398582146E+02 -0.58063294871E+02  0.97579277224E+02  0.12700000000E+01 0.  1.
          2    1    1    2  502    0  0.12478881530E+02  0.44506296581E+02 -0.47170425263E+03  0.47396353749E+03  0.00000000000E+00 0. -1.
          1    1    1    2  503    0 -0.19050271778E+02  0.57061056745E+02  0.25497013102E+02  0.65337391506E+02  0.00000000000E+00 0. -1.
<mgrwt>
<rscale>  0 0.55176691E+02</rscale>
<asrwt>0</asrwt>
<pdfrwt beam="2">  1        2 0.93688442E-01 0.46222645E+02</pdfrwt>
<pdfrwt beam="1">  1        1 0.15761695E-01 0.65865274E+02</pdfrwt>
<totfact> 0.23026638E+03</totfact>
</mgrwt>
</event>
<event>
 7    1  0.3113530E-004  0.5374943E+02  0.7546771E-02  0.1442533E+00
          2   -1    0    0  502    0  0.00000000000E+00  0.00000000000E+00  0.26943437279E+02  0.26943437279E+02  0.00000000000E+00 0.  1.
          1   -1    0    0  503    0 -0.00000000000E+00 -0.00000000000E+00 -0.20388760731E+04  0.20388760731E+04  0.00000000000E+00 0. -1.
         25    2    1    2    0    0 -0.72390429804E+02 -0.24223718037E+00 -0.79244256508E+03  0.80550127089E+03  0.12500658165E+03 0.  0.
          4    1    3    3  501    0 -0.67595693111E+02  0.56118550200E+02 -0.47700222574E+03  0.48502701540E+03  0.12700000000E+01 0. -1.
         -4    1    3    3    0  501 -0.47947366934E+01 -0.56360787381E+02 -0.31544033934E+03  0.32047425550E+03  0.12700000000E+01 0. -1.
          2    1    1    2  502    0  0.40392046732E+02  0.35337605309E+02 -0.16155736003E+02  0.56047048040E+02  0.00000000000E+00 0.  1.
          1    1    1    2  503    0  0.31998383072E+02 -0.35095368129E+02 -0.12033343347E+04  0.12042711914E+04  0.00000000000E+00 0. -1.
<mgrwt>
<rscale>  0 0.50524444E+02</rscale>
<asrwt>0</asrwt>
<pdfrwt beam="1">  1        2 0.41451432E-02 0.53749426E+02</pdfrwt>
<pdfrwt beam="2">  1        1 0.31367332E+00 0.47492961E+02</pdfrwt>
<totfact> 0.92917666E+02</totfact>
</mgrwt>
</event>
<event>
 7    1  0.3113530E-004  0.1057276E+03  0.7546771E-02  0.1355518E+00
          2   -1    0    0  502    0  0.00000000000E+00  0.00000000000E+00  0.20300605222E+04  0.20300605222E+04  0.00000000000E+00 0. -1.
          1   -1    0    0  503    0 -0.00000000000E+00 -0.00000000000E+00 -0.20430398585E+03  0.20430398585E+03  0.00000000000E+00 0. -1.
         25    2    1    2    0    0 -0.69349733785E+02 -0.24141003325E+02  0.34658636633E+03  0.37571577829E+03  0.12509221844E+03 0.  0.
          4    1    3    3  501    0 -0.56945829718E+02 -0.45176423021E+02  0.80347198929E+02  0.10835599658E+03  0.12700000000E+01 0. -1.
         -4    1    3    3    0  501 -0.12403904067E+02  0.21035419696E+02  0.26623916740E+03  0.26735978171E+03  0.12700000000E+01 0. -1.
          2    1    1    2  502    0 -0.37809356679E+02  0.29842991659E+02  0.16533576959E+04  0.16540591955E+04  0.00000000000E+00 0. -1.
          1    1    1    2  503    0  0.10715909046E+03 -0.57019883347E+01 -0.17418752590E+03  0.20458953424E+03  0.00000000000E+00 0. -1.
<mgrwt>
<rscale>  0 0.71363036E+02</rscale>
<asrwt>0</asrwt>
<pdfrwt beam="1">  1        2 0.31231699E+00 0.48167952E+02</pdfrwt>
<pdfrwt beam="2">  1        1 0.31431384E-01 0.10572762E+03</pdfrwt>
<totfact> 0.16660664E+02</totfact>
</mgrwt>
</event>
<event>
 7    1  0.3113530E-004  0.4999010E+02  0.7546771E-02  0.1550537E+00
          2   -1    0    0  502    0  0.00000000000E+00  0.00000000000E+00  0.48660479956E+03  0.48660479956E+03  0.00000000000E+00 0. -1.
          2   -1    0    0  503    0 -0.00000000000E+00 -0.00000000000E+00 -0.10497746871E+03  0.10497746871E+03  0.00000000000E+00 0. -1.
         25    2    1    2    0    0  0.87381129300E+01  0.56517621062E+02  0.45021601295E+03  0.47073267461E+03  0.12499678603E+03 0.  0.
          4    1    3    3  501    0 -0.11477014693E+02  0.59888408101E+02  0.44551155413E+03  0.44966710025E+03  0.12700000000E+01 0. -1.
         -4    1    3    3    0  501  0.20215127623E+02 -0.33707870388E+01  0.47044588282E+01  0.21065574356E+02  0.12700000000E+01 0. -1.
          2    1    1    2  502    0  0.82573940289E+01 -0.39287392788E+02  0.76443283989E+01  0.40867096115E+02  0.00000000000E+00 0. -1.
          2    1    1    2  503    0 -0.16995506959E+02 -0.17230228274E+02 -0.76233010506E+02  0.79982497548E+02  0.00000000000E+00 0. -1.
<mgrwt>
<rscale>  0 0.34782917E+02</rscale>
<asrwt>0</asrwt>
<pdfrwt beam="1">  1        2 0.74862276E-01 0.49990098E+02</pdfrwt>
<pdfrwt beam="2">  1        2 0.16150380E-01 0.24201819E+02</pdfrwt>
<totfact> 0.32001675E+03</totfact>
</mgrwt>
</event>
<event>
 7    1  0.3113530E-004  0.1061267E+03  0.7546771E-02  0.1433466E+00
          2   -1    0    0  502    0  0.00000000000E+00  0.00000000000E+00  0.15610383221E+04  0.15610383221E+04  0.00000000000E+00 0. -1.
          1   -1    0    0  503    0 -0.00000000000E+00 -0.00000000000E+00 -0.47264338140E+03  0.47264338140E+03  0.00000000000E+00 0. -1.
         25    2    1    2    0    0  0.53214246049E+01  0.12946079966E+03  0.32714174230E+03  0.37341283516E+03  0.12500803854E+03 0.  0.
          4    1    3    3  501    0 -0.40442907574E+02 -0.22278100695E+01  0.68601050305E+02  0.79676275727E+02  0.12700000000E+01 0.  1.
         -4    1    3    3    0  501  0.45764332179E+02  0.13168860973E+03  0.25854069199E+03  0.29373655943E+03  0.12700000000E+01 0.  1.
          2    1    1    2  502    0 -0.56147011211E+01 -0.10371768577E+03  0.12081621860E+04  0.12126189636E+04  0.00000000000E+00 0. -1.
          1    1    1    2  503    0  0.29327651613E+00 -0.25743113890E+02 -0.44690898765E+03  0.44764990468E+03  0.00000000000E+00 0. -1.
<mgrwt>
<rscale>  0 0.52270526E+02</rscale>
<asrwt>0</asrwt>
<pdfrwt beam="1">  1        2 0.24015974E+00 0.10612665E+03</pdfrwt>
<pdfrwt beam="2">  1        1 0.72714367E-01 0.25744784E+02</pdfrwt>
<totfact> 0.95602356E+01</totfact>
</mgrwt>
</event>
<event>
 7    1  0.3113530E-004  0.9632685E+02  0.7546771E-02  0.1381379E+00
          1   -1    0    0  503    0 -0.00000000000E+00  0.00000000000E+00  0.91022734624E+03  0.91022734624E+03  0.00000000000E+00 0. -1.
          2   -1    0    0  502    0  0.00000000000E+00 -0.00000000000E+00 -0.12140273181E+04  0.12140273181E+04  0.00000000000E+00 0. -1.
         25    2    1    2    0    0  0.61492245441E+02  0.10197508995E+03 -0.91327400764E+03  0.92944451311E+03  0.12496989512E+03 0.  0.
          4    1    3    3  501    0 -0.31570806669E+02  0.59932193368E+02 -0.28629623258E+03  0.29420355084E+03  0.12700000000E+01 0.  1.
         -4    1    3    3    0  501  0.93063052110E+02  0.42042896581E+02 -0.62697777506E+03  0.63524096227E+03  0.12700000000E+01 0.  1.
          2    1    1    2  502    0 -0.54997817776E+02 -0.59814075122E+02 -0.28651089584E+03  0.29781030368E+03  0.00000000000E+00 0. -1.
          1    1    1    2  503    0 -0.64944276644E+01 -0.42161014827E+02  0.89598493164E+03  0.89699984754E+03  0.00000000000E+00 0. -1.
<mgrwt>
<rscale>  0 0.64102556E+02</rscale>
<asrwt>0</asrwt>
<pdfrwt beam="2">  1        2 0.18677343E+00 0.96326851E+02</pdfrwt>
<pdfrwt beam="1">  1        1 0.14003498E+00 0.42658279E+02</pdfrwt>
<totfact> 0.60079756E+01</totfact>
</mgrwt>
</event>
<event>
 7    1  0.3113530E-004  0.4349988E+02  0.7546771E-02  0.1496655E+00
          2   -1    0    0  502    0  0.00000000000E+00  0.00000000000E+00  0.13698217613E+04  0.13698217613E+04  0.00000000000E+00 0. -1.
          2   -1    0    0  503    0 -0.00000000000E+00 -0.00000000000E+00 -0.43089082978E+03  0.43089082978E+03  0.00000000000E+00 0. -1.
         25    2    1    2    0    0 -0.76687963628E+02  0.28945061242E+01  0.30030300582E+03  0.33420831474E+03  0.12499552155E+03 0.  0.
          4    1    3    3  501    0 -0.10525232673E+03  0.19919730962E+02  0.18076573463E+03  0.21012546652E+03  0.12700000000E+01 0.  1.
         -4    1    3    3    0  501  0.28564363101E+02 -0.17025224838E+02  0.11953727119E+03  0.12408284823E+03  0.12700000000E+01 0.  1.
          2    1    1    2  502    0  0.40510135772E+02  0.13721101014E+02  0.10511729868E+04  0.10520427690E+04  0.00000000000E+00 0. -1.
          2    1    1    2  503    0  0.36177827856E+02 -0.16615607138E+02 -0.41254506108E+03  0.41446150732E+03  0.00000000000E+00 0. -1.
<mgrwt>
<rscale>  0 0.41614570E+02</rscale>
<asrwt>0</asrwt>
<pdfrwt beam="1">  1        2 0.21074181E+00 0.43499876E+02</pdfrwt>
<pdfrwt beam="2">  1        2 0.66290897E-01 0.39810974E+02</pdfrwt>
<totfact> 0.21349475E+02</totfact>
</mgrwt>
</event>
<event>
 7    1  0.3113530E-004  0.7714962E+02  0.7546771E-02  0.1362921E+00
          1   -1    0    0  502    0  0.00000000000E+00  0.00000000000E+00  0.11522989062E+04  0.11522989062E+04  0.00000000000E+00 0. -1.
          3   -1    0    0  503    0 -0.00000000000E+00 -0.00000000000E+00 -0.10548369066E+03  0.10548369066E+03  0.00000000000E+00 0. -1.
         25    2    1    2    0    0  0.56655338111E+01  0.19607161464E+02  0.28598784516E+03  0.31277883285E+03  0.12500004660E+03 0.  0.
          4    1    3    3  501    0  0.30614442825E+01 -0.51149057054E+02  0.16290132527E+03  0.17077486101E+03  0.12700000000E+01 0.  1.
         -4    1    3    3    0  501  0.26040895286E+01  0.70756218518E+02  0.12308651989E+03  0.14200397184E+03  0.12700000000E+01 0.  1.
          1    1    1    2  502    0 -0.12767223809E+02  0.60696317074E+02  0.83389672468E+03  0.83620021068E+03  0.00000000000E+00 0. -1.
          3    1    1    2  503    0  0.71016899981E+01 -0.80303478539E+02 -0.73069354332E+02  0.10880355329E+03  0.00000000000E+00 0. -1.
<mgrwt>
<rscale>  0 0.69174928E+02</rscale>
<asrwt>0</asrwt>
<pdfrwt beam="1">  1        1 0.17727675E+00 0.62024551E+02</pdfrwt>
<pdfrwt beam="2">  1        3 0.16228261E-01 0.77149622E+02</pdfrwt>
<totfact> 0.22243567E+02</totfact>
</mgrwt>
</event>
<event>
 7    1  0.3113530E-004  0.7203445E+02  0.7546771E-02  0.1408707E+00
          3   -1    0    0  503    0 -0.00000000000E+00  0.00000000000E+00  0.60424093944E+03  0.60424093944E+03  0.00000000000E+00 0. -1.
          2   -1    0    0  502    0  0.00000000000E+00 -0.00000000000E+00 -0.75615498551E+03  0.75615498551E+03  0.00000000000E+00 0. -1.
         25    2    1    2    0    0 -0.81672362829E+02  0.41520957923E+02 -0.44935365977E+02  0.16136469822E+03  0.12500005568E+03 0.  0.
          4    1    3    3  501    0 -0.75055084531E+02  0.70224041814E+02 -0.68581261159E+02  0.12357056302E+03  0.12700000000E+01 0. -1.
         -4    1    3    3    0  501 -0.66172782980E+01 -0.28703083891E+02  0.23645895182E+02  0.37794135205E+02  0.12700000000E+01 0. -1.
          2    1    1    2  502    0  0.98955510974E+01 -0.44791425334E+02 -0.64982921904E+03  0.65144624309E+03  0.00000000000E+00 0. -1.
          3    1    1    2  503    0  0.71776811731E+02  0.32704674116E+01  0.54285053895E+03  0.54758498363E+03  0.00000000000E+00 0. -1.
<mgrwt>
<rscale>  0 0.57483282E+02</rscale>
<asrwt>0</asrwt>
<pdfrwt beam="2">  1        2 0.11633154E+00 0.45871491E+02</pdfrwt>
<pdfrwt beam="1">  1        3 0.92960144E-01 0.72034450E+02</pdfrwt>
<totfact> 0.26293067E+01</totfact>
</mgrwt>
</event>
<event>
 7    1  0.3113530E-004  0.1386683E+03  0.7546771E-02  0.1365059E+00
         -3   -1    0    0    0  501 -0.00000000000E+00  0.00000000000E+00  0.52865502475E+03  0.52865502475E+03  0.00000000000E+00 0.  1.
          1   -1    0    0  503    0  0.00000000000E+00 -0.00000000000E+00 -0.53069326597E+03  0.53069326597E+03  0.00000000000E+00 0. -1.
         25    2    1    2    0    0  0.10917000271E+03  0.25620975235E+02  0.80202746341E+01  0.16812474112E+03  0.12500831935E+03 0.  0.
          4    1    3    3  502    0  0.84067576370E+02  0.58393289423E+02 -0.35290639043E+02  0.10827823304E+03  0.12700000000E+01 0.  1.
         -4    1    3    3    0  502  0.25102426342E+02 -0.32772314188E+02  0.43310913677E+02  0.59846508077E+02  0.12700000000E+01 0.  1.
          1    1    1    2  503    0 -0.14135853506E+03 -0.14993725690E+02 -0.43874514734E+03  0.46119881999E+03  0.00000000000E+00 0. -1.
         -3    1    1    2    0  501  0.32188532349E+02 -0.10627249545E+02  0.42868663149E+03  0.43002472960E+03  0.00000000000E+00 0.  1.
<mgrwt>
<rscale>  0 0.68560240E+02</rscale>
<asrwt>0</asrwt>
<pdfrwt beam="2">  1        1 0.81645118E-01 0.13866826E+03</pdfrwt>
<pdfrwt beam="1">  1       -3 0.81331542E-01 0.33897493E+02</pdfrwt>
<totfact> 0.31154358E+01</totfact>
</mgrwt>
</event>
<event>
 7    1  0.3113530E-004  0.8578576E+02  0.7546771E-02  0.1383405E+00
          2   -1    0    0  503    0  0.00000000000E+00  0.00000000000E+00  0.95057640811E+03  0.95057640811E+03  0.00000000000E+00 0.  1.
         -1   -1    0    0    0  501 -0.00000000000E+00 -0.00000000000E+00 -0.15892051952E+03  0.15892051952E+03  0.00000000000E+00 0.  1.
         25    2    1    2    0    0  0.50327506380E+02  0.11812025166E+03  0.27131700613E+03  0.32515035771E+03  0.12499834220E+03 0.  0.
          4    1    3    3  502    0  0.91588309418E+02  0.82324466025E+02  0.16840024065E+03  0.20862883328E+03  0.12700000000E+01 0.  1.
         -4    1    3    3    0  502 -0.41260803039E+02  0.35795785637E+02  0.10291676549E+03  0.11652152443E+03  0.12700000000E+01 0.  1.
          2    1    1    2  503    0 -0.29357701778E+02 -0.36854037472E+02  0.63804526621E+03  0.63978266346E+03  0.00000000000E+00 0.  1.
         -1    1    1    2    0  501 -0.20969804602E+02 -0.81266214190E+02 -0.11770638376E+03  0.14456390646E+03  0.00000000000E+00 0.  1.
<mgrwt>
<rscale>  0 0.63577066E+02</rscale>
<asrwt>0</asrwt>
<pdfrwt beam="1">  1        2 0.14624252E+00 0.47117881E+02</pdfrwt>
<pdfrwt beam="2">  1       -1 0.24449311E-01 0.85785760E+02</pdfrwt>
<totfact> 0.49401099E+02</totfact>
</mgrwt>
</event>
<event>
 7    1  0.3113530E-004  0.1879334E+03  0.7546771E-02  0.1386250E+00
          2   -1    0    0  503    0  0.00000000000E+00  0.00000000000E+00  0.26969365389E+03  0.26969365389E+03  0.00000000000E+00 0. -1.
         -1   -1    0    0    0  501 -0.00000000000E+00 -0.00000000000E+00 -0.42742134745E+03  0.42742134745E+03  0.00000000000E+00 0.  1.
         25    2    1    2    0    0  0.74321164061E+02  0.17360371775E+03 -0.70813181510E+02  0.23729552692E+03  0.12503109284E+03 0.  0.
          4    1    3    3  502    0  0.76016206115E+02  0.99922060657E+02  0.12354924806E+02  0.12616314385E+03  0.12700000000E+01 0. -1.
         -4    1    3    3    0  502 -0.16950420542E+01  0.73681657094E+02 -0.83168106315E+02  0.11113238307E+03  0.12700000000E+01 0. -1.
          2    1    1    2  503    0 -0.54274890421E+02 -0.17992106212E+03  0.13848470428E+03  0.23344242469E+03  0.00000000000E+00 0. -1.
         -1    1    1    2    0  501 -0.20046273640E+02  0.63173443679E+01 -0.22539921633E+03  0.22637704974E+03  0.00000000000E+00 0.  1.
<mgrwt>
<rscale>  0 0.62849100E+02</rscale>
<asrwt>0</asrwt>
<pdfrwt beam="1">  1        2 0.41491331E-01 0.18793341E+03</pdfrwt>
<pdfrwt beam="2">  1       -1 0.65757130E-01 0.21018133E+02</pdfrwt>
<totfact> 0.35653784E+02</totfact>
</mgrwt>
</event>
<event>
 7    1  0.3113530E-004  0.1051462E+03  0.7546771E-02  0.1305471E+00
          1   -1    0    0  503    0 -0.00000000000E+00  0.00000000000E+00  0.22366949251E+03  0.22366949251E+03  0.00000000000E+00 0. -1.
          2   -1    0    0  502    0  0.00000000000E+00 -0.00000000000E+00 -0.24423049121E+04  0.24423049121E+04  0.00000000000E+00 0. -1.
         25    2    1    2    0    0 -0.34433382878E+02  0.10291556078E+03 -0.79706168425E+02  0.18372015373E+03  0.12499100405E+03 0.  0.
          4    1    3    3  501    0  0.37906141742E+02  0.30160617767E+02 -0.63445517239E+02  0.79834109274E+02  0.12700000000E+01 0. -1.
         -4    1    3    3    0  501 -0.72339524620E+02  0.72754943015E+02 -0.16260651185E+02  0.10388604445E+03  0.12700000000E+01 0. -1.
          2    1    1    2  502    0  0.75143543035E+02 -0.31610923277E+01 -0.22930086028E+04  0.22942417042E+04  0.00000000000E+00 0. -1.
          1    1    1    2  503    0 -0.40710160157E+02 -0.99754468455E+02  0.15407935165E+03  0.18801254671E+03  0.00000000000E+00 0. -1.
<mgrwt>
<rscale>  0 0.88927189E+02</rscale>
<asrwt>0</asrwt>
<pdfrwt beam="2">  1        2 0.37573919E+00 0.75210003E+02</pdfrwt>
<pdfrwt beam="1">  1        1 0.34410694E-01 0.10514619E+03</pdfrwt>
<totfact> 0.87449247E+01</totfact>
</mgrwt>
</event>
<event>
 7    1  0.3113530E-004  0.3810208E+02  0.7546771E-02  0.1523516E+00
         -1   -1    0    0    0  501 -0.00000000000E+00  0.00000000000E+00  0.33169090862E+02  0.33169090862E+02  0.00000000000E+00 0.  1.
          2   -1    0    0  503    0  0.00000000000E+00 -0.00000000000E+00 -0.39864352500E+03  0.39864352500E+03  0.00000000000E+00 0. -1.
         25    2    1    2    0    0 -0.17079077127E+02 -0.38638754349E+02 -0.27712076296E+03  0.30693567101E+03  0.12501576165E+03 0.  0.
          4    1    3    3  502    0 -0.35238485161E+02  0.21053450174E+02 -0.21497959437E+03  0.21886716861E+03  0.12700000000E+01 0.  1.
         -4    1    3    3    0  502  0.18159408033E+02 -0.59692204523E+02 -0.62141168595E+02  0.88068502402E+02  0.12700000000E+01 0.  1.
          2    1    1    2  503    0 -0.20891529462E+02  0.35476267991E+02 -0.72976406158E+02  0.83788886194E+02  0.00000000000E+00 0. -1.
         -1    1    1    2    0  501  0.37970606590E+02  0.31624863580E+01 -0.15377265015E+02  0.41088058656E+02  0.00000000000E+00 0.  1.
<mgrwt>
<rscale>  0 0.37993773E+02</rscale>
<asrwt>0</asrwt>
<pdfrwt beam="2">  1        2 0.61329772E-01 0.37885776E+02</pdfrwt>
<pdfrwt beam="1">  1       -1 0.51029371E-02 0.38102077E+02</pdfrwt>
<totfact> 0.12940303E+04</totfact>
</mgrwt>
</event>
<event>
 7    1  0.3113530E-004  0.8021927E+02  0.7546771E-02  0.1343299E+00
          1   -1    0    0  503    0 -0.00000000000E+00  0.00000000000E+00  0.10586671444E+04  0.10586671444E+04  0.00000000000E+00 0. -1.
          2   -1    0    0  502    0  0.00000000000E+00 -0.00000000000E+00 -0.26455615514E+04  0.26455615514E+04  0.00000000000E+00 0. -1.
         25    2    1    2    0    0  0.42143592448E+02 -0.21035825344E+02  0.40281257833E+03  0.42438322214E+03  0.12499823055E+03 0.  0.
          4    1    3    3  501    0 -0.38574497560E+02  0.32480535821E+01  0.60445608612E+02  0.71790154022E+02  0.12700000000E+01 0. -1.
         -4    1    3    3    0  501  0.80718090008E+02 -0.24283878926E+02  0.34236696971E+03  0.35259306811E+03  0.12700000000E+01 0. -1.
          2    1    1    2  502    0 -0.12821450825E+02 -0.69290252806E+02 -0.26308066906E+04  0.26317502488E+04  0.00000000000E+00 0. -1.
          1    1    1    2  503    0 -0.29322141623E+02  0.90326078149E+02  0.64109970528E+03  0.64809522487E+03  0.00000000000E+00 0. -1.
<mgrwt>
<rscale>  0 0.75184920E+02</rscale>
<asrwt>0</asrwt>
<pdfrwt beam="2">  1        2 0.40700946E+00 0.70466508E+02</pdfrwt>
<pdfrwt beam="1">  1        1 0.16287187E+00 0.80219275E+02</pdfrwt>
<totfact> 0.86777195E+00</totfact>
</mgrwt>
</event>
<event>
 7    1  0.3113530E-004  0.2091468E+03  0.7546771E-02  0.1153103E+00
          1   -1    0    0  503    0  0.00000000000E+00  0.00000000000E+00  0.27063234016E+03  0.27063234016E+03  0.00000000000E+00 0. -1.
         -2   -1    0    0    0  501 -0.00000000000E+00 -0.00000000000E+00 -0.19903858321E+04  0.19903858321E+04  0.00000000000E+00 0.  1.
         25    2    1    2    0    0 -0.54757712299E+02 -0.28674758897E+03 -0.11363338262E+04  0.11798739931E+04  0.12500195249E+03 0.  0.
          4    1    3    3  502    0 -0.89120217351E+02 -0.19722233221E+03 -0.68153408161E+03  0.71507298841E+03  0.12700000000E+01 0. -1.
         -4    1    3    3    0  502  0.34362505052E+02 -0.89525256754E+02 -0.45479974464E+03  0.46480100470E+03  0.12700000000E+01 0. -1.
          1    1    1    2  503    0 -0.83834923173E+02  0.16356604333E+03  0.20260068313E+03  0.27354923081E+03  0.00000000000E+00 0. -1.
         -2    1    1    2    0  501  0.13859263547E+03  0.12318154564E+03 -0.78602034883E+03  0.80759494833E+03  0.00000000000E+00 0.  1.
<mgrwt>
<rscale>  0 0.19606379E+03</rscale>
<asrwt>0</asrwt>
<pdfrwt beam="1">  1        1 0.41635746E-01 0.18379920E+03</pdfrwt>
<pdfrwt beam="2">  1       -2 0.30621320E+00 0.20914679E+03</pdfrwt>
<totfact> 0.30634002E+00</totfact>
</mgrwt>
</event>
<event>
 7    1  0.3113530E-004  0.1451009E+03  0.7546771E-02  0.1386850E+00
          1   -1    0    0  503    0  0.00000000000E+00  0.00000000000E+00  0.78241614722E+03  0.78241614722E+03  0.00000000000E+00 0. -1.
         -1   -1    0    0    0  501 -0.00000000000E+00 -0.00000000000E+00 -0.17820811305E+03  0.17820811305E+03  0.00000000000E+00 0.  1.
         25    2    1    2    0    0 -0.12301562329E+03  0.21539469672E+02  0.51111259374E+03  0.54079318333E+03  0.12499756530E+03 0.  0.
          4    1    3    3  502    0  0.13425316439E+02  0.21230581153E+02  0.23400219139E+02  0.34353454751E+02  0.12700000000E+01 0. -1.
         -4    1    3    3    0  502 -0.13644093972E+03  0.30888851922E+00  0.48771237460E+03  0.50643972858E+03  0.12700000000E+01 0. -1.
          1    1    1    2  503    0 -0.23211602329E+02 -0.13969110861E+02  0.22266761662E+03  0.22430956741E+03  0.00000000000E+00 0. -1.
         -1    1    1    2    0  501  0.14622722561E+03 -0.75703588108E+01 -0.12957217619E+03  0.19552150952E+03  0.00000000000E+00 0.  1.
<mgrwt>
<rscale>  0 0.62696941E+02</rscale>
<asrwt>0</asrwt>
<pdfrwt beam="1">  1        1 0.12037171E+00 0.27090857E+02</pdfrwt>
<pdfrwt beam="2">  1       -1 0.27416633E-01 0.14510085E+03</pdfrwt>
<totfact> 0.31723024E+02</totfact>
</mgrwt>
</event>
<event>
 7    1  0.3113530E-004  0.3064217E+02  0.7546771E-02  0.1598036E+00
          2   -1    0    0  502    0  0.00000000000E+00  0.00000000000E+00  0.19539873206E+03  0.19539873206E+03  0.00000000000E+00 0. -1.
          1   -1    0    0  503    0 -0.00000000000E+00 -0.00000000000E+00 -0.36444386109E+03  0.36444386109E+03  0.00000000000E+00 0. -1.
         25    2    1    2    0    0 -0.19126500260E+01 -0.11137874274E+02  0.34941257926E+02  0.13028862216E+03  0.12500609219E+03 0.  0.
          4    1    3    3  501    0 -0.26377752169E+02  0.39273565753E+02  0.53328960835E+02  0.71300699437E+02  0.12700000000E+01 0. -1.
         -4    1    3    3    0  501  0.24465102143E+02 -0.50411440026E+02 -0.18387702909E+02  0.58987922719E+02  0.12700000000E+01 0. -1.
          2    1    1    2  502    0  0.29187363751E+02 -0.33644700288E+01  0.11009970674E+03  0.11395247819E+03  0.00000000000E+00 0. -1.
          1    1    1    2  503    0 -0.27274713725E+02  0.14502344302E+02 -0.31408609370E+03  0.31560149280E+03  0.00000000000E+00 0. -1.
<mgrwt>
<rscale>  0 0.30004776E+02</rscale>
<asrwt>0</asrwt>
<pdfrwt beam="1">  1        2 0.30061344E-01 0.29380638E+02</pdfrwt>
<pdfrwt beam="2">  1        1 0.56068286E-01 0.30642173E+02</pdfrwt>
<totfact> 0.15604514E+03</totfact>
</mgrwt>
</event>
<event>
 7    1  0.3113530E-004  0.7984344E+02  0.7546771E-02  0.1425909E+00
          2   -1    0    0  502    0  0.00000000000E+00  0.00000000000E+00  0.38240441573E+02  0.38240441573E+02  0.00000000000E+00 0. -1.
          3   -1    0    0  503    0 -0.00000000000E+00 -0.00000000000E+00 -0.89500707123E+03  0.89500707123E+03  0.00000000000E+00 0. -1.
         25    2    1    2    0    0  0.20753001172E+02 -0.78024706282E+02 -0.19643057598E+03  0.24643581454E+03  0.12500839035E+03 0.  0.
          4    1    3    3  501    0  0.24943917745E+02 -0.86689846267E+02 -0.57100782054E+02  0.10676816328E+03  0.12700000000E+01 0. -1.
         -4    1    3    3    0  501 -0.41909165734E+01  0.86651399852E+01 -0.13932979393E+03  0.13966765126E+03  0.12700000000E+01 0. -1.
          2    1    1    2  502    0 -0.36224741658E+02 -0.97760760135E+00 -0.19912922715E+02  0.41348665225E+02  0.00000000000E+00 0. -1.
          3    1    1    2  503    0  0.15471740486E+02  0.79002313884E+02 -0.64042313096E+03  0.64546303304E+03  0.00000000000E+00 0. -1.
<mgrwt>
<rscale>  0 0.53789973E+02</rscale>
<asrwt>0</asrwt>
<pdfrwt beam="1">  1        2 0.58831447E-02 0.36237931E+02</pdfrwt>
<pdfrwt beam="2">  1        3 0.13769340E+00 0.79843443E+02</pdfrwt>
<totfact> 0.27847093E+02</totfact>
</mgrwt>
</event>
<event>
 7    1  0.3113530E-004  0.4297856E+02  0.7546771E-02  0.1523321E+00
          2   -1    0    0  503    0  0.00000000000E+00  0.00000000000E+00  0.13424024557E+03  0.13424024557E+03  0.00000000000E+00 0.  1.
         -2   -1    0    0    0  501 -0.00000000000E+00 -0.00000000000E+00 -0.87973138152E+02  0.87973138152E+02  0.00000000000E+00 0. -1.
         25    2    1    2    0    0  0.23499986239E+01 -0.78533813334E+01  0.31458544976E+02  0.12915460116E+03  0.12499629137E+03 0.  0.
          4    1    3    3  502    0  0.54160567826E+02  0.27388658499E+01 -0.17581069749E+02  0.57022586814E+02  0.12700000000E+01 0. -1.
         -4    1    3    3    0  502 -0.51810569202E+02 -0.10592247183E+02  0.49039614725E+02  0.72132014347E+02  0.12700000000E+01 0. -1.
          2    1    1    2  503    0 -0.35106681506E+02 -0.24792697052E+02 -0.39343062958E+01  0.43158263166E+02  0.00000000000E+00 0. -1.
         -2    1    1    2    0  501  0.32756682882E+02  0.32646078385E+02  0.18742868740E+02  0.49900519396E+02  0.00000000000E+00 0.  1.
<mgrwt>
<rscale>  0 0.38018467E+02</rscale>
<asrwt>0</asrwt>
<pdfrwt beam="1">  1        2 0.20652345E-01 0.42978563E+02</pdfrwt>
<pdfrwt beam="2">  1       -2 0.13534329E-01 0.33630808E+02</pdfrwt>
<totfact> 0.89586849E+03</totfact>
</mgrwt>
</event>
<event>
 7    1  0.3113530E-004  0.8099311E+02  0.7546771E-02  0.1408511E+00
         -3   -1    0    0    0  501 -0.00000000000E+00  0.00000000000E+00  0.83322237086E+03  0.83322237086E+03  0.00000000000E+00 0.  1.
          1   -1    0    0  503    0  0.00000000000E+00 -0.00000000000E+00 -0.26164100333E+04  0.26164100333E+04  0.00000000000E+00 0. -1.
         25    2    1    2    0    0 -0.94008067804E+02  0.59623814166E+02 -0.13645859786E+03  0.21595812647E+03  0.12499778970E+03 0.  0.
          4    1    3    3  502    0 -0.85888048779E+02 -0.18998488682E+02 -0.78913073112E+02  0.11818030929E+03  0.12700000000E+01 0.  1.
         -4    1    3    3    0  502 -0.81200190246E+01  0.78622302847E+02 -0.57545524749E+02  0.97777817181E+02  0.12700000000E+01 0.  1.
          1    1    1    2  503    0  0.53157922596E+02 -0.60531070833E+02 -0.24390101766E+04  0.24403402257E+04  0.00000000000E+00 0. -1.
         -3    1    1    2    0  501  0.40850145207E+02  0.90725666787E+00  0.79228111209E+03  0.79333405199E+03  0.00000000000E+00 0.  1.
<mgrwt>
<rscale>  0 0.57527353E+02</rscale>
<asrwt>0</asrwt>
<pdfrwt beam="2">  1        1 0.40252462E+00 0.80993113E+02</pdfrwt>
<pdfrwt beam="1">  1       -3 0.12818806E+00 0.40860219E+02</pdfrwt>
<totfact> 0.43178462E-01</totfact>
</mgrwt>
</event>
<event>
 7    1  0.3113530E-004  0.7646031E+02  0.7546771E-02  0.1395063E+00
          1   -1    0    0  503    0 -0.00000000000E+00  0.00000000000E+00  0.22065457019E+04  0.22065457019E+04  0.00000000000E+00 0. -1.
          2   -1    0    0  502    0  0.00000000000E+00 -0.00000000000E+00 -0.29319862052E+03  0.29319862052E+03  0.00000000000E+00 0. -1.
         25    2    1    2    0    0  0.38477942559E+02 -0.15107657345E+02  0.36721631234E+02  0.13667448921E+03  0.12499057735E+03 0.  0.
          4    1    3    3  501    0  0.52455984112E+02  0.40342149325E+02 -0.42381257014E+01  0.66322649908E+02  0.12700000000E+01 0.  1.
         -4    1    3    3    0  501 -0.13978041553E+02 -0.55449806670E+02  0.40959756935E+02  0.70351839305E+02  0.12700000000E+01 0.  1.
          2    1    1    2  502    0  0.36943004046E+02  0.30853227224E+02 -0.24013317516E+03  0.24490947101E+03  0.00000000000E+00 0. -1.
          1    1    1    2  503    0 -0.75420946605E+02 -0.15745569880E+02  0.21167586253E+04  0.21181603622E+04  0.00000000000E+00 0. -1.
<mgrwt>
<rscale>  0 0.60664667E+02</rscale>
<asrwt>0</asrwt>
<pdfrwt beam="2">  1        2 0.45107482E-01 0.48132184E+02</pdfrwt>
<pdfrwt beam="1">  1        1 0.33946856E+00 0.76460313E+02</pdfrwt>
<totfact> 0.44086592E+01</totfact>
</mgrwt>
</event>
<event>
 7    1  0.3113530E-004  0.6493313E+02  0.7546771E-02  0.1475708E+00
          2   -1    0    0  503    0  0.00000000000E+00  0.00000000000E+00  0.16415433774E+04  0.16415433774E+04  0.00000000000E+00 0. -1.
         -2   -1    0    0    0  501 -0.00000000000E+00 -0.00000000000E+00 -0.93041137063E+01  0.93041137063E+01  0.00000000000E+00 0.  1.
         25    2    1    2    0    0  0.55176910101E+02  0.20711350376E+02  0.94443528288E+03  0.95449244666E+03  0.12499750292E+03 0.  0.
          4    1    3    3  502    0  0.87539525353E+02 -0.14536100235E+02  0.54157324264E+03  0.54879655315E+03  0.12700000000E+01 0. -1.
         -4    1    3    3    0  502 -0.32362615252E+02  0.35247450612E+02  0.40286204024E+03  0.40569589351E+03  0.12700000000E+01 0. -1.
          2    1    1    2  503    0 -0.68897221159E+02  0.69581118909E+01  0.58291159342E+03  0.58701036460E+03  0.00000000000E+00 0. -1.
         -2    1    1    2    0  501  0.13720311058E+02 -0.27669462267E+02  0.10489238737E+03  0.10934467982E+03  0.00000000000E+00 0.  1.
<mgrwt>
<rscale>  0 0.44781923E+02</rscale>
<asrwt>0</asrwt>
<pdfrwt beam="1">  1        2 0.25254490E+00 0.64933128E+02</pdfrwt>
<pdfrwt beam="2">  1       -2 0.14314034E-02 0.30884399E+02</pdfrwt>
<totfact> 0.11842386E+04</totfact>
</mgrwt>
</event>
<event>
 7    1  0.3113530E-004  0.9178098E+02  0.7546771E-02  0.1366498E+00
         -1   -1    0    0    0  501 -0.00000000000E+00  0.00000000000E+00  0.39838018601E+03  0.39838018601E+03  0.00000000000E+00 0.  1.
          3   -1    0    0  503    0  0.00000000000E+00 -0.00000000000E+00 -0.36451412771E+03  0.36451412771E+03  0.00000000000E+00 0. -1.
         25    2    1    2    0    0 -0.62766368996E+02  0.12229125029E+03 -0.14450374275E+02  0.18634845688E+03  0.12498866784E+03 0.  0.
          4    1    3    3  502    0 -0.24907182991E+02  0.11685298579E+03 -0.54171824587E+02  0.13119141562E+03  0.12700000000E+01 0.  1.
         -4    1    3    3    0  502 -0.37859186005E+02  0.54382645021E+01  0.39721450312E+02  0.55157041261E+02  0.12700000000E+01 0.  1.
          3    1    1    2  503    0  0.32665213867E+02 -0.81613544233E+02 -0.25464274134E+03  0.26938951820E+03  0.00000000000E+00 0. -1.
         -1    1    1    2    0  501  0.30101155129E+02 -0.40677706058E+02  0.30295917391E+03  0.30715633864E+03  0.00000000000E+00 0.  1.
<mgrwt>
<rscale>  0 0.68150394E+02</rscale>
<asrwt>0</asrwt>
<pdfrwt beam="2">  1        3 0.56079096E-01 0.91780982E+02</pdfrwt>
<pdfrwt beam="1">  1       -1 0.61289260E-01 0.50603906E+02</pdfrwt>
<totfact> 0.40196461E+01</totfact>
</mgrwt>
</event>
<event>
 7    1  0.3113530E-004  0.1028632E+03  0.7546771E-02  0.1417383E+00
          1   -1    0    0  503    0 -0.00000000000E+00  0.00000000000E+00  0.35892553705E+03  0.35892553705E+03  0.00000000000E+00 0. -1.
          2   -1    0    0  502    0  0.00000000000E+00 -0.00000000000E+00 -0.12360373720E+04  0.12360373720E+04  0.00000000000E+00 0.  1.
         25    2    1    2    0    0  0.33944312152E+02  0.70128203421E+02 -0.62936179438E+03  0.64636884285E+03  0.12500492610E+03 0.  0.
          4    1    3    3  501    0  0.68071635154E+02  0.85720059352E+02 -0.45044758892E+03  0.46355832357E+03  0.12700000000E+01 0.  1.
         -4    1    3    3    0  501 -0.34127323003E+02 -0.15591855931E+02 -0.17891420546E+03  0.18281051928E+03  0.12700000000E+01 0.  1.
          2    1    1    2  502    0  0.27015319230E+02  0.13113311984E+02 -0.59018745029E+03  0.59095093951E+03  0.00000000000E+00 0.  1.
          1    1    1    2  503    0 -0.60959631381E+02 -0.83241515405E+02  0.34243740968E+03  0.35764312672E+03  0.00000000000E+00 0. -1.
<mgrwt>
<rscale>  0 0.55578391E+02</rscale>
<asrwt>0</asrwt>
<pdfrwt beam="2">  1        2 0.19015960E+00 0.30029759E+02</pdfrwt>
<pdfrwt beam="1">  1        1 0.55219313E-01 0.10286322E+03</pdfrwt>
<totfact> 0.21239488E+02</totfact>
</mgrwt>
</event>
<event>
 7    1  0.3113530E-004  0.1633800E+03  0.7546771E-02  0.1387196E+00
          1   -1    0    0  503    0  0.00000000000E+00  0.00000000000E+00  0.72940634898E+03  0.72940634898E+03  0.00000000000E+00 0. -1.
          1   -1    0    0  502    0 -0.00000000000E+00 -0.00000000000E+00 -0.44529735106E+03  0.44529735106E+03  0.00000000000E+00 0. -1.
         25    2    1    2    0    0  0.47804273706E+02 -0.15133907888E+03  0.39373567949E+03  0.44254164214E+03  0.12500621719E+03 0.  0.
          4    1    3    3  501    0  0.50434991946E+02 -0.14517866337E+02  0.49724955585E+02  0.72309342159E+02  0.12700000000E+01 0. -1.
         -4    1    3    3    0  501 -0.26307182399E+01 -0.13682121255E+03  0.34401072391E+03  0.37023229998E+03  0.12700000000E+01 0. -1.
          1    1    1    2  502    0 -0.71437580930E+02  0.14720079637E+03 -0.40448717019E+03  0.43632702560E+03  0.00000000000E+00 0. -1.
          1    1    1    2  503    0  0.23633307224E+02  0.41382825120E+01  0.29486048862E+03  0.29583503231E+03  0.00000000000E+00 0. -1.
<mgrwt>
<rscale>  0 0.62609562E+02</rscale>
<asrwt>0</asrwt>
<pdfrwt beam="1">  1        1 0.11221636E+00 0.23992886E+02</pdfrwt>
<pdfrwt beam="2">  1        1 0.68507285E-01 0.16337998E+03</pdfrwt>
<totfact> 0.18893820E+02</totfact>
</mgrwt>
</event>
<event>
 7    1  0.3113530E-004  0.6248212E+02  0.7546771E-02  0.1453344E+00
          2   -1    0    0  503    0  0.00000000000E+00  0.00000000000E+00  0.12997948463E+03  0.12997948463E+03  0.00000000000E+00 0. -1.
         -1   -1    0    0    0  501 -0.00000000000E+00 -0.00000000000E+00 -0.15339854571E+03  0.15339854571E+03  0.00000000000E+00 0.  1.
         25    2    1    2    0    0 -0.36817078299E+02 -0.45975005114E+02 -0.86811265913E+02  0.16318320988E+03  0.12499346283E+03 0.  0.
          4    1    3    3  502    0  0.83357130019E+01 -0.50730938203E+02 -0.10286924316E+03  0.11500785317E+03  0.12700000000E+01 0. -1.
         -4    1    3    3    0  502 -0.45152791301E+02  0.47559330899E+01  0.16057977243E+02  0.48175356718E+02  0.12700000000E+01 0. -1.
          2    1    1    2  503    0  0.38375483478E+01  0.64279035121E+02  0.39312374364E+02  0.75445237832E+02  0.00000000000E+00 0. -1.
         -1    1    1    2    0  501  0.32979529951E+02 -0.18304030008E+02  0.24079830469E+02  0.44749582632E+02  0.00000000000E+00 0.  1.
<mgrwt>
<rscale>  0 0.48546195E+02</rscale>
<asrwt>0</asrwt>
<pdfrwt beam="1">  1        2 0.19996844E-01 0.62482115E+02</pdfrwt>
<pdfrwt beam="2">  1       -1 0.23599776E-01 0.37718522E+02</pdfrwt>
<totfact> 0.43268643E+03</totfact>
</mgrwt>
</event>
<event>
 7    1  0.3113530E-004  0.1645750E+03  0.7546771E-02  0.1317424E+00
          2   -1    0    0  503    0  0.00000000000E+00  0.00000000000E+00  0.15938027893E+04  0.15938027893E+04  0.00000000000E+00 0.  1.
         -2   -1    0    0    0  501 -0.00000000000E+00 -0.00000000000E+00 -0.75276719434E+02  0.75276719434E+02  0.00000000000E+00 0.  1.
         25    2    1    2    0    0  0.65770250622E+02 -0.12774420975E+03  0.14015355109E+03  0.23645790639E+03  0.12500005847E+03 0.  0.
          4    1    3    3  502    0  0.99269681121E+02 -0.65697866611E+02  0.98790683759E+02  0.15469935800E+03  0.12700000000E+01 0.  1.
         -4    1    3    3    0  502 -0.33499430500E+02 -0.62046343140E+02  0.41362867328E+02  0.81758548388E+02  0.12700000000E+01 0.  1.
          2    1    1    2  503    0 -0.39964218297E+02  0.16229262171E+03  0.13793977133E+04  0.13894869864E+04  0.00000000000E+00 0.  1.
         -2    1    1    2    0  501 -0.25806032325E+02 -0.34548411962E+02 -0.10251945135E+01  0.43134615997E+02  0.00000000000E+00 0.  1.
<mgrwt>
<rscale>  0 0.84242958E+02</rscale>
<asrwt>0</asrwt>
<pdfrwt beam="1">  1        2 0.24520040E+00 0.16457504E+03</pdfrwt>
<pdfrwt beam="2">  1       -2 0.11581035E-01 0.43122431E+02</pdfrwt>
<totfact> 0.59535741E+02</totfact>
</mgrwt>
</event>
<event>
 7    1  0.3113530E-004  0.1407339E+03  0.7546771E-02  0.1216403E+00
          1   -1    0    0  503    0 -0.00000000000E+00  0.00000000000E+00  0.28101010867E+03  0.28101010867E+03  0.00000000000E+00 0. -1.
          2   -1    0    0  502    0  0.00000000000E+00 -0.00000000000E+00 -0.30276300113E+04  0.30276300113E+04  0.00000000000E+00 0. -1.
         25    2    1    2    0    0 -0.14546596939E+02  0.19820568575E+02 -0.22684488578E+03  0.26016720514E+03  0.12499565593E+03 0.  0.
          4    1    3    3  501    0 -0.90062930464E+01 -0.48325646762E+02 -0.48096808084E+02  0.68785153175E+02  0.12700000000E+01 0.  1.
         -4    1    3    3    0  501 -0.55403038927E+01  0.68146215337E+02 -0.17874807770E+03  0.19138205196E+03  0.12700000000E+01 0.  1.
          2    1    1    2  502    0  0.10407654285E+03  0.94731675959E+02 -0.27622056825E+04  0.27657885403E+04  0.00000000000E+00 0. -1.
          1    1    1    2  503    0 -0.89529945916E+02 -0.11455224453E+03  0.24243066566E+03  0.28268437452E+03  0.00000000000E+00 0. -1.
<mgrwt>
<rscale>  0 0.13773980E+03</rscale>
<asrwt>0</asrwt>
<pdfrwt beam="2">  1        2 0.46578923E+00 0.14073385E+03</pdfrwt>
<pdfrwt beam="1">  1        1 0.43232324E-01 0.13480944E+03</pdfrwt>
<totfact> 0.28859165E+01</totfact>
</mgrwt>
</event>
<event>
 7    1  0.3113530E-004  0.3377900E+02  0.7546771E-02  0.1596850E+00
         -2   -1    0    0    0  501  0.00000000000E+00  0.00000000000E+00  0.18834490010E+03  0.18834490010E+03  0.00000000000E+00 0.  1.
         -2   -1    0    0    0  502 -0.00000000000E+00 -0.00000000000E+00 -0.40265954410E+03  0.40265954410E+03  0.00000000000E+00 0.  1.
         25    2    1    2    0    0  0.28477304547E+02 -0.18702485168E+02 -0.17736250910E+03  0.21964996334E+03  0.12501162720E+03 0.  0.
          4    1    3    3  503    0  0.24257401480E+02  0.52690786394E+02 -0.81430126500E+02  0.99986093529E+02  0.12700000000E+01 0. -1.
         -4    1    3    3    0  503  0.42199030668E+01 -0.71393271562E+02 -0.95932382598E+02  0.11966386981E+03  0.12700000000E+01 0. -1.
         -2    1    1    2    0  502 -0.63202565707E+01  0.33856573896E+02 -0.20160602202E+03  0.20452677417E+03  0.00000000000E+00 0.  1.
         -2    1    1    2    0  501 -0.22157047976E+02 -0.15154088728E+02  0.16465388711E+03  0.16682770670E+03  0.00000000000E+00 0.  1.
<mgrwt>
<rscale>  0 0.30112314E+02</rscale>
<asrwt>0</asrwt>
<pdfrwt beam="1">  1       -2 0.28976139E-01 0.26843643E+02</pdfrwt>
<pdfrwt beam="2">  1       -2 0.61947622E-01 0.33779000E+02</pdfrwt>
<totfact> 0.16803959E+02</totfact>
</mgrwt>
</event>
<event>
 7    1  0.3113530E-004  0.5107135E+02  0.7546771E-02  0.1486457E+00
         -1   -1    0    0    0  501 -0.00000000000E+00  0.00000000000E+00  0.33723662378E+03  0.33723662378E+03  0.00000000000E+00 0.  1.
          2   -1    0    0  503    0  0.00000000000E+00 -0.00000000000E+00 -0.37727885507E+03  0.37727885507E+03  0.00000000000E+00 0. -1.
         25    2    1    2    0    0 -0.57015543372E+02 -0.49480124035E+02  0.21622822121E+02  0.14763177819E+03  0.12501416174E+03 0.  0.
          4    1    3    3  502    0 -0.67411518922E+02 -0.53330345786E+02  0.61838701347E+02  0.10589653700E+03  0.12700000000E+01 0. -1.
         -4    1    3    3    0  502  0.10395975551E+02  0.38502217506E+01 -0.40215879226E+02  0.41735241189E+02  0.12700000000E+01 0. -1.
          2    1    1    2  503    0  0.48654669359E+02  0.14053345092E+02 -0.31090352718E+03  0.31500123265E+03  0.00000000000E+00 0. -1.
         -1    1    1    2    0  501  0.83608740128E+01  0.35426778943E+02  0.24923847377E+03  0.25188246800E+03  0.00000000000E+00 0.  1.
<mgrwt>
<rscale>  0 0.43116095E+02</rscale>
<asrwt>0</asrwt>
<pdfrwt beam="2">  1        2 0.58042900E-01 0.51071347E+02</pdfrwt>
<pdfrwt beam="1">  1       -1 0.51882558E-01 0.36400012E+02</pdfrwt>
<totfact> 0.38128496E+02</totfact>
</mgrwt>
</event>
<event>
 7    1  0.3113530E-004  0.1014420E+03  0.7546771E-02  0.1375565E+00
         -1   -1    0    0    0  502 -0.00000000000E+00  0.00000000000E+00  0.32380815952E+03  0.32380815952E+03  0.00000000000E+00 0.  1.
         -2   -1    0    0    0  501  0.00000000000E+00 -0.00000000000E+00 -0.57146390603E+03  0.57146390603E+03  0.00000000000E+00 0.  1.
         25    2    1    2    0    0  0.62029954353E+02 -0.93826281800E+01 -0.24852455294E+02  0.14204808053E+03  0.12499705477E+03 0.  0.
          4    1    3    3  503    0  0.77071207442E+02 -0.79735310958E+01 -0.63721296144E+02  0.10032728790E+03  0.12700000000E+01 0. -1.
         -4    1    3    3    0  503 -0.15041253089E+02 -0.14090970842E+01  0.38868840850E+02  0.41720792635E+02  0.12700000000E+01 0. -1.
         -2    1    1    2    0  501 -0.10380198155E+03  0.17099081902E+02 -0.48058559313E+03  0.49196518403E+03  0.00000000000E+00 0.  1.
         -1    1    1    2    0  502  0.41772027196E+02 -0.77164537224E+01  0.25778230191E+03  0.26125880099E+03  0.00000000000E+00 0.  1.
<mgrwt>
<rscale>  0 0.65643988E+02</rscale>
<asrwt>0</asrwt>
<pdfrwt beam="2">  1       -2 0.87917524E-01 0.10144204E+03</pdfrwt>
<pdfrwt beam="1">  1       -1 0.49816640E-01 0.42478770E+02</pdfrwt>
<totfact> 0.36942645E+01</totfact>
</mgrwt>
</event>
<event>
 7    1  0.3113530E-004  0.9394492E+02  0.7546771E-02  0.1462575E+00
         -1   -1    0    0    0  501 -0.00000000000E+00  0.00000000000E+00  0.23547274567E+03  0.23547274567E+03  0.00000000000E+00 0.  1.
          2   -1    0    0  503    0  0.00000000000E+00 -0.00000000000E+00 -0.10209316948E+04  0.10209316948E+04  0.00000000000E+00 0. -1.
         25    2    1    2    0    0 -0.88271242264E+02 -0.54863164250E+02 -0.47256187616E+02  0.16928857642E+03  0.12499478323E+03 0.  0.
          4    1    3    3  502    0  0.10058386625E+02 -0.56517391774E+02 -0.41351437275E+02  0.70759741231E+02  0.12700000000E+01 0. -1.
         -4    1    3    3    0  502 -0.98329628888E+02  0.16542275245E+01 -0.59047503406E+01  0.98528835184E+02  0.12700000000E+01 0. -1.
          2    1    1    2  503    0  0.67215634878E+02  0.65197392710E+02 -0.90945588831E+03  0.91426399600E+03  0.00000000000E+00 0. -1.
         -1    1    1    2    0  501  0.21055607385E+02 -0.10334228461E+02  0.17125312676E+03  0.17285186810E+03  0.00000000000E+00 0.  1.
<mgrwt>
<rscale>  0 0.46941174E+02</rscale>
<asrwt>0</asrwt>
<pdfrwt beam="2">  1        2 0.15706641E+00 0.93944919E+02</pdfrwt>
<pdfrwt beam="1">  1       -1 0.36226577E-01 0.23454954E+02</pdfrwt>
<totfact> 0.22079791E+02</totfact>
</mgrwt>
</event>
<event>
 7    1  0.3113530E-004  0.6683000E+02  0.7546771E-02  0.1459060E+00
          1   -1    0    0  503    0  0.00000000000E+00  0.00000000000E+00  0.25331026222E+04  0.25331026222E+04  0.00000000000E+00 0. -1.
          1   -1    0    0  502    0 -0.00000000000E+00 -0.00000000000E+00 -0.31363790626E+03  0.31363790626E+03  0.00000000000E+00 0. -1.
         25    2    1    2    0    0  0.18018117632E+01  0.40669035679E+02  0.92466411183E+03  0.93396282691E+03  0.12500250134E+03 0.  0.
          4    1    3    3  501    0 -0.58879130804E+02  0.52930156409E+01  0.34134460439E+03  0.34642823197E+03  0.12700000000E+01 0. -1.
         -4    1    3    3    0  501  0.60680942568E+02  0.35376020038E+02  0.58331950744E+03  0.58753459494E+03  0.12700000000E+01 0. -1.
          1    1    1    2  502    0  0.24053763951E+02 -0.62474639423E+02 -0.30518164255E+03  0.31243799238E+03  0.00000000000E+00 0. -1.
          1    1    1    2  503    0 -0.25855575715E+02  0.21805603744E+02  0.15999822467E+04  0.16003397092E+04  0.00000000000E+00 0. -1.
<mgrwt>
<rscale>  0 0.47543567E+02</rscale>
<asrwt>0</asrwt>
<pdfrwt beam="1">  1        1 0.38970808E+00 0.33822997E+02</pdfrwt>
<pdfrwt beam="2">  1        1 0.48251987E-01 0.66829996E+02</pdfrwt>
<totfact> 0.20689035E+01</totfact>
</mgrwt>
</event>
<event>
 7    1  0.3113530E-004  0.3635270E+02  0.7546771E-02  0.1552384E+00
          2   -1    0    0  503    0  0.00000000000E+00  0.00000000000E+00  0.58978814243E+03  0.58978814243E+03  0.00000000000E+00 0. -1.
         -2   -1    0    0    0  501 -0.00000000000E+00 -0.00000000000E+00 -0.23811514025E+02  0.23811514025E+02  0.00000000000E+00 0.  1.
         25    2    1    2    0    0 -0.13163263502E+02  0.44287140227E+01  0.20060291040E+03  0.23676973291E+03  0.12500197498E+03 0.  0.
          4    1    3    3  502    0 -0.48343237531E+02  0.48875156805E+02  0.11824155073E+03  0.13677911678E+03  0.12700000000E+01 0. -1.
         -4    1    3    3    0  502  0.35179974029E+02 -0.44446442783E+02  0.82361359667E+02  0.99990616134E+02  0.12700000000E+01 0. -1.
          2    1    1    2  503    0  0.35839447509E+01 -0.39496580468E+02  0.81489534060E+02  0.90627637561E+02  0.00000000000E+00 0. -1.
         -2    1    1    2    0  501  0.95793187514E+01  0.35067866445E+02  0.28388418395E+03  0.28620228598E+03  0.00000000000E+00 0.  1.
<mgrwt>
<rscale>  0 0.34577605E+02</rscale>
<asrwt>0</asrwt>
<pdfrwt beam="1">  1        2 0.90736626E-01 0.32889190E+02</pdfrwt>
<pdfrwt beam="2">  1       -2 0.36633103E-02 0.36352697E+02</pdfrwt>
<totfact> 0.13496401E+04</totfact>
</mgrwt>
</event>
<event>
 7    1  0.3113530E-004  0.5916582E+03  0.7546771E-02  0.9922865E-01
          1   -1    0    0  503    0  0.00000000000E+00  0.00000000000E+00  0.43439613272E+03  0.43439613272E+03  0.00000000000E+00 0. -1.
         -2   -1    0    0    0  501 -0.00000000000E+00 -0.00000000000E+00 -0.20146321915E+03  0.20146321915E+03  0.00000000000E+00 0.  1.
         25    2    1    2    0    0  0.16293548585E+03 -0.27979054686E+02 -0.11938541719E+03  0.23919219859E+03  0.12501691876E+03 0.  0.
          4    1    3    3  502    0  0.81580894844E+02 -0.70531715088E+02 -0.96127477705E+02  0.14447238527E+03  0.12700000000E+01 0.  1.
         -4    1    3    3    0  502  0.81354591005E+02  0.42552660401E+02 -0.23257939490E+02  0.94719813314E+02  0.12700000000E+01 0.  1.
          1    1    1    2  503    0 -0.74410417378E+02  0.26678963464E+02  0.24558475485E+03  0.25799331217E+03  0.00000000000E+00 0. -1.
         -2    1    1    2    0  501 -0.88525068471E+02  0.13000912225E+01  0.10673357591E+03  0.13867384112E+03  0.00000000000E+00 0.  1.
<mgrwt>
<rscale>  0 0.59165816E+03</rscale>
<asrwt>0</asrwt>
<pdfrwt beam="1">  1        1 0.66830174E-01 0.59165816E+03</pdfrwt>
<pdfrwt beam="2">  1       -2 0.30994342E-01 0.59165816E+03</pdfrwt>
<totfact> 0.45880977E+02</totfact>
</mgrwt>
</event>
<event>
 7    1  0.3113530E-004  0.1816353E+03  0.7546771E-02  0.1274592E+00
          2   -1    0    0  503    0  0.00000000000E+00  0.00000000000E+00  0.22864344413E+04  0.22864344413E+04  0.00000000000E+00 0. -1.
         -3   -1    0    0    0  501 -0.00000000000E+00 -0.00000000000E+00 -0.34927141666E+03  0.34927141666E+03  0.00000000000E+00 0.  1.
         25    2    1    2    0    0 -0.18545361510E+03 -0.17876718816E+02 -0.12323195542E+02  0.22469836641E+03  0.12499949717E+03 0.  0.
          4    1    3    3  502    0 -0.14413994329E+03  0.43314583025E+02 -0.76130085241E+01  0.15070516632E+03  0.12700000000E+01 0. -1.
         -4    1    3    3    0  502 -0.41313671801E+02 -0.61191301842E+02 -0.47101870178E+01  0.73993200096E+02  0.12700000000E+01 0. -1.
          2    1    1    2  503    0  0.18337582531E+02 -0.55171566639E+02  0.21437539396E+04  0.21445421708E+04  0.00000000000E+00 0. -1.
         -3    1    1    2    0  501  0.16711603256E+03  0.73048285455E+02 -0.19426771943E+03  0.26646532075E+03  0.00000000000E+00 0.  1.
<mgrwt>
<rscale>  0 0.10276252E+03</rscale>
<asrwt>0</asrwt>
<pdfrwt beam="1">  1        2 0.35175914E+00 0.58139218E+02</pdfrwt>
<pdfrwt beam="2">  1       -3 0.53734066E-01 0.18163532E+03</pdfrwt>
<totfact> 0.13455285E+01</totfact>
</mgrwt>
</event>
<event>
 7    1  0.3113530E-004  0.3592686E+02  0.7546771E-02  0.1553264E+00
         -1   -1    0    0    0  501 -0.00000000000E+00  0.00000000000E+00  0.25793963650E+02  0.25793963650E+02  0.00000000000E+00 0.  1.
          2   -1    0    0  503    0  0.00000000000E+00 -0.00000000000E+00 -0.47932779253E+03  0.47932779253E+03  0.00000000000E+00 0. -1.
         25    2    1    2    0    0  0.17984842339E+02  0.22170699123E+02 -0.34142462902E+03  0.36470288438E+03  0.12498968804E+03 0.  0.
          4    1    3    3  502    0 -0.19335208863E+02 -0.42168718608E+02 -0.19522940034E+03  0.20066933694E+03  0.12700000000E+01 0. -1.
         -4    1    3    3    0  502  0.37320051202E+02  0.64339417731E+02 -0.14619522868E+03  0.16403354743E+03  0.12700000000E+01 0. -1.
          2    1    1    2  503    0  0.19460226452E+02 -0.26765475434E+02 -0.91781283310E+02  0.97564824885E+02  0.00000000000E+00 0. -1.
         -1    1    1    2    0  501 -0.37445068792E+02  0.45947763116E+01 -0.20327916551E+02  0.42854046920E+02  0.00000000000E+00 0.  1.
<mgrwt>
<rscale>  0 0.34480392E+02</rscale>
<asrwt>0</asrwt>
<pdfrwt beam="2">  1        2 0.73742738E-01 0.33092161E+02</pdfrwt>
<pdfrwt beam="1">  1       -1 0.39683021E-02 0.35926860E+02</pdfrwt>
<totfact> 0.15209864E+04</totfact>
</mgrwt>
</event>
<event>
 7    1  0.3113530E-004  0.1285933E+03  0.7546771E-02  0.1408858E+00
         -3   -1    0    0    0  501 -0.00000000000E+00  0.00000000000E+00  0.13719181225E+03  0.13719181225E+03  0.00000000000E+00 0.  1.
          1   -1    0    0  503    0  0.00000000000E+00 -0.00000000000E+00 -0.24047049275E+04  0.24047049275E+04  0.00000000000E+00 0. -1.
         25    2    1    2    0    0 -0.14212163598E+03 -0.13916194673E+02 -0.41778302362E+03  0.45887062935E+03  0.12500951874E+03 0.  0.
          4    1    3    3  502    0 -0.67705096226E+02  0.45296021558E+02 -0.27881064926E+03  0.29046979303E+03  0.12700000000E+01 0.  1.
         -4    1    3    3    0  502 -0.74416539752E+02 -0.59212216231E+02 -0.13897237436E+03  0.16840083632E+03  0.12700000000E+01 0.  1.
          1    1    1    2  503    0  0.12337186711E+03  0.31442501461E+02 -0.19628786046E+04  0.19670032194E+04  0.00000000000E+00 0. -1.
         -3    1    1    2    0  501  0.18749768868E+02 -0.17526306788E+02  0.11314851297E+03  0.11602289106E+03  0.00000000000E+00 0.  1.
<mgrwt>
<rscale>  0 0.57449370E+02</rscale>
<asrwt>0</asrwt>
<pdfrwt beam="2">  1        1 0.36995461E+00 0.12859331E+03</pdfrwt>
<pdfrwt beam="1">  1       -3 0.21106433E-01 0.25665644E+02</pdfrwt>
<totfact> 0.18156792E+01</totfact>
</mgrwt>
</event>
<event>
 7    1  0.3113530E-004  0.2752934E+02  0.7546771E-02  0.1680573E+00
         -2   -1    0    0    0  501 -0.00000000000E+00  0.00000000000E+00  0.43755621283E+01  0.43755621283E+01  0.00000000000E+00 0.  1.
          1   -1    0    0  503    0  0.00000000000E+00 -0.00000000000E+00 -0.28165985750E+04  0.28165985750E+04  0.00000000000E+00 0. -1.
         25    2    1    2    0    0  0.31772967169E+02 -0.28413268218E+02 -0.16365645919E+04  0.16418849499E+04  0.12500275951E+03 0.  0.
          4    1    3    3  502    0 -0.12162761192E+02 -0.51032756539E+02 -0.13548705508E+04  0.13558864618E+04  0.12700000000E+01 0.  1.
         -4    1    3    3    0  502  0.43935728361E+02  0.22619488321E+02 -0.28169404112E+03  0.28599848808E+03  0.12700000000E+01 0.  1.
          1    1    1    2  503    0 -0.66931096649E+01  0.19254995850E+02 -0.10671318573E+04  0.10673265449E+04  0.00000000000E+00 0. -1.
         -2    1    1    2    0  501 -0.25079857504E+02  0.91582723682E+01 -0.10852656363E+03  0.11176264232E+03  0.00000000000E+00 0.  1.
<mgrwt>
<rscale>  0 0.23689418E+02</rscale>
<asrwt>0</asrwt>
<pdfrwt beam="2">  1        1 0.43332252E+00 0.20385107E+02</pdfrwt>
<pdfrwt beam="1">  1       -2 0.67316393E-03 0.27529339E+02</pdfrwt>
<totfact> 0.33153651E+03</totfact>
</mgrwt>
</event>
<event>
 7    1  0.3113530E-004  0.5335300E+02  0.7546771E-02  0.1482363E+00
          1   -1    0    0  502    0  0.00000000000E+00  0.00000000000E+00  0.20139109146E+03  0.20139109146E+03  0.00000000000E+00 0. -1.
          1   -1    0    0  503    0 -0.00000000000E+00 -0.00000000000E+00 -0.27568061906E+03  0.27568061906E+03  0.00000000000E+00 0. -1.
         25    2    1    2    0    0  0.12890709478E+02 -0.73002360448E+02 -0.15960611998E+03  0.21585700596E+03  0.12499847386E+03 0.  0.
          4    1    3    3  501    0  0.58474184001E+02 -0.39285070756E+02 -0.34401144048E+02  0.78406623385E+02  0.12700000000E+01 0. -1.
         -4    1    3    3    0  501 -0.45583474523E+02 -0.33717289691E+02 -0.12520497593E+03  0.13745038258E+03  0.12700000000E+01 0. -1.
          1    1    1    2  502    0  0.15281228303E+02  0.50815782439E+02  0.16527438832E+03  0.17358393681E+03  0.00000000000E+00 0. -1.
          1    1    1    2  503    0 -0.28171937781E+02  0.22186578009E+02 -0.79957795949E+02  0.87630767743E+02  0.00000000000E+00 0. -1.
<mgrwt>
<rscale>  0 0.43740266E+02</rscale>
<asrwt>0</asrwt>
<pdfrwt beam="1">  1        1 0.30983245E-01 0.53353000E+02</pdfrwt>
<pdfrwt beam="2">  1        1 0.42412403E-01 0.35859480E+02</pdfrwt>
<totfact> 0.16296530E+03</totfact>
</mgrwt>
</event>
<event>
 7    1  0.3113530E-004  0.9649246E+02  0.7546771E-02  0.1343847E+00
          2   -1    0    0  502    0  0.00000000000E+00  0.00000000000E+00  0.80336870405E+03  0.80336870405E+03  0.00000000000E+00 0. -1.
          3   -1    0    0  503    0 -0.00000000000E+00 -0.00000000000E+00 -0.52134723584E+03  0.52134723584E+03  0.00000000000E+00 0. -1.
         25    2    1    2    0    0  0.52548414576E+02 -0.16612912330E+02  0.32870318522E+02  0.14052374521E+03  0.12501656050E+03 0.  0.
          4    1    3    3  501    0  0.36841831535E+01  0.38178817782E+02  0.52016986350E+02  0.64641898964E+02  0.12700000000E+01 0.  1.
         -4    1    3    3    0  501  0.48864231423E+02 -0.54791730111E+02 -0.19146667828E+02  0.75881846249E+02  0.12700000000E+01 0.  1.
          2    1    1    2  502    0  0.15050932520E+02 -0.56330489343E+02  0.71017460689E+03  0.71256412123E+03  0.00000000000E+00 0. -1.
          3    1    1    2  503    0 -0.67599347097E+02  0.72943401673E+02 -0.46102345720E+03  0.47162807345E+03  0.00000000000E+00 0. -1.
<mgrwt>
<rscale>  0 0.75007622E+02</rscale>
<asrwt>0</asrwt>
<pdfrwt beam="1">  1        2 0.12359518E+00 0.58306557E+02</pdfrwt>
<pdfrwt beam="2">  1        3 0.80207267E-01 0.96492464E+02</pdfrwt>
<totfact> 0.33727500E+01</totfact>
</mgrwt>
</event>
<event>
 7    1  0.3113530E-004  0.7531872E+02  0.7546771E-02  0.1465547E+00
          1   -1    0    0  502    0  0.00000000000E+00  0.00000000000E+00  0.21126773436E+03  0.21126773436E+03  0.00000000000E+00 0. -1.
          3   -1    0    0  503    0 -0.00000000000E+00 -0.00000000000E+00 -0.13515801178E+04  0.13515801178E+04  0.00000000000E+00 0. -1.
         25    2    1    2    0    0  0.83122423510E+02 -0.21619526254E+02  0.57964563804E+02  0.16236308474E+03  0.12500055770E+03 0.  0.
          4    1    3    3  501    0  0.26956292069E+02  0.22799641387E+02  0.79981266014E+02  0.87436154666E+02  0.12700000000E+01 0. -1.
         -4    1    3    3    0  501  0.56166131440E+02 -0.44419167641E+02 -0.22016702210E+02  0.74926930079E+02  0.12700000000E+01 0. -1.
          1    1    1    2  502    0 -0.80899356468E+01  0.27467375604E+02  0.97962920141E+02  0.10206192975E+03  0.00000000000E+00 0. -1.
          3    1    1    2  503    0 -0.75032487863E+02 -0.58478493501E+01 -0.12962398674E+04  0.12984228376E+04  0.00000000000E+00 0. -1.
<mgrwt>
<rscale>  0 0.46439996E+02</rscale>
<asrwt>0</asrwt>
<pdfrwt beam="1">  1        1 0.32502728E-01 0.28633962E+02</pdfrwt>
<pdfrwt beam="2">  1        3 0.20793541E+00 0.75318717E+02</pdfrwt>
<totfact> 0.10663643E+01</totfact>
</mgrwt>
</event>
<event>
 7    1  0.3113530E-004  0.1101021E+03  0.7546771E-02  0.1262058E+00
          1   -1    0    0  503    0  0.00000000000E+00  0.00000000000E+00  0.87886814119E+02  0.87886814119E+02  0.00000000000E+00 0. -1.
          1   -1    0    0  502    0 -0.00000000000E+00 -0.00000000000E+00 -0.55583109521E+03  0.55583109521E+03  0.00000000000E+00 0. -1.
         25    2    1    2    0    0 -0.10046924504E+03  0.64749174293E+02 -0.96356368641E+02  0.19798189637E+03  0.12500302693E+03 0.  0.
          4    1    3    3  501    0 -0.48195868550E+02  0.98309892093E+02 -0.49514661219E+02  0.12017067531E+03  0.12700000000E+01 0. -1.
         -4    1    3    3    0  501 -0.52273376487E+02 -0.33560717799E+02 -0.46841707422E+02  0.77811221060E+02  0.12700000000E+01 0. -1.
          1    1    1    2  502    0 -0.18267734369E+02 -0.10675445857E+03 -0.24146542784E+03  0.26464273537E+03  0.00000000000E+00 0. -1.
          1    1    1    2  503    0  0.11873697941E+03  0.42005284278E+02 -0.13012248461E+03  0.18109327758E+03  0.00000000000E+00 0. -1.
<mgrwt>
<rscale>  0 0.10920044E+03</rscale>
<asrwt>0</asrwt>
<pdfrwt beam="1">  1        1 0.13521048E-01 0.11010210E+03</pdfrwt>
<pdfrwt beam="2">  1        1 0.85512476E-01 0.10830616E+03</pdfrwt>
<totfact> 0.19639694E+03</totfact>
</mgrwt>
</event>
<event>
 7    1  0.3113530E-004  0.5358407E+02  0.7546771E-02  0.1529306E+00
          2   -1    0    0  503    0  0.00000000000E+00  0.00000000000E+00  0.12672468451E+03  0.12672468451E+03  0.00000000000E+00 0. -1.
         -1   -1    0    0    0  501 -0.00000000000E+00 -0.00000000000E+00 -0.13448235788E+03  0.13448235788E+03  0.00000000000E+00 0.  1.
         25    2    1    2    0    0 -0.59854514064E+02 -0.99615921603E+01  0.47459030957E+02  0.14682409431E+03  0.12499263530E+03 0.  0.
          4    1    3    3  502    0 -0.57506810421E+02 -0.35689364564E+02  0.80296188764E+02  0.10502311564E+03  0.12700000000E+01 0.  1.
         -4    1    3    3    0  502 -0.23477036427E+01  0.25727772403E+02 -0.32837157807E+02  0.41800978673E+02  0.12700000000E+01 0.  1.
          2    1    1    2  503    0  0.42698118655E+02  0.29397939568E+02  0.16705738900E+01  0.51866742761E+02  0.00000000000E+00 0. -1.
         -1    1    1    2    0  501  0.17156395408E+02 -0.19436347408E+02 -0.56887278222E+02  0.62516205319E+02  0.00000000000E+00 0.  1.
<mgrwt>
<rscale>  0 0.37271641E+02</rscale>
<asrwt>0</asrwt>
<pdfrwt beam="1">  1        2 0.19496105E-01 0.53584074E+02</pdfrwt>
<pdfrwt beam="2">  1       -1 0.20689593E-01 0.25925152E+02</pdfrwt>
<totfact> 0.53172321E+03</totfact>
</mgrwt>
</event>
<event>
 7    1  0.3113530E-004  0.1544031E+03  0.7546771E-02  0.1205795E+00
          2   -1    0    0  502    0  0.00000000000E+00  0.00000000000E+00  0.14144979129E+04  0.14144979129E+04  0.00000000000E+00 0. -1.
          2   -1    0    0  503    0 -0.00000000000E+00 -0.00000000000E+00 -0.33981432350E+03  0.33981432350E+03  0.00000000000E+00 0. -1.
         25    2    1    2    0    0  0.74840078235E+02 -0.21432211240E+03 -0.76463468194E+02  0.27019789701E+03  0.12500094561E+03 0.  0.
          4    1    3    3  501    0  0.26990483565E+02 -0.60534134552E+02 -0.86312947163E+02  0.10883200539E+03  0.12700000000E+01 0.  1.
         -4    1    3    3    0  501  0.47849594670E+02 -0.15378797785E+03  0.98494789688E+01  0.16136589162E+03  0.12700000000E+01 0.  1.
          2    1    1    2  502    0  0.45060991546E+02  0.14685167673E+03  0.12838243732E+04  0.12929814110E+04  0.00000000000E+00 0. -1.
          2    1    1    2  503    0 -0.11990106978E+03  0.67470435675E+02 -0.13267731564E+03  0.19113292838E+03  0.00000000000E+00 0. -1.
<mgrwt>
<rscale>  0 0.14574957E+03</rscale>
<asrwt>0</asrwt>
<pdfrwt beam="1">  1        2 0.21761506E+00 0.15440315E+03</pdfrwt>
<pdfrwt beam="2">  1        2 0.52279127E-01 0.13758098E+03</pdfrwt>
<totfact> 0.23500959E+02</totfact>
</mgrwt>
</event>
<event>
 7    1  0.3113530E-004  0.6797805E+02  0.7546771E-02  0.1428228E+00
          1   -1    0    0  503    0  0.00000000000E+00  0.00000000000E+00  0.30232915248E+04  0.30232915248E+04  0.00000000000E+00 0. -1.
          1   -1    0    0  502    0 -0.00000000000E+00 -0.00000000000E+00 -0.41654926050E+02  0.41654926050E+02  0.00000000000E+00 0. -1.
         25    2    1    2    0    0  0.54624759393E+02 -0.45543467074E+02  0.73938599024E+03  0.75324266786E+03  0.12499920954E+03 0.  0.
          4    1    3    3  501    0 -0.20051979295E+02  0.12877901600E+02  0.40415850402E+03  0.40486248467E+03  0.12700000000E+01 0.  1.
         -4    1    3    3    0  501  0.74676738689E+02 -0.58421368674E+02  0.33522748622E+03  0.34838018319E+03  0.12700000000E+01 0.  1.
          1    1    1    2  502    0 -0.36381874208E+02 -0.20619316129E+02 -0.21425325768E+02  0.46987674477E+02  0.00000000000E+00 0. -1.
          1    1    1    2  503    0 -0.18242885185E+02  0.66162783203E+02  0.22636759343E+04  0.22647161085E+04  0.00000000000E+00 0. -1.
<mgrwt>
<rscale>  0 0.53317429E+02</rscale>
<asrwt>0</asrwt>
<pdfrwt beam="1">  1        1 0.46512160E+00 0.67978049E+02</pdfrwt>
<pdfrwt beam="2">  1        1 0.64084525E-02 0.41818620E+02</pdfrwt>
<totfact> 0.10614990E+02</totfact>
</mgrwt>
</event>
<event>
 7    1  0.3113530E-004  0.4390565E+02  0.7546771E-02  0.1565712E+00
          1   -1    0    0  502    0  0.00000000000E+00  0.00000000000E+00  0.37999846630E+03  0.37999846630E+03  0.00000000000E+00 0. -1.
          1   -1    0    0  503    0 -0.00000000000E+00 -0.00000000000E+00 -0.62276938942E+03  0.62276938942E+03  0.00000000000E+00 0. -1.
         25    2    1    2    0    0 -0.12425720460E+02 -0.50712092503E+02 -0.45206427733E+02  0.14280932778E+03  0.12499907255E+03 0.  0.
          4    1    3    3  501    0  0.48773357927E+02 -0.25710340445E+02  0.10751296051E+02  0.56187768385E+02  0.12700000000E+01 0.  1.
         -4    1    3    3    0  501 -0.61199078387E+02 -0.25001752059E+02 -0.55957723783E+02  0.86621559398E+02  0.12700000000E+01 0.  1.
          1    1    1    2  502    0  0.23607895871E+02  0.82946801994E+01  0.32981246283E+03  0.33076032879E+03  0.00000000000E+00 0. -1.
          1    1    1    2  503    0 -0.11182175411E+02  0.42417412304E+02 -0.52737695822E+03  0.52919819914E+03  0.00000000000E+00 0. -1.
<mgrwt>
<rscale>  0 0.33145695E+02</rscale>
<asrwt>0</asrwt>
<pdfrwt beam="1">  1        1 0.58461303E-01 0.25022679E+02</pdfrwt>
<pdfrwt beam="2">  1        1 0.95810675E-01 0.43905655E+02</pdfrwt>
<totfact> 0.28236299E+02</totfact>
</mgrwt>
</event>
<event>
 7    1  0.3113530E-004  0.9605686E+02  0.7546771E-02  0.1313682E+00
          2   -1    0    0  503    0  0.00000000000E+00  0.00000000000E+00  0.11591216039E+03  0.11591216039E+03  0.00000000000E+00 0. -1.
          2   -1    0    0  502    0 -0.00000000000E+00 -0.00000000000E+00 -0.28494714885E+04  0.28494714885E+04  0.00000000000E+00 0. -1.
         25    2    1    2    0    0  0.41260019603E+02  0.14224811093E+03 -0.37090150273E+03  0.41848448400E+03  0.12499769735E+03 0.  0.
          4    1    3    3  501    0 -0.66061052066E+01  0.30359984959E+01 -0.16608708862E+03  0.16625099043E+03  0.12700000000E+01 0.  1.
         -4    1    3    3    0  501  0.47866124810E+02  0.13921211243E+03 -0.20481441411E+03  0.25223349357E+03  0.12700000000E+01 0.  1.
          2    1    1    2  502    0 -0.57806029026E+02 -0.49972213973E+02 -0.24301706812E+04  0.24313716908E+04  0.00000000000E+00 0. -1.
          2    1    1    2  503    0  0.16546009422E+02 -0.92275896955E+02  0.67512855762E+02  0.11552747413E+03  0.00000000000E+00 0. -1.
<mgrwt>
<rscale>  0 0.85673069E+02</rscale>
<asrwt>0</asrwt>
<pdfrwt beam="1">  1        2 0.17832639E-01 0.96056856E+02</pdfrwt>
<pdfrwt beam="2">  1        2 0.43838025E+00 0.76411774E+02</pdfrwt>
<totfact> 0.14560359E+02</totfact>
</mgrwt>
</event>
<event>
 7    1  0.3113530E-004  0.6962349E+02  0.7546771E-02  0.1371111E+00
          1   -1    0    0  503    0 -0.00000000000E+00  0.00000000000E+00  0.40023783996E+03  0.40023783996E+03  0.00000000000E+00 0. -1.
          2   -1    0    0  502    0  0.00000000000E+00 -0.00000000000E+00 -0.12583263332E+04  0.12583263332E+04  0.00000000000E+00 0.  1.
         25    2    1    2    0    0  0.43608633994E+02 -0.18613228455E+02  0.12073205845E+03  0.18013442297E+03  0.12499606062E+03 0.  0.
          4    1    3    3  501    0  0.10174248135E+02 -0.23552163142E+02  0.13923376562E+03  0.14158345279E+03  0.12700000000E+01 0.  1.
         -4    1    3    3    0  501  0.33434385859E+02  0.49389346873E+01 -0.18501707175E+02  0.38550970183E+02  0.12700000000E+01 0.  1.
          2    1    1    2  502    0  0.74889144867E+01  0.69219555537E+02 -0.12224379973E+04  0.12244190819E+04  0.00000000000E+00 0.  1.
          1    1    1    2  503    0 -0.51097548481E+02 -0.50606327082E+02  0.24361744564E+03  0.25401066833E+03  0.00000000000E+00 0. -1.
<mgrwt>
<rscale>  0 0.66859199E+02</rscale>
<asrwt>0</asrwt>
<pdfrwt beam="2">  1        2 0.19358866E+00 0.69623493E+02</pdfrwt>
<pdfrwt beam="1">  1        1 0.61575054E-01 0.64204657E+02</pdfrwt>
<totfact> 0.17115927E+02</totfact>
</mgrwt>
</event>
<event>
 7    1  0.3113530E-004  0.4228185E+02  0.7546771E-02  0.1505832E+00
          1   -1    0    0  503    0 -0.00000000000E+00  0.00000000000E+00  0.12847513984E+04  0.12847513984E+04  0.00000000000E+00 0. -1.
          2   -1    0    0  502    0  0.00000000000E+00 -0.00000000000E+00 -0.25176220760E+03  0.25176220760E+03  0.00000000000E+00 0. -1.
         25    2    1    2    0    0  0.14870831587E+02  0.52478997897E+02 -0.71273582513E+02  0.15388595362E+03  0.12500310518E+03 0.  0.
          4    1    3    3  501    0 -0.37266843459E+02 -0.23604827674E+02 -0.22156015360E+02  0.49381245706E+02  0.12700000000E+01 0. -1.
         -4    1    3    3    0  501  0.52137675046E+02  0.76083825570E+02 -0.49117567153E+02  0.10450470791E+03  0.12700000000E+01 0. -1.
          2    1    1    2  502    0  0.20429008344E+02 -0.37213698329E+02 -0.13564020628E+03  0.14212835497E+03  0.00000000000E+00 0. -1.
          1    1    1    2  503    0 -0.35299839931E+02 -0.15265299568E+02  0.12399029796E+04  0.12404992974E+04  0.00000000000E+00 0. -1.
<mgrwt>
<rscale>  0 0.40325243E+02</rscale>
<asrwt>0</asrwt>
<pdfrwt beam="2">  1        2 0.38732648E-01 0.42281854E+02</pdfrwt>
<pdfrwt beam="1">  1        1 0.19765406E+00 0.38459174E+02</pdfrwt>
<totfact> 0.20754393E+02</totfact>
</mgrwt>
</event>
<event>
 7    1  0.3113530E-004  0.7384087E+02  0.7546771E-02  0.1348329E+00
         -3   -1    0    0    0  501 -0.00000000000E+00  0.00000000000E+00  0.19319011840E+02  0.19319011840E+02  0.00000000000E+00 0.  1.
          2   -1    0    0  503    0  0.00000000000E+00 -0.00000000000E+00 -0.27678893446E+04  0.27678893446E+04  0.00000000000E+00 0. -1.
         25    2    1    2    0    0  0.52861861686E+02 -0.59819367886E+02 -0.47904469867E+03  0.50147796625E+03  0.12499437635E+03 0.  0.
          4    1    3    3  502    0  0.66532020525E+02 -0.26246909770E+02 -0.11365572159E+03  0.13429313451E+03  0.12700000000E+01 0.  1.
         -4    1    3    3    0  502 -0.13670158839E+02 -0.33572458117E+02 -0.36538897708E+03  0.36718483174E+03  0.12700000000E+01 0.  1.
          2    1    1    2  503    0 -0.74199669529E+02 -0.10871311393E+02 -0.20935204940E+04  0.20948632020E+04  0.00000000000E+00 0. -1.
         -3    1    1    2    0  501  0.21337807843E+02  0.70690679279E+02 -0.17600514005E+03  0.19086718813E+03  0.00000000000E+00 0.  1.
<mgrwt>
<rscale>  0 0.73579016E+02</rscale>
<asrwt>0</asrwt>
<pdfrwt beam="2">  1        2 0.42582919E+00 0.73318091E+02</pdfrwt>
<pdfrwt beam="1">  1       -3 0.29721553E-02 0.73840871E+02</pdfrwt>
<totfact> 0.94134661E+02</totfact>
</mgrwt>
</event>
<event>
 7    1  0.5684106E-004  0.9410614E+02  0.7546771E-02  0.1426327E+00
         -1   -1    0    0    0  501 -0.00000000000E+00  0.00000000000E+00  0.37844741436E+02  0.37844741436E+02  0.00000000000E+00 0.  1.
          2   -1    0    0  503    0  0.00000000000E+00 -0.00000000000E+00 -0.53633307357E+03  0.53633307357E+03  0.00000000000E+00 0. -1.
         25    2    1    2    0    0 -0.90768861577E+02 -0.35941698393E+02 -0.28548291311E+03  0.32658397242E+03  0.12500322175E+03 0.  0.
          4    1    3    3  502    0 -0.55957811867E+02 -0.71820499964E+02 -0.10348683273E+03  0.13784265803E+03  0.12700000000E+01 0. -1.
         -4    1    3    3    0  502 -0.34811049710E+02  0.35878801571E+02 -0.18199608038E+03  0.18874131439E+03  0.12700000000E+01 0. -1.
          2    1    1    2  503    0 -0.30352346264E+01  0.30497425037E+02 -0.70809305313E+02  0.77157393048E+02  0.00000000000E+00 0. -1.
         -1    1    1    2    0  501  0.93804096204E+02  0.54442733558E+01 -0.14219611372E+03  0.17043644954E+03  0.00000000000E+00 0.  1.
<mgrwt>
<rscale>  0 0.53704505E+02</rscale>
<asrwt>0</asrwt>
<pdfrwt beam="2">  1        2 0.82512784E-01 0.30648093E+02</pdfrwt>
<pdfrwt beam="1">  1       -1 0.58222677E-02 0.94106144E+02</pdfrwt>
<totfact> 0.86796107E+03</totfact>
</mgrwt>
</event>
<event>
 7    1  0.3113530E-004  0.1961204E+03  0.7546771E-02  0.1295616E+00
          2   -1    0    0  503    0  0.00000000000E+00  0.00000000000E+00  0.92269036355E+03  0.92269036355E+03  0.00000000000E+00 0. -1.
          2   -1    0    0  502    0 -0.00000000000E+00 -0.00000000000E+00 -0.35725449790E+03  0.35725449790E+03  0.00000000000E+00 0. -1.
         25    2    1    2    0    0  0.51094996302E+02 -0.15539337488E+03  0.18466793368E+03  0.27655810813E+03  0.12499736733E+03 0.  0.
          4    1    3    3  501    0 -0.81553514318E+01  0.18023923753E+02  0.33793724382E+02  0.39179079775E+02  0.12700000000E+01 0. -1.
         -4    1    3    3    0  501  0.59250347733E+02 -0.17341729863E+03  0.15087420930E+03  0.23737902836E+03  0.12700000000E+01 0. -1.
          2    1    1    2  502    0 -0.37396770084E+02  0.19736808121E+03 -0.27808780013E+03  0.34305320648E+03  0.00000000000E+00 0. -1.
          2    1    1    2  503    0 -0.13698226218E+02 -0.41974706337E+02  0.65885573209E+03  0.66033354684E+03  0.00000000000E+00 0. -1.
<mgrwt>
<rscale>  0 0.93055751E+02</rscale>
<asrwt>0</asrwt>
<pdfrwt beam="1">  1        2 0.14195236E+00 0.44153339E+02</pdfrwt>
<pdfrwt beam="2">  1        2 0.54962231E-01 0.19612045E+03</pdfrwt>
<totfact> 0.44842540E+02</totfact>
</mgrwt>
</event>
<event>
 7    1  0.3113530E-004  0.5513951E+02  0.7546771E-02  0.1430964E+00
          3   -1    0    0  503    0  0.00000000000E+00  0.00000000000E+00  0.12804565690E+03  0.12804565690E+03  0.00000000000E+00 0. -1.
         -1   -1    0    0    0  501 -0.00000000000E+00 -0.00000000000E+00 -0.13332547795E+04  0.13332547795E+04  0.00000000000E+00 0.  1.
         25    2    1    2    0    0 -0.23921845765E+02 -0.18602187083E+02 -0.71033987504E+02  0.14690030253E+03  0.12496229605E+03 0.  0.
          4    1    3    3  502    0  0.24585319784E+02  0.27819368354E+02  0.12976349242E+02  0.39349126346E+02  0.12700000000E+01 0.  1.
         -4    1    3    3    0  502 -0.48507165549E+02 -0.46421555437E+02 -0.84010336746E+02  0.10755117619E+03  0.12700000000E+01 0.  1.
          3    1    1    2  503    0  0.35349540079E+02 -0.36059941945E+02  0.82347080778E+02  0.96596848341E+02  0.00000000000E+00 0. -1.
         -1    1    1    2    0  501 -0.11427694314E+02  0.54662129028E+02 -0.12165222159E+04  0.12178032855E+04  0.00000000000E+00 0.  1.
<mgrwt>
<rscale>  0 0.52767026E+02</rscale>
<asrwt>0</asrwt>
<pdfrwt beam="1">  1        3 0.19699330E-01 0.50496628E+02</pdfrwt>
<pdfrwt beam="2">  1       -1 0.20511614E+00 0.55139505E+02</pdfrwt>
<totfact> 0.16501339E+01</totfact>
</mgrwt>
</event>
<event>
 7    1  0.3113530E-004  0.3956436E+02  0.7546771E-02  0.1598520E+00
          3   -1    0    0  503    0 -0.00000000000E+00  0.00000000000E+00  0.14942597153E+03  0.14942597153E+03  0.00000000000E+00 0. -1.
          2   -1    0    0  502    0  0.00000000000E+00 -0.00000000000E+00 -0.24709380045E+04  0.24709380045E+04  0.00000000000E+00 0. -1.
         25    2    1    2    0    0 -0.46362187509E+02 -0.39458930025E+02 -0.18844775737E+03  0.23419665883E+03  0.12501623158E+03 0.  0.
          4    1    3    3  501    0 -0.16894164722E+02 -0.25957343185E+01 -0.18614203323E+03  0.18692945213E+03  0.12700000000E+01 0. -1.
         -4    1    3    3    0  501 -0.29468022787E+02 -0.36863195706E+02 -0.23057241371E+01  0.47267206692E+02  0.12700000000E+01 0. -1.
          2    1    1    2  502    0  0.33487329535E+02  0.20777046862E+02 -0.22584255776E+04  0.22587693943E+04  0.00000000000E+00 0. -1.
          3    1    1    2  503    0  0.12874857974E+02  0.18681883163E+02  0.12536130201E+03  0.12739792293E+03  0.00000000000E+00 0. -1.
<mgrwt>
<rscale>  0 0.29961003E+02</rscale>
<asrwt>0</asrwt>
<pdfrwt beam="2">  1        2 0.38014431E+00 0.39564356E+02</pdfrwt>
<pdfrwt beam="1">  1        3 0.22988611E-01 0.22688648E+02</pdfrwt>
<totfact> 0.46573856E+01</totfact>
</mgrwt>
</event>
<event>
 7    1  0.3113530E-004  0.1699534E+03  0.7546771E-02  0.1372902E+00
         -1   -1    0    0    0  501 -0.00000000000E+00  0.00000000000E+00  0.18717085653E+03  0.18717085653E+03  0.00000000000E+00 0.  1.
          2   -1    0    0  503    0  0.00000000000E+00 -0.00000000000E+00 -0.41748748118E+04  0.41748748118E+04  0.00000000000E+00 0. -1.
         25    2    1    2    0    0 -0.17757796102E+03 -0.14763112632E+02 -0.84135828325E+02  0.23335671943E+03  0.12499855662E+03 0.  0.
          4    1    3    3  502    0 -0.16618456240E+03  0.30125614441E+02 -0.79871847449E+02  0.18683143831E+03  0.12700000000E+01 0. -1.
         -4    1    3    3    0  502 -0.11393398627E+02 -0.44888727074E+02 -0.42639808759E+01  0.46525281122E+02  0.12700000000E+01 0. -1.
          2    1    1    2  503    0  0.16555371317E+03  0.37721368082E+02 -0.40128171975E+04  0.40164079467E+04  0.00000000000E+00 0. -1.
         -1    1    1    2    0  501  0.12024247850E+02 -0.22958255450E+02  0.10924907059E+03  0.11228100220E+03  0.00000000000E+00 0.  1.
<mgrwt>
<rscale>  0 0.66367117E+02</rscale>
<asrwt>0</asrwt>
<pdfrwt beam="2">  1        2 0.64228845E+00 0.16995340E+03</pdfrwt>
<pdfrwt beam="1">  1       -1 0.28795515E-01 0.25916482E+02</pdfrwt>
<totfact> 0.42853133E+00</totfact>
</mgrwt>
</event>
<event>
 7    1  0.3113530E-004  0.6358025E+02  0.7546771E-02  0.1394275E+00
          2   -1    0    0  502    0  0.00000000000E+00  0.00000000000E+00  0.97578294941E+02  0.97578294941E+02  0.00000000000E+00 0. -1.
          2   -1    0    0  503    0 -0.00000000000E+00 -0.00000000000E+00 -0.14204976459E+04  0.14204976459E+04  0.00000000000E+00 0. -1.
         25    2    1    2    0    0 -0.54487509667E+02  0.22281219449E+02 -0.40219653309E+03  0.42526719980E+03  0.12499919419E+03 0.  0.
          4    1    3    3  501    0 -0.27862527993E+02  0.49745675302E+02 -0.67404211728E+02  0.88294356196E+02  0.12700000000E+01 0.  1.
         -4    1    3    3    0  501 -0.26624981675E+02 -0.27464455853E+02 -0.33479232136E+03  0.33697284361E+03  0.12700000000E+01 0.  1.
          2    1    1    2  502    0  0.53512663026E+02  0.35958656800E+02  0.72992021248E+02  0.97388219354E+02  0.00000000000E+00 0. -1.
          2    1    1    2  503    0  0.97484664168E+00 -0.58239876249E+02 -0.99371483915E+03  0.99542052171E+03  0.00000000000E+00 0. -1.
<mgrwt>
<rscale>  0 0.60855771E+02</rscale>
<asrwt>0</asrwt>
<pdfrwt beam="1">  1        2 0.15012047E-01 0.63580254E+02</pdfrwt>
<pdfrwt beam="2">  1        2 0.21853808E+00 0.58248034E+02</pdfrwt>
<totfact> 0.95508277E+02</totfact>
</mgrwt>
</event>
<event>
 7    1  0.3113530E-004  0.6014038E+02  0.7546771E-02  0.1399750E+00
          1   -1    0    0  502    0  0.00000000000E+00  0.00000000000E+00  0.10500473462E+04  0.10500473462E+04  0.00000000000E+00 0. -1.
          1   -1    0    0  503    0 -0.00000000000E+00 -0.00000000000E+00 -0.38217095164E+04  0.38217095164E+04  0.00000000000E+00 0. -1.
         25    2    1    2    0    0  0.17980881692E+02 -0.57127393991E+01  0.29332563357E+02  0.12979010211E+03  0.12501649425E+03 0.  0.
          4    1    3    3  501    0 -0.12696107732E+02  0.55761709434E+02  0.75157605646E+01  0.57694531347E+02  0.12700000000E+01 0.  1.
         -4    1    3    3    0  501  0.30676989424E+02 -0.61474448833E+02  0.21816802793E+02  0.72095570762E+02  0.12700000000E+01 0.  1.
          1    1    1    2  502    0  0.20475387609E+01  0.61162367502E+02  0.96929059525E+03  0.97122051340E+03  0.00000000000E+00 0. -1.
          1    1    1    2  503    0 -0.20028420453E+02 -0.55449628103E+02 -0.37702853288E+04  0.37707462470E+04  0.00000000000E+00 0. -1.
<mgrwt>
<rscale>  0 0.59545198E+02</rscale>
<asrwt>0</asrwt>
<pdfrwt beam="1">  1        1 0.16154575E+00 0.60140380E+02</pdfrwt>
<pdfrwt beam="2">  1        1 0.58795531E+00 0.58955906E+02</pdfrwt>
<totfact> 0.47404939E-01</totfact>
</mgrwt>
</event>
<event>
 7    1  0.3113530E-004  0.7791766E+02  0.7546771E-02  0.1511589E+00
          1   -1    0    0  502    0  0.00000000000E+00  0.00000000000E+00  0.12791114840E+04  0.12791114840E+04  0.00000000000E+00 0. -1.
          1   -1    0    0  503    0 -0.00000000000E+00 -0.00000000000E+00 -0.66194579667E+02  0.66194579667E+02  0.00000000000E+00 0. -1.
         25    2    1    2    0    0 -0.13185877008E+01  0.75994436758E+02  0.75474244489E+03  0.76879065309E+03  0.12500406819E+03 0.  0.
          4    1    3    3  501    0 -0.22540476041E+02  0.10661707138E+03  0.55472656899E+03  0.56533039208E+03  0.12700000000E+01 0.  1.
         -4    1    3    3    0  501  0.21221888340E+02 -0.30622634623E+02  0.20001587591E+03  0.20346026101E+03  0.12700000000E+01 0.  1.
          1    1    1    2  502    0 -0.20049096914E+02 -0.90928751389E+00  0.49130144326E+03  0.49171119698E+03  0.00000000000E+00 0. -1.
          1    1    1    2  503    0  0.21367684615E+02 -0.75085149244E+02 -0.33126983834E+02  0.84804213578E+02  0.00000000000E+00 0. -1.
<mgrwt>
<rscale>  0 0.39544716E+02</rscale>
<asrwt>0</asrwt>
<pdfrwt beam="1">  1        1 0.19678636E+00 0.20069706E+02</pdfrwt>
<pdfrwt beam="2">  1        1 0.10183782E-01 0.77917661E+02</pdfrwt>
<totfact> 0.87767594E+02</totfact>
</mgrwt>
</event>
<event>
 7    1  0.3113530E-004  0.2949502E+02  0.7546771E-02  0.1656666E+00
          2   -1    0    0  503    0  0.00000000000E+00  0.00000000000E+00  0.89577640326E+03  0.89577640326E+03  0.00000000000E+00 0. -1.
         -1   -1    0    0    0  501 -0.00000000000E+00 -0.00000000000E+00 -0.18096430046E+02  0.18096430046E+02  0.00000000000E+00 0.  1.
         25    2    1    2    0    0 -0.18619054954E+01  0.41272919499E+02  0.28093131478E+03  0.31024983795E+03  0.12500255097E+03 0.  0.
          4    1    3    3  502    0  0.84632832356E+01 -0.25569166272E+02  0.66795403813E+01  0.27778383443E+02  0.12700000000E+01 0.  1.
         -4    1    3    3    0  502 -0.10325188731E+02  0.66842085771E+02  0.27425177440E+03  0.28247145451E+03  0.12700000000E+01 0.  1.
          2    1    1    2  503    0 -0.13567007249E+02 -0.26000555116E+02  0.56122647195E+03  0.56199221113E+03  0.00000000000E+00 0. -1.
         -1    1    1    2    0  501  0.15428912745E+02 -0.15272364383E+02  0.35522186479E+02  0.41630784218E+02  0.00000000000E+00 0.  1.
<mgrwt>
<rscale>  0 0.25304509E+02</rscale>
<asrwt>0</asrwt>
<pdfrwt beam="1">  1        2 0.13781172E+00 0.29495022E+02</pdfrwt>
<pdfrwt beam="2">  1       -1 0.27840669E-02 0.21709363E+02</pdfrwt>
<totfact> 0.11637759E+04</totfact>
</mgrwt>
</event>
<event>
 7    1  0.3113530E-004  0.6373524E+02  0.7546771E-02  0.1426984E+00
          1   -1    0    0  503    0  0.00000000000E+00  0.00000000000E+00  0.14408627313E+04  0.14408627313E+04  0.00000000000E+00 0. -1.
         -2   -1    0    0    0  501 -0.00000000000E+00 -0.00000000000E+00 -0.21157117304E+02  0.21157117304E+02  0.00000000000E+00 0.  1.
         25    2    1    2    0    0 -0.80072355321E+02 -0.38231262870E+02  0.12133611905E+04  0.12230058664E+04  0.12499903650E+03 0.  0.
          4    1    3    3  502    0 -0.44567022562E+02  0.13270293045E+02  0.98873613671E+03  0.98982982432E+03  0.12700000000E+01 0. -1.
         -4    1    3    3    0  502 -0.35505332759E+02 -0.51501555916E+02  0.22462505374E+03  0.23317604204E+03  0.12700000000E+01 0. -1.
          1    1    1    2  503    0  0.35330860866E+02  0.33174753133E+02  0.18093382247E+03  0.18731225825E+03  0.00000000000E+00 0. -1.
         -2    1    1    2    0  501  0.44741494455E+02  0.50565097375E+01  0.25410601072E+02  0.51701723991E+02  0.00000000000E+00 0.  1.
<mgrwt>
<rscale>  0 0.53570174E+02</rscale>
<asrwt>0</asrwt>
<pdfrwt beam="1">  1        1 0.22167111E+00 0.63735244E+02</pdfrwt>
<pdfrwt beam="2">  1       -2 0.32549423E-02 0.45026321E+02</pdfrwt>
<totfact> 0.24102885E+03</totfact>
</mgrwt>
</event>
<event>
 7    1  0.3113530E-004  0.4378853E+02  0.7546771E-02  0.1578454E+00
          1   -1    0    0  502    0  0.00000000000E+00  0.00000000000E+00  0.12328544857E+04  0.12328544857E+04  0.00000000000E+00 0. -1.
          1   -1    0    0  503    0 -0.00000000000E+00 -0.00000000000E+00 -0.92319692288E+02  0.92319692288E+02  0.00000000000E+00 0. -1.
         25    2    1    2    0    0 -0.56077334066E+02  0.21451588834E+02  0.18400701661E+03  0.23040868554E+03  0.12499896860E+03 0.  0.
          4    1    3    3  501    0 -0.81129837730E+02  0.46157461468E+02  0.88556997346E+02  0.12867212790E+03  0.12700000000E+01 0.  1.
         -4    1    3    3    0  501  0.25052503664E+02 -0.24705872634E+02  0.95450019264E+02  0.10173655764E+03  0.12700000000E+01 0.  1.
          1    1    1    2  502    0  0.12781148714E+02 -0.19328703911E+02  0.10187053931E+04  0.10189689075E+04  0.00000000000E+00 0. -1.
          1    1    1    2  503    0  0.43296185352E+02 -0.21228849226E+01 -0.62177616343E+02  0.75796584887E+02  0.00000000000E+00 0. -1.
<mgrwt>
<rscale>  0 0.31854071E+02</rscale>
<asrwt>0</asrwt>
<pdfrwt beam="1">  1        1 0.18966991E+00 0.23172323E+02</pdfrwt>
<pdfrwt beam="2">  1        1 0.14203030E-01 0.43788525E+02</pdfrwt>
<totfact> 0.58285569E+02</totfact>
</mgrwt>
</event>
<event>
 7    1  0.3113530E-004  0.6389485E+02  0.7546771E-02  0.1489637E+00
         -2   -1    0    0    0  501 -0.00000000000E+00  0.00000000000E+00  0.52994334751E+03  0.52994334751E+03  0.00000000000E+00 0. -1.
          2   -1    0    0  503    0  0.00000000000E+00 -0.00000000000E+00 -0.29708348123E+03  0.29708348123E+03  0.00000000000E+00 0. -1.
         25    2    1    2    0    0  0.43273979293E+02  0.26904100153E+02  0.30288084207E+03  0.33159011634E+03  0.12497492897E+03 0.  0.
          4    1    3    3  502    0  0.79848664941E+02 -0.12783696045E+02  0.18792539082E+03  0.20458933890E+03  0.12700000000E+01 0. -1.
         -4    1    3    3    0  502 -0.36574685648E+02  0.39687796198E+02  0.11495545125E+03  0.12700077743E+03  0.12700000000E+01 0. -1.
          2    1    1    2  503    0  0.25407385187E+02 -0.12813290114E+02 -0.27620044772E+03  0.27766239022E+03  0.00000000000E+00 0. -1.
         -2    1    1    2    0  501 -0.68681364480E+02 -0.14090810039E+02  0.20617947193E+03  0.21777432218E+03  0.00000000000E+00 0. -1.
<mgrwt>
<rscale>  0 0.42639888E+02</rscale>
<asrwt>0</asrwt>
<pdfrwt beam="2">  1        2 0.45705151E-01 0.28455503E+02</pdfrwt>
<pdfrwt beam="1">  1       -2 0.81529746E-01 0.63894851E+02</pdfrwt>
<totfact> 0.15356731E+02</totfact>
</mgrwt>
</event>
<event>
 7    1  0.3113530E-004  0.3861980E+02  0.7546771E-02  0.1531760E+00
          2   -1    0    0  502    0  0.00000000000E+00  0.00000000000E+00  0.99891424848E+02  0.99891424848E+02  0.00000000000E+00 0. -1.
          1   -1    0    0  503    0 -0.00000000000E+00 -0.00000000000E+00 -0.15155638750E+04  0.15155638750E+04  0.00000000000E+00 0.  1.
         25    2    1    2    0    0  0.10950130283E+02  0.35214385646E+01 -0.63734609283E+03  0.64958388017E+03  0.12496747357E+03 0.  0.
          4    1    3    3  501    0  0.78115355212E+01  0.43889907858E+02 -0.56427554508E+03  0.56603520011E+03  0.12700000000E+01 0. -1.
         -4    1    3    3    0  501  0.31385947614E+01 -0.40368469293E+02 -0.73070547751E+02  0.83548680054E+02  0.12700000000E+01 0. -1.
          2    1    1    2  502    0 -0.53216091437E+01 -0.38464274414E+02  0.89376349648E+02  0.97447174441E+02  0.00000000000E+00 0. -1.
          1    1    1    2  503    0 -0.56285211389E+01  0.34942835849E+02 -0.86770270695E+03  0.86842424521E+03  0.00000000000E+00 0.  1.
<mgrwt>
<rscale>  0 0.36971342E+02</rscale>
<asrwt>0</asrwt>
<pdfrwt beam="1">  1        2 0.15367912E-01 0.38619799E+02</pdfrwt>
<pdfrwt beam="2">  1        1 0.23316366E+00 0.35393248E+02</pdfrwt>
<totfact> 0.40046597E+02</totfact>
</mgrwt>
</event>
<event>
 7    1  0.3113530E-004  0.4784280E+02  0.7546771E-02  0.1514793E+00
          1   -1    0    0  503    0  0.00000000000E+00  0.00000000000E+00  0.28713853021E+04  0.28713853021E+04  0.00000000000E+00 0. -1.
         -1   -1    0    0    0  501 -0.00000000000E+00 -0.00000000000E+00 -0.62902414052E+01  0.62902414052E+01  0.00000000000E+00 0.  1.
         25    2    1    2    0    0 -0.53247161753E+02  0.55004103806E+02  0.13606376048E+04  0.13685099493E+04  0.12499631217E+03 0.  0.
          4    1    3    3  502    0 -0.14493742313E+02  0.65063380880E+02  0.30904225929E+03  0.31615193029E+03  0.12700000000E+01 0. -1.
         -4    1    3    3    0  502 -0.38753419440E+02 -0.10059277073E+02  0.10515953455E+04  0.10523580190E+04  0.12700000000E+01 0. -1.
          1    1    1    2  503    0  0.34666865450E+02 -0.28967240254E+02  0.13775017544E+04  0.13782423502E+04  0.00000000000E+00 0. -1.
         -1    1    1    2    0  501  0.18580296303E+02 -0.26036863552E+02  0.12695570151E+03  0.13092324401E+03  0.00000000000E+00 0.  1.
<mgrwt>
<rscale>  0 0.39119442E+02</rscale>
<asrwt>0</asrwt>
<pdfrwt beam="1">  1        1 0.44175054E+00 0.47842797E+02</pdfrwt>
<pdfrwt beam="2">  1       -1 0.96773174E-03 0.31986648E+02</pdfrwt>
<totfact> 0.16404399E+03</totfact>
</mgrwt>
</event>
<event>
 7    1  0.3113530E-004  0.3856198E+02  0.7546771E-02  0.1603140E+00
          2   -1    0    0  503    0  0.00000000000E+00  0.00000000000E+00  0.38705556378E+03  0.38705556378E+03  0.00000000000E+00 0. -1.
         -1   -1    0    0    0  501 -0.00000000000E+00 -0.00000000000E+00 -0.39877874357E+02  0.39877874357E+02  0.00000000000E+00 0.  1.
         25    2    1    2    0    0  0.15045060334E+02  0.31621391615E+02  0.30065501729E+03  0.32748325064E+03  0.12500229509E+03 0.  0.
          4    1    3    3  502    0  0.59991707037E+02 -0.17859049915E+02  0.13342045564E+03  0.14737904010E+03  0.12700000000E+01 0.  1.
         -4    1    3    3    0  502 -0.44946646703E+02  0.49480441530E+02  0.16723456165E+03  0.18010421054E+03  0.12700000000E+01 0.  1.
          2    1    1    2  503    0 -0.35786990789E+02 -0.22544689903E+02  0.59767475988E+02  0.73219689555E+02  0.00000000000E+00 0. -1.
         -1    1    1    2    0  501  0.20741930455E+02 -0.90767017117E+01 -0.13244803859E+02  0.26230497941E+02  0.00000000000E+00 0.  1.
<mgrwt>
<rscale>  0 0.29547949E+02</rscale>
<asrwt>0</asrwt>
<pdfrwt beam="1">  1        2 0.59547007E-01 0.38561985E+02</pdfrwt>
<pdfrwt beam="2">  1       -1 0.61350579E-02 0.22640985E+02</pdfrwt>
<totfact> 0.96174697E+03</totfact>
</mgrwt>
</event>
<event>
 7    1  0.3113530E-004  0.8277285E+02  0.7546771E-02  0.1323965E+00
          2   -1    0    0  503    0  0.00000000000E+00  0.00000000000E+00  0.34121635121E+03  0.34121635121E+03  0.00000000000E+00 0. -1.
          2   -1    0    0  502    0 -0.00000000000E+00 -0.00000000000E+00 -0.79437907096E+03  0.79437907096E+03  0.00000000000E+00 0. -1.
         25    2    1    2    0    0 -0.43091945650E+02 -0.56681074947E+02 -0.14466926310E+01  0.14386258598E+03  0.12499876275E+03 0.  0.
          4    1    3    3  501    0 -0.51179958768E+02  0.10721432438E+02  0.38624967983E+02  0.65021829756E+02  0.12700000000E+01 0. -1.
         -4    1    3    3    0  501  0.80880131180E+01 -0.67402507385E+02 -0.40071660614E+02  0.78840756227E+02  0.12700000000E+01 0. -1.
          2    1    1    2  502    0  0.77381936612E+02 -0.23521382050E+02 -0.71233141698E+03  0.71690813020E+03  0.00000000000E+00 0. -1.
          2    1    1    2  503    0 -0.34289990961E+02  0.80202456996E+02  0.26061538986E+03  0.27482470598E+03  0.00000000000E+00 0. -1.
<mgrwt>
<rscale>  0 0.81819843E+02</rscale>
<asrwt>0</asrwt>
<pdfrwt beam="1">  1        2 0.52494824E-01 0.82772853E+02</pdfrwt>
<pdfrwt beam="2">  1        2 0.12221216E+00 0.80877806E+02</pdfrwt>
<totfact> 0.55189541E+02</totfact>
</mgrwt>
</event>
<event>
 7    1  0.3113530E-004  0.6475598E+02  0.7546771E-02  0.1469745E+00
          2   -1    0    0  503    0  0.00000000000E+00  0.00000000000E+00  0.29769074911E+03  0.29769074911E+03  0.00000000000E+00 0. -1.
         -2   -1    0    0    0  501 -0.00000000000E+00 -0.00000000000E+00 -0.13355145501E+03  0.13355145501E+03  0.00000000000E+00 0.  1.
         25    2    1    2    0    0  0.21965200001E+02  0.40607165128E+02  0.61428674469E+01  0.13340519018E+03  0.12501119180E+03 0.  0.
          4    1    3    3  502    0 -0.62123663811E+00  0.84119050963E+02  0.14954023721E+01  0.84144220230E+02  0.12700000000E+01 0.  1.
         -4    1    3    3    0  502  0.22586436639E+02 -0.43511885835E+02  0.46474650748E+01  0.49260969952E+02  0.12700000000E+01 0.  1.
          2    1    1    2  503    0  0.32015434570E+02  0.43886053864E+01  0.20869577810E+03  0.21118280163E+03  0.00000000000E+00 0. -1.
         -2    1    1    2    0  501 -0.53980634570E+02 -0.44995770515E+02 -0.50699351449E+02  0.86654212305E+02  0.00000000000E+00 0.  1.
<mgrwt>
<rscale>  0 0.45744705E+02</rscale>
<asrwt>0</asrwt>
<pdfrwt beam="1">  1        2 0.45798576E-01 0.32314825E+02</pdfrwt>
<pdfrwt beam="2">  1       -2 0.20546378E-01 0.64755976E+02</pdfrwt>
<totfact> 0.20674996E+03</totfact>
</mgrwt>
</event>
<event>
 7    1  0.3113530E-004  0.6402190E+02  0.7546771E-02  0.1472414E+00
         -1   -1    0    0    0  501 -0.00000000000E+00  0.00000000000E+00  0.22298110651E+03  0.22298110651E+03  0.00000000000E+00 0.  1.
          2   -1    0    0  503    0  0.00000000000E+00 -0.00000000000E+00 -0.73587955120E+02  0.73587955120E+02  0.00000000000E+00 0. -1.
         25    2    1    2    0    0 -0.13996757607E+02  0.62220189248E+02  0.13002401028E+03  0.19130647624E+03  0.12499865371E+03 0.  0.
          4    1    3    3  502    0 -0.99807885728E+00  0.67375362352E+02  0.73080059436E+01  0.67789788792E+02  0.12700000000E+01 0.  1.
         -4    1    3    3    0  502 -0.12998678750E+02 -0.51551731041E+01  0.12271600433E+03  0.12351668745E+03  0.12700000000E+01 0.  1.
          2    1    1    2  503    0  0.43216506398E+02 -0.49009015858E+02 -0.41825414953E+01  0.65475519959E+02  0.00000000000E+00 0. -1.
         -1    1    1    2    0  501 -0.29219748791E+02 -0.13211173391E+02  0.23551682607E+02  0.39787065428E+02  0.00000000000E+00 0.  1.
<mgrwt>
<rscale>  0 0.45310337E+02</rscale>
<asrwt>0</asrwt>
<pdfrwt beam="2">  1        2 0.11321224E-01 0.64021902E+02</pdfrwt>
<pdfrwt beam="1">  1       -1 0.34304785E-01 0.32067567E+02</pdfrwt>
<totfact> 0.45288185E+03</totfact>
</mgrwt>
</event>
<event>
 7    1  0.3113530E-004  0.9243648E+02  0.7546771E-02  0.1341486E+00
          2   -1    0    0  503    0  0.00000000000E+00  0.00000000000E+00  0.59476392312E+03  0.59476392312E+03  0.00000000000E+00 0. -1.
         -1   -1    0    0    0  501 -0.00000000000E+00 -0.00000000000E+00 -0.58163946334E+03  0.58163946334E+03  0.00000000000E+00 0.  1.
         25    2    1    2    0    0 -0.88519956537E+02 -0.12021038316E+03  0.30064518284E+01  0.19472890968E+03  0.12499596228E+03 0.  0.
          4    1    3    3  502    0 -0.54720167432E+01 -0.90743333771E+02  0.39774471355E+02  0.99236671965E+02  0.12700000000E+01 0. -1.
         -4    1    3    3    0  502 -0.83047939794E+02 -0.29467049389E+02 -0.36768019526E+02  0.95492237714E+02  0.12700000000E+01 0. -1.
          2    1    1    2  503    0  0.24036781827E+02  0.57278612246E+02  0.48973935174E+03  0.49366308242E+03  0.00000000000E+00 0. -1.
         -1    1    1    2    0  501  0.64483174710E+02  0.62931770913E+02 -0.47962134379E+03  0.48801139436E+03  0.00000000000E+00 0.  1.
<mgrwt>
<rscale>  0 0.75775589E+02</rscale>
<asrwt>0</asrwt>
<pdfrwt beam="1">  1        2 0.91502142E-01 0.62117681E+02</pdfrwt>
<pdfrwt beam="2">  1       -1 0.89482995E-01 0.92436482E+02</pdfrwt>
<totfact> 0.81241734E+01</totfact>
</mgrwt>
</event>
<event>
 7    1  0.3113530E-004  0.6179971E+02  0.7546771E-02  0.1427270E+00
         -2   -1    0    0    0  501  0.00000000000E+00  0.00000000000E+00  0.83680405540E+02  0.83680405540E+02  0.00000000000E+00 0.  1.
         -1   -1    0    0    0  502 -0.00000000000E+00 -0.00000000000E+00 -0.38265413468E+03  0.38265413468E+03  0.00000000000E+00 0.  1.
         25    2    1    2    0    0  0.19003346513E+01  0.68360782781E+02 -0.13924235827E+03  0.19922578656E+03  0.12500268716E+03 0.  0.
          4    1    3    3  503    0  0.79321083770E+01 -0.21422733992E+02 -0.97269814177E+02  0.99924379033E+02  0.12700000000E+01 0. -1.
         -4    1    3    3    0  503 -0.60317737257E+01  0.89783516774E+02 -0.41972544094E+02  0.99301407524E+02  0.12700000000E+01 0. -1.
         -2    1    1    2    0  501 -0.41973963399E+02 -0.19625639553E+02  0.37766566483E+02  0.59777026316E+02  0.00000000000E+00 0.  1.
         -1    1    1    2    0  502  0.40073628748E+02 -0.48735143228E+02 -0.19749793736E+03  0.20733172735E+03  0.00000000000E+00 0.  1.
<mgrwt>
<rscale>  0 0.53511876E+02</rscale>
<asrwt>0</asrwt>
<pdfrwt beam="1">  1       -2 0.12873909E-01 0.46335508E+02</pdfrwt>
<pdfrwt beam="2">  1       -1 0.58869866E-01 0.61799708E+02</pdfrwt>
<totfact> 0.91034968E+02</totfact>
</mgrwt>
</event>
<event>
 7    1  0.3113530E-004  0.1051965E+03  0.7546771E-02  0.1328927E+00
          2   -1    0    0  503    0  0.00000000000E+00  0.00000000000E+00  0.49093649678E+03  0.49093649678E+03  0.00000000000E+00 0. -1.
          2   -1    0    0  502    0 -0.00000000000E+00 -0.00000000000E+00 -0.39991655902E+03  0.39991655902E+03  0.00000000000E+00 0. -1.
         25    2    1    2    0    0 -0.14466074817E+03 -0.28227798328E+02 -0.12672620503E+03  0.23110030282E+03  0.12499711302E+03 0.  0.
          4    1    3    3  501    0 -0.13886305914E+03 -0.64990189085E+02 -0.85524564140E+02  0.17556405624E+03  0.12700000000E+01 0.  1.
         -4    1    3    3    0  501 -0.57976890287E+01  0.36762390757E+02 -0.41201640894E+02  0.55536246583E+02  0.12700000000E+01 0.  1.
          2    1    1    2  502    0  0.55431525257E+02 -0.25235374058E+02 -0.21045885209E+03  0.21909451503E+03  0.00000000000E+00 0. -1.
          2    1    1    2  503    0  0.89229222915E+02  0.53463172386E+02  0.42820499488E+03  0.44065823794E+03  0.00000000000E+00 0. -1.
<mgrwt>
<rscale>  0 0.80044016E+02</rscale>
<asrwt>0</asrwt>
<pdfrwt beam="1">  1        2 0.75528691E-01 0.10519651E+03</pdfrwt>
<pdfrwt beam="2">  1        2 0.61525625E-01 0.60905485E+02</pdfrwt>
<totfact> 0.80333361E+02</totfact>
</mgrwt>
</event>
<event>
 7    1  0.3113530E-004  0.2664141E+02  0.7546771E-02  0.1646346E+00
          2   -1    0    0  503    0  0.00000000000E+00  0.00000000000E+00  0.12576214409E+04  0.12576214409E+04  0.00000000000E+00 0. -1.
         -1   -1    0    0    0  501 -0.00000000000E+00 -0.00000000000E+00 -0.95675080748E+01  0.95675080748E+01  0.00000000000E+00 0.  1.
         25    2    1    2    0    0 -0.12171235296E+01 -0.23213476619E+01  0.47691749888E+03  0.49303211871E+03  0.12499399706E+03 0.  0.
          4    1    3    3  502    0 -0.13997965226E+02  0.12973992760E+02  0.47209902013E+03  0.47248636512E+03  0.12700000000E+01 0. -1.
         -4    1    3    3    0  502  0.12780841696E+02 -0.15295340422E+02  0.48184787449E+01  0.20545753588E+02  0.12700000000E+01 0. -1.
          2    1    1    2  503    0  0.24709393053E+02  0.12172439820E+02  0.63864109304E+03  0.63923483018E+03  0.00000000000E+00 0. -1.
         -1    1    1    2    0  501 -0.23492269523E+02 -0.98510921585E+01  0.13249534094E+03  0.13492200011E+03  0.00000000000E+00 0.  1.
<mgrwt>
<rscale>  0 0.26051226E+02</rscale>
<asrwt>0</asrwt>
<pdfrwt beam="1">  1        2 0.19348009E+00 0.26641406E+02</pdfrwt>
<pdfrwt beam="2">  1       -1 0.14719253E-02 0.25474119E+02</pdfrwt>
<totfact> 0.18455228E+04</totfact>
</mgrwt>
</event>
<event>
 7    1  0.3113530E-004  0.6305391E+02  0.7546771E-02  0.1401711E+00
          1   -1    0    0  503    0 -0.00000000000E+00  0.00000000000E+00  0.17719257163E+04  0.17719257163E+04  0.00000000000E+00 0. -1.
          2   -1    0    0  502    0  0.00000000000E+00 -0.00000000000E+00 -0.42052105573E+03  0.42052105573E+03  0.00000000000E+00 0. -1.
         25    2    1    2    0    0  0.76377173812E+00 -0.10028504081E+02 -0.76243546402E+02  0.14676338562E+03  0.12500103499E+03 0.  0.
          4    1    3    3  501    0  0.48136472464E+02 -0.41247448237E+02 -0.19075257820E+02  0.66211406330E+02  0.12700000000E+01 0.  1.
         -4    1    3    3    0  501 -0.47372700726E+02  0.31218944156E+02 -0.57168288582E+02  0.80551979291E+02  0.12700000000E+01 0.  1.
          2    1    1    2  502    0 -0.32763412951E+02 -0.44631652954E+02 -0.30595463392E+03  0.31092388729E+03  0.00000000000E+00 0. -1.
          1    1    1    2  503    0  0.31999641213E+02  0.54660157035E+02  0.17336028408E+04  0.17347594991E+04  0.00000000000E+00 0. -1.
<mgrwt>
<rscale>  0 0.59085202E+02</rscale>
<asrwt>0</asrwt>
<pdfrwt beam="2">  1        2 0.64695548E-01 0.55366286E+02</pdfrwt>
<pdfrwt beam="1">  1        1 0.27260395E+00 0.63053915E+02</pdfrwt>
<totfact> 0.58178425E+01</totfact>
</mgrwt>
</event>
<event>
 7    1  0.3113530E-004  0.4799205E+02  0.7546771E-02  0.1557080E+00
          2   -1    0    0  503    0  0.00000000000E+00  0.00000000000E+00  0.70183600529E+03  0.70183600529E+03  0.00000000000E+00 0. -1.
         -1   -1    0    0    0  501 -0.00000000000E+00 -0.00000000000E+00 -0.61287997578E+02  0.61287997578E+02  0.00000000000E+00 0.  1.
         25    2    1    2    0    0 -0.30207089940E+02 -0.47251130752E+02  0.23895124277E+02  0.13908085819E+03  0.12500948169E+03 0.  0.
          4    1    3    3  502    0 -0.23204762913E+02  0.26325211057E+02  0.49641246735E+02  0.60805789497E+02  0.12700000000E+01 0. -1.
         -4    1    3    3    0  502 -0.70023270274E+01 -0.73576341809E+02 -0.25746122457E+02  0.78275068696E+02  0.12700000000E+01 0. -1.
          2    1    1    2  503    0 -0.90984917080E+00  0.24159954852E+02  0.50994222982E+03  0.51051504288E+03  0.00000000000E+00 0. -1.
         -1    1    1    2    0  501  0.31116939111E+02  0.23091175900E+02  0.10671065361E+03  0.11352810180E+03  0.00000000000E+00 0.  1.
<mgrwt>
<rscale>  0 0.34063289E+02</rscale>
<asrwt>0</asrwt>
<pdfrwt beam="1">  1        2 0.10797476E+00 0.24177081E+02</pdfrwt>
<pdfrwt beam="2">  1       -1 0.94289232E-02 0.47992050E+02</pdfrwt>
<totfact> 0.30395256E+03</totfact>
</mgrwt>
</event>
<event>
 7    1  0.3113530E-004  0.4674546E+02  0.7546771E-02  0.1478166E+00
          2   -1    0    0  503    0  0.00000000000E+00  0.00000000000E+00  0.25309680189E+03  0.25309680189E+03  0.00000000000E+00 0. -1.
         -1   -1    0    0    0  501 -0.00000000000E+00 -0.00000000000E+00 -0.17236598299E+03  0.17236598299E+03  0.00000000000E+00 0.  1.
         25    2    1    2    0    0 -0.61872514981E+02 -0.49411393186E+02 -0.23163218101E+02  0.14977510579E+03  0.12500541490E+03 0.  0.
          4    1    3    3  502    0 -0.34966376153E+02  0.49141444616E+01  0.45864865288E+02  0.57896416513E+02  0.12700000000E+01 0.  1.
         -4    1    3    3    0  502 -0.26906138828E+02 -0.54325537647E+02 -0.69028083389E+02  0.91878689279E+02  0.12700000000E+01 0.  1.
          2    1    1    2  503    0  0.44573906112E+02  0.10964664308E+02  0.18158387438E+03  0.18729591668E+03  0.00000000000E+00 0. -1.
         -1    1    1    2    0  501  0.17298608869E+02  0.38446728877E+02 -0.77689837381E+02  0.88391762413E+02  0.00000000000E+00 0.  1.
<mgrwt>
<rscale>  0 0.44393111E+02</rscale>
<asrwt>0</asrwt>
<pdfrwt beam="1">  1        2 0.38937969E-01 0.46745461E+02</pdfrwt>
<pdfrwt beam="2">  1       -1 0.26517844E-01 0.42159137E+02</pdfrwt>
<totfact> 0.17671917E+03</totfact>
</mgrwt>
</event>
<event>
 7    1  0.3113530E-004  0.8917622E+02  0.7546771E-02  0.1401995E+00
         -1   -1    0    0    0  501 -0.00000000000E+00  0.00000000000E+00  0.56156496247E+02  0.56156496247E+02  0.00000000000E+00 0.  1.
          1   -1    0    0  503    0  0.00000000000E+00 -0.00000000000E+00 -0.36574038020E+03  0.36574038020E+03  0.00000000000E+00 0. -1.
         25    2    1    2    0    0  0.72045875707E+01 -0.93111385204E+02 -0.16136992160E+03  0.22446372183E+03  0.12498829819E+03 0.  0.
          4    1    3    3  502    0  0.17195584228E+02 -0.12179509823E+03 -0.11130667580E+03  0.16589310729E+03  0.12700000000E+01 0.  1.
         -4    1    3    3    0  502 -0.99909966578E+01  0.28683713028E+02 -0.50063245801E+02  0.58570614539E+02  0.12700000000E+01 0.  1.
          1    1    1    2  503    0 -0.43461401595E+02  0.78580281946E+02 -0.88505314965E+02  0.12608308735E+03  0.00000000000E+00 0. -1.
         -1    1    1    2    0  501  0.36256814024E+02  0.14531103258E+02 -0.59708647384E+02  0.71350067257E+02  0.00000000000E+00 0.  1.
<mgrwt>
<rscale>  0 0.59019088E+02</rscale>
<asrwt>0</asrwt>
<pdfrwt beam="2">  1        1 0.56267752E-01 0.89176220E+02</pdfrwt>
<pdfrwt beam="1">  1       -1 0.86394608E-02 0.39060332E+02</pdfrwt>
<totfact> 0.45475346E+03</totfact>
</mgrwt>
</event>
<event>
 7    1  0.3113530E-004  0.1172627E+03  0.7546771E-02  0.1415093E+00
          2   -1    0    0  503    0  0.00000000000E+00  0.00000000000E+00  0.19112815348E+04  0.19112815348E+04  0.00000000000E+00 0. -1.
         -3   -1    0    0    0  501 -0.00000000000E+00 -0.00000000000E+00 -0.91560033908E+02  0.91560033908E+02  0.00000000000E+00 0.  1.
         25    2    1    2    0    0  0.13166067140E+03  0.55239294595E+02  0.12037700224E+03  0.22473667389E+03  0.12502014983E+03 0.  0.
          4    1    3    3  502    0  0.59296096623E+02  0.21845173916E+01 -0.16013028017E+02  0.61472181979E+02  0.12700000000E+01 0. -1.
         -4    1    3    3    0  502  0.72364574781E+02  0.53054777204E+02  0.13639003025E+03  0.16326449191E+03  0.12700000000E+01 0. -1.
          2    1    1    2  503    0 -0.10569702265E+03 -0.48544366717E+02  0.17319722501E+04  0.17358733511E+04  0.00000000000E+00 0. -1.
         -3    1    1    2    0  501 -0.25963648757E+02 -0.66949278782E+01 -0.32627751441E+02  0.42231543663E+02  0.00000000000E+00 0.  1.
<mgrwt>
<rscale>  0 0.56072785E+02</rscale>
<asrwt>0</asrwt>
<pdfrwt beam="1">  1        2 0.29404328E+00 0.11726273E+03</pdfrwt>
<pdfrwt beam="2">  1       -3 0.14086160E-01 0.26812928E+02</pdfrwt>
<totfact> 0.18033172E+02</totfact>
</mgrwt>
</event>
<event>
 7    1  0.3113530E-004  0.9523034E+02  0.7546771E-02  0.1305988E+00
          1   -1    0    0  503    0 -0.00000000000E+00  0.00000000000E+00  0.36084190864E+03  0.36084190864E+03  0.00000000000E+00 0. -1.
          2   -1    0    0  502    0  0.00000000000E+00 -0.00000000000E+00 -0.17143550466E+03  0.17143550466E+03  0.00000000000E+00 0.  1.
         25    2    1    2    0    0  0.48047619199E+02  0.41391721028E+02  0.57154172474E+02  0.15140805119E+03  0.12504379334E+03 0.  0.
          4    1    3    3  501    0 -0.31373062081E+02  0.93898836231E+01  0.57026424389E+02  0.65772828109E+02  0.12700000000E+01 0. -1.
         -4    1    3    3    0  501  0.79420681280E+02  0.32001837405E+02  0.12774808429E+00  0.85635223080E+02  0.12700000000E+01 0. -1.
          2    1    1    2  502    0  0.14421160570E+01 -0.10758615818E+03 -0.92192434143E+02  0.14169088201E+03  0.00000000000E+00 0.  1.
          1    1    1    2  503    0 -0.49489735256E+02  0.66194437154E+02  0.22444466565E+03  0.23917848010E+03  0.00000000000E+00 0. -1.
<mgrwt>
<rscale>  0 0.88717182E+02</rscale>
<asrwt>0</asrwt>
<pdfrwt beam="2">  1        2 0.26374693E-01 0.95230338E+02</pdfrwt>
<pdfrwt beam="1">  1        1 0.55514139E-01 0.82649485E+02</pdfrwt>
<totfact> 0.18723958E+03</totfact>
</mgrwt>
</event>
<event>
 7    1  0.3113530E-004  0.1250492E+03  0.7546771E-02  0.1432180E+00
          2   -1    0    0  502    0  0.00000000000E+00  0.00000000000E+00  0.17757427567E+04  0.17757427567E+04  0.00000000000E+00 0. -1.
          3   -1    0    0  503    0 -0.00000000000E+00 -0.00000000000E+00 -0.14038250198E+03  0.14038250198E+03  0.00000000000E+00 0. -1.
         25    2    1    2    0    0  0.10552304350E+03 -0.36635733564E+02  0.18288120875E+03  0.24808940156E+03  0.12500209986E+03 0.  0.
          4    1    3    3  501    0  0.38416298791E+02  0.46768774051E+02  0.68822443115E+02  0.91658451958E+02  0.12700000000E+01 0. -1.
         -4    1    3    3    0  501  0.67106744707E+02 -0.83404507615E+02  0.11405876564E+03  0.15643094960E+03  0.12700000000E+01 0. -1.
          2    1    1    2  502    0  0.85767320246E+01 -0.20326814935E+02  0.15224251597E+04  0.15225850080E+04  0.00000000000E+00 0. -1.
          3    1    1    2  503    0 -0.11409977552E+03  0.56962548499E+02 -0.69946113674E+02  0.14545084917E+03  0.00000000000E+00 0. -1.
<mgrwt>
<rscale>  0 0.52524831E+02</rscale>
<asrwt>0</asrwt>
<pdfrwt beam="1">  1        2 0.27319118E+00 0.22062179E+02</pdfrwt>
<pdfrwt beam="2">  1        3 0.21597309E-01 0.12504920E+03</pdfrwt>
<totfact> 0.14668439E+02</totfact>
</mgrwt>
</event>
<event>
 7    1  0.3113530E-004  0.1542489E+03  0.7546771E-02  0.1272963E+00
          2   -1    0    0  503    0  0.00000000000E+00  0.00000000000E+00  0.39474044687E+04  0.39474044687E+04  0.00000000000E+00 0. -1.
          2   -1    0    0  502    0 -0.00000000000E+00 -0.00000000000E+00 -0.65063031207E+03  0.65063031207E+03  0.00000000000E+00 0.  1.
         25    2    1    2    0    0 -0.10713868340E+03  0.72641145306E+02  0.23109012888E+04  0.23178966504E+04  0.12499872840E+03 0.  0.
          4    1    3    3  501    0 -0.41128163474E+02  0.43529248333E+02  0.18831312637E+04  0.18840836740E+04  0.12700000000E+01 0. -1.
         -4    1    3    3    0  501 -0.66010519926E+02  0.29111896974E+02  0.42777002506E+03  0.43381297644E+03  0.12700000000E+01 0. -1.
          2    1    1    2  502    0 -0.43592609973E+02  0.54182670445E+02 -0.63929955162E+03  0.64307075359E+03  0.00000000000E+00 0.  1.
          2    1    1    2  503    0  0.15073129337E+03 -0.12682381575E+03  0.16251724194E+04  0.16370673767E+04  0.00000000000E+00 0. -1.
<mgrwt>
<rscale>  0 0.10357010E+03</rscale>
<asrwt>0</asrwt>
<pdfrwt beam="1">  1        2 0.60729298E+00 0.15424892E+03</pdfrwt>
<pdfrwt beam="2">  1        2 0.10009697E+00 0.69541911E+02</pdfrwt>
<totfact> 0.40727303E+00</totfact>
</mgrwt>
</event>
<event>
 7    1  0.3113530E-004  0.1437152E+03  0.7546771E-02  0.1266377E+00
          1   -1    0    0  503    0 -0.00000000000E+00  0.00000000000E+00  0.10892979332E+04  0.10892979332E+04  0.00000000000E+00 0. -1.
          2   -1    0    0  502    0  0.00000000000E+00 -0.00000000000E+00 -0.14728285737E+03  0.14728285737E+03  0.00000000000E+00 0. -1.
         25    2    1    2    0    0  0.27659044167E+02  0.16443263006E+03  0.42984541417E+03  0.47769726418E+03  0.12499793424E+03 0.  0.
          4    1    3    3  501    0 -0.39186627429E+02  0.81003429799E+02  0.12048909330E+03  0.15038743934E+03  0.12700000000E+01 0. -1.
         -4    1    3    3    0  501  0.66845671595E+02  0.83429200262E+02  0.30935632087E+03  0.32730982483E+03  0.12700000000E+01 0. -1.
          2    1    1    2  502    0 -0.73216497525E+02 -0.31103523367E+02 -0.10166345597E+03  0.12908734623E+03  0.00000000000E+00 0. -1.
          1    1    1    2  503    0  0.45557453358E+02 -0.13332910669E+03  0.61383311767E+03  0.62979618020E+03  0.00000000000E+00 0. -1.
<mgrwt>
<rscale>  0 0.10692258E+03</rscale>
<asrwt>0</asrwt>
<pdfrwt beam="2">  1        2 0.22658902E-01 0.79549259E+02</pdfrwt>
<pdfrwt beam="1">  1        1 0.16758429E+00 0.14371521E+03</pdfrwt>
<totfact> 0.45315343E+02</totfact>
</mgrwt>
</event>
<event>
 7    1  0.3113530E-004  0.5969921E+02  0.7546771E-02  0.1430632E+00
          2   -1    0    0  503    0  0.00000000000E+00  0.00000000000E+00  0.40517801745E+03  0.40517801745E+03  0.00000000000E+00 0. -1.
         -2   -1    0    0    0  501 -0.00000000000E+00 -0.00000000000E+00 -0.36653497696E+03  0.36653497696E+03  0.00000000000E+00 0.  1.
         25    2    1    2    0    0 -0.93946381081E+01  0.98607739070E+02  0.68516940437E+02  0.17358493448E+03  0.12500165168E+03 0.  0.
          4    1    3    3  502    0 -0.61338826678E+02  0.18684473833E+02  0.29144939761E+02  0.70445735388E+02  0.12700000000E+01 0.  1.
         -4    1    3    3    0  502  0.51944188570E+02  0.79923265237E+02  0.39372000675E+02  0.10313919909E+03  0.12700000000E+01 0.  1.
          2    1    1    2  503    0  0.22249245594E+02 -0.41124131130E+02  0.27940483047E+03  0.28329010287E+03  0.00000000000E+00 0. -1.
         -2    1    1    2    0  501 -0.12854607485E+02 -0.57483607940E+02 -0.30927873042E+03  0.31483795706E+03  0.00000000000E+00 0.  1.
<mgrwt>
<rscale>  0 0.52833319E+02</rscale>
<asrwt>0</asrwt>
<pdfrwt beam="1">  1        2 0.62335079E-01 0.46757065E+02</pdfrwt>
<pdfrwt beam="2">  1       -2 0.56389997E-01 0.59699206E+02</pdfrwt>
<totfact> 0.24273502E+02</totfact>
</mgrwt>
</event>
<event>
 7    1  0.3113530E-004  0.5414743E+02  0.7546771E-02  0.1467113E+00
          1   -1    0    0  503    0  0.00000000000E+00  0.00000000000E+00  0.67081487248E+03  0.67081487248E+03  0.00000000000E+00 0. -1.
         -1   -1    0    0    0  501 -0.00000000000E+00 -0.00000000000E+00 -0.95364616141E+02  0.95364616141E+02  0.00000000000E+00 0.  1.
         25    2    1    2    0    0 -0.70327401884E+01 -0.35190117514E+02  0.22882178014E+03  0.26319621111E+03  0.12500013869E+03 0.  0.
          4    1    3    3  502    0  0.26517915442E+02 -0.16051639711E+01 -0.28115017482E+01  0.26744977713E+02  0.12700000000E+01 0.  1.
         -4    1    3    3    0  502 -0.33550655630E+02 -0.33584953542E+02  0.23163328189E+03  0.23645123340E+03  0.12700000000E+01 0.  1.
          1    1    1    2  503    0 -0.29924310248E+02  0.48799230026E+02  0.41776709995E+03  0.42167069971E+03  0.00000000000E+00 0. -1.
         -1    1    1    2    0  501  0.36957050436E+02 -0.13609112513E+02 -0.71138623746E+02  0.81312577802E+02  0.00000000000E+00 0.  1.
<mgrwt>
<rscale>  0 0.46178953E+02</rscale>
<asrwt>0</asrwt>
<pdfrwt beam="1">  1        1 0.10320228E+00 0.54147431E+02</pdfrwt>
<pdfrwt beam="2">  1       -1 0.14671480E-01 0.39383138E+02</pdfrwt>
<totfact> 0.96785944E+02</totfact>
</mgrwt>
</event>
<event>
 7    1  0.3113530E-004  0.5149034E+02  0.7546771E-02  0.1456963E+00
         -1   -1    0    0    0  501 -0.00000000000E+00  0.00000000000E+00  0.62447764812E+03  0.62447764812E+03  0.00000000000E+00 0.  1.
          1   -1    0    0  503    0  0.00000000000E+00 -0.00000000000E+00 -0.30933539874E+04  0.30933539874E+04  0.00000000000E+00 0. -1.
         25    2    1    2    0    0 -0.30882568840E+02  0.88225773426E+02 -0.11238046244E+04  0.11345917842E+04  0.12499665106E+03 0.  0.
          4    1    3    3  502    0  0.13057837531E+02  0.31924506699E+02 -0.66924605295E+02  0.75300710109E+02  0.12700000000E+01 0. -1.
         -4    1    3    3    0  502 -0.43940406371E+02  0.56301266727E+02 -0.10568800191E+04  0.10592910741E+04  0.12700000000E+01 0. -1.
          1    1    1    2  503    0  0.13238498299E+02 -0.47291614969E+02 -0.19630459263E+04  0.19636601191E+04  0.00000000000E+00 0. -1.
         -1    1    1    2    0  501  0.17644070542E+02 -0.40934158457E+02  0.61797421143E+03  0.61957973220E+03  0.00000000000E+00 0.  1.
<mgrwt>
<rscale>  0 0.47907984E+02</rscale>
<asrwt>0</asrwt>
<pdfrwt beam="2">  1        1 0.47590060E+00 0.51490340E+02</pdfrwt>
<pdfrwt beam="1">  1       -1 0.96073487E-01 0.44574865E+02</pdfrwt>
<totfact> 0.10002681E+00</totfact>
</mgrwt>
</event>
<event>
 7    1  0.3113530E-004  0.1174297E+03  0.7546771E-02  0.1359291E+00
          1   -1    0    0  503    0 -0.00000000000E+00  0.00000000000E+00  0.10208283208E+04  0.10208283208E+04  0.00000000000E+00 0. -1.
          2   -1    0    0  502    0  0.00000000000E+00 -0.00000000000E+00 -0.88289230520E+03  0.88289230520E+03  0.00000000000E+00 0. -1.
         25    2    1    2    0    0 -0.82467217692E+02  0.41238525085E+02  0.28826313388E+03  0.32744708251E+03  0.12499799816E+03 0.  0.
          4    1    3    3  501    0 -0.97006126245E+02  0.76856328771E+01  0.11635587355E+03  0.15168902298E+03  0.12700000000E+01 0. -1.
         -4    1    3    3    0  501  0.14538908554E+02  0.33552892208E+02  0.17190726032E+03  0.17575805953E+03  0.12700000000E+01 0. -1.
          2    1    1    2  502    0  0.11661966956E+03 -0.16776584506E+02 -0.85865518848E+03  0.86670083294E+03  0.00000000000E+00 0. -1.
          1    1    1    2  503    0 -0.34152451871E+02 -0.24461940580E+02  0.70832807016E+03  0.70957271050E+03  0.00000000000E+00 0. -1.
<mgrwt>
<rscale>  0 0.70236264E+02</rscale>
<asrwt>0</asrwt>
<pdfrwt beam="2">  1        2 0.13582959E+00 0.11742970E+03</pdfrwt>
<pdfrwt beam="1">  1        1 0.15705051E+00 0.42009243E+02</pdfrwt>
<totfact> 0.77422906E+01</totfact>
</mgrwt>
</event>
<event>
 7    1  0.3113530E-004  0.3791304E+02  0.7546771E-02  0.1556655E+00
         -1   -1    0    0    0  501 -0.00000000000E+00  0.00000000000E+00  0.33284181748E+01  0.33284181748E+01  0.00000000000E+00 0.  1.
          1   -1    0    0  503    0  0.00000000000E+00 -0.00000000000E+00 -0.34471132380E+04  0.34471132380E+04  0.00000000000E+00 0. -1.
         25    2    1    2    0    0 -0.19297985688E+02  0.59117459684E+01 -0.24128862295E+04  0.24162055381E+04  0.12498753818E+03 0.  0.
          4    1    3    3  502    0 -0.63898707910E+02  0.99230126295E+01 -0.19695404607E+04  0.19706021288E+04  0.12700000000E+01 0. -1.
         -4    1    3    3    0  502  0.44600722222E+02 -0.40112666611E+01 -0.44334576880E+03  0.44560340921E+03  0.12700000000E+01 0. -1.
          1    1    1    2  503    0  0.85222329658E+00  0.30675426897E+02 -0.71940647082E+03  0.72006067685E+03  0.00000000000E+00 0. -1.
         -1    1    1    2    0  501  0.18445762391E+02 -0.36587172866E+02 -0.31149211956E+03  0.31417544130E+03  0.00000000000E+00 0.  1.
<mgrwt>
<rscale>  0 0.34109344E+02</rscale>
<asrwt>0</asrwt>
<pdfrwt beam="2">  1        1 0.53032589E+00 0.30687263E+02</pdfrwt>
<pdfrwt beam="1">  1       -1 0.51206359E-03 0.37913038E+02</pdfrwt>
<totfact> 0.18153474E+03</totfact>
</mgrwt>
</event>
<event>
 7    1  0.3113530E-004  0.5397871E+02  0.7546771E-02  0.1562722E+00
          2   -1    0    0  503    0  0.00000000000E+00  0.00000000000E+00  0.65484281979E+03  0.65484281979E+03  0.00000000000E+00 0. -1.
         -1   -1    0    0    0  501 -0.00000000000E+00 -0.00000000000E+00 -0.22541254243E+02  0.22541254243E+02  0.00000000000E+00 0.  1.
         25    2    1    2    0    0 -0.40990179012E+02  0.46321280056E+02  0.43196659890E+03  0.45392292388E+03  0.12500008998E+03 0.  0.
          4    1    3    3  502    0 -0.46054148801E+02 -0.27692568095E+02  0.27626537447E+03  0.28144632345E+03  0.12700000000E+01 0. -1.
         -4    1    3    3    0  502  0.50639697897E+01  0.74013848150E+02  0.15570122443E+03  0.17247660043E+03  0.12700000000E+01 0. -1.
          2    1    1    2  503    0  0.45308762859E+02 -0.26035481602E+02  0.19522873904E+03  0.20210143701E+03  0.00000000000E+00 0. -1.
         -1    1    1    2    0  501 -0.43185838476E+01 -0.20285798453E+02  0.51062276100E+01  0.21359713148E+02  0.00000000000E+00 0.  1.
<mgrwt>
<rscale>  0 0.33459520E+02</rscale>
<asrwt>0</asrwt>
<pdfrwt beam="1">  1        2 0.10074503E+00 0.53978709E+02</pdfrwt>
<pdfrwt beam="2">  1       -1 0.34678858E-02 0.20740390E+02</pdfrwt>
<totfact> 0.12008450E+04</totfact>
</mgrwt>
</event>
<event>
 7    1  0.3113530E-004  0.7887920E+02  0.7546771E-02  0.1439983E+00
         -1   -1    0    0    0  501  0.00000000000E+00  0.00000000000E+00  0.14302316800E+04  0.14302316800E+04  0.00000000000E+00 0.  1.
         -3   -1    0    0    0  502 -0.00000000000E+00 -0.00000000000E+00 -0.21884067342E+03  0.21884067342E+03  0.00000000000E+00 0.  1.
         25    2    1    2    0    0  0.56757943078E+02  0.90034890212E+02  0.20696221000E+03  0.26417373706E+03  0.12500664551E+03 0.  0.
          4    1    3    3  503    0  0.66051735725E+02 -0.70889654511E+01  0.89583814451E+02  0.11153455938E+03  0.12700000000E+01 0. -1.
         -4    1    3    3    0  503 -0.92937926470E+01  0.97123855664E+02  0.11737839555E+03  0.15263917768E+03  0.12700000000E+01 0. -1.
         -1    1    1    2    0  501 -0.52493934641E+02 -0.57327723316E+02  0.11919584809E+04  0.11944903102E+04  0.00000000000E+00 0.  1.
         -3    1    1    2    0  502 -0.42640084370E+01 -0.32707166896E+02 -0.18752968434E+03  0.19040830613E+03  0.00000000000E+00 0.  1.
<mgrwt>
<rscale>  0 0.51007323E+02</rscale>
<asrwt>0</asrwt>
<pdfrwt beam="1">  1       -1 0.22003564E+00 0.78879198E+02</pdfrwt>
<pdfrwt beam="2">  1       -3 0.33667797E-01 0.32983944E+02</pdfrwt>
<totfact> 0.47585107E+00</totfact>
</mgrwt>
</event>
<event>
 7    1  0.3113530E-004  0.5174900E+02  0.7546771E-02  0.1464173E+00
         -1   -1    0    0    0  501 -0.00000000000E+00  0.00000000000E+00  0.11006205416E+03  0.11006205416E+03  0.00000000000E+00 0.  1.
          2   -1    0    0  503    0  0.00000000000E+00 -0.00000000000E+00 -0.12791585862E+03  0.12791585862E+03  0.00000000000E+00 0. -1.
         25    2    1    2    0    0 -0.46514463619E+02  0.23784156852E+02 -0.19678648126E+02  0.13689437156E+03  0.12499415319E+03 0.  0.
          4    1    3    3  502    0 -0.21941106780E+02 -0.37846382561E+02 -0.47810432228E+02  0.64816750686E+02  0.12700000000E+01 0.  1.
         -4    1    3    3    0  502 -0.24573356839E+02  0.61630539413E+02  0.28131784103E+02  0.72077620878E+02  0.12700000000E+01 0.  1.
          2    1    1    2  503    0  0.30512911637E+02  0.28993118427E+02 -0.12861192751E+02  0.44011918519E+02  0.00000000000E+00 0. -1.
         -1    1    1    2    0  501  0.16001551982E+02 -0.52777275279E+02  0.14686036408E+02  0.57071622696E+02  0.00000000000E+00 0.  1.
<mgrwt>
<rscale>  0 0.46670749E+02</rscale>
<asrwt>0</asrwt>
<pdfrwt beam="2">  1        2 0.19679363E-01 0.42090839E+02</pdfrwt>
<pdfrwt beam="1">  1       -1 0.16932624E-01 0.51748999E+02</pdfrwt>
<totfact> 0.73591689E+03</totfact>
</mgrwt>
</event>
<event>
 7    1  0.3371028E-004  0.7328960E+02  0.7546771E-02  0.1428665E+00
         -2   -1    0    0    0  501 -0.00000000000E+00  0.00000000000E+00  0.62766721274E+02  0.62766721274E+02  0.00000000000E+00 0.  1.
          1   -1    0    0  503    0  0.00000000000E+00 -0.00000000000E+00 -0.35274474391E+03  0.35274474391E+03  0.00000000000E+00 0. -1.
         25    2    1    2    0    0  0.32292104730E+02  0.93456792685E+02 -0.10560852567E+03  0.19119243370E+03  0.12499773551E+03 0.  0.
          4    1    3    3  502    0  0.27992561035E+02  0.95009834225E+02 -0.13163236383E+03  0.16473962541E+03  0.12700000000E+01 0. -1.
         -4    1    3    3    0  502  0.42995436956E+01 -0.15530415395E+01  0.26023838158E+02  0.26452808291E+02  0.12700000000E+01 0. -1.
          1    1    1    2  503    0 -0.24063984946E+02 -0.30256585891E+02 -0.14347872812E+03  0.14859569907E+03  0.00000000000E+00 0. -1.
         -2    1    1    2    0  501 -0.82281197847E+01 -0.63200206794E+02 -0.40890768847E+02  0.75723332408E+02  0.00000000000E+00 0.  1.
<mgrwt>
<rscale>  0 0.53228939E+02</rscale>
<asrwt>0</asrwt>
<pdfrwt beam="2">  1        1 0.54268424E-01 0.38659234E+02</pdfrwt>
<pdfrwt beam="1">  1       -2 0.96564184E-02 0.73289605E+02</pdfrwt>
<totfact> 0.40810953E+03</totfact>
</mgrwt>
</event>
<event>
 7    1  0.3113530E-004  0.5704683E+02  0.7546771E-02  0.1412342E+00
         -2   -1    0    0    0  501  0.00000000000E+00  0.00000000000E+00  0.83643003740E+02  0.83643003740E+02  0.00000000000E+00 0.  1.
         -2   -1    0    0    0  502 -0.00000000000E+00 -0.00000000000E+00 -0.12507065764E+04  0.12507065764E+04  0.00000000000E+00 0.  1.
         25    2    1    2    0    0 -0.28160278043E+01  0.16177546613E+02 -0.34686763249E+03  0.36906930126E+03  0.12500140652E+03 0.  0.
          4    1    3    3  503    0 -0.18286965325E+02  0.64442632850E+02 -0.12878020919E+03  0.14516618479E+03  0.12700000000E+01 0.  1.
         -4    1    3    3    0  503  0.15470937521E+02 -0.48265086237E+02 -0.21808742330E+03  0.22390311646E+03  0.12700000000E+01 0.  1.
         -2    1    1    2    0  502 -0.49384051112E+02 -0.37281135235E+02 -0.88056105604E+03  0.88273237222E+03  0.00000000000E+00 0.  1.
         -2    1    1    2    0  501  0.52200078916E+02  0.21103588622E+02  0.60365115834E+02  0.82547906704E+02  0.00000000000E+00 0.  1.
<mgrwt>
<rscale>  0 0.56674507E+02</rscale>
<asrwt>0</asrwt>
<pdfrwt beam="1">  1       -2 0.12868155E-01 0.56304615E+02</pdfrwt>
<pdfrwt beam="2">  1       -2 0.19241639E+00 0.57046828E+02</pdfrwt>
<totfact> 0.47077696E+01</totfact>
</mgrwt>
</event>
<event>
 7    1  0.3113530E-004  0.8591745E+02  0.7546771E-02  0.1313751E+00
          1   -1    0    0  503    0 -0.00000000000E+00  0.00000000000E+00  0.38045222755E+03  0.38045222755E+03  0.00000000000E+00 0. -1.
          2   -1    0    0  502    0  0.00000000000E+00 -0.00000000000E+00 -0.89392150209E+02  0.89392150209E+02  0.00000000000E+00 0. -1.
         25    2    1    2    0    0  0.18754426592E+02 -0.36020639227E+02  0.54994523746E+02  0.14247273083E+03  0.12499946569E+03 0.  0.
          4    1    3    3  501    0 -0.47261278166E+02 -0.35182824736E+02  0.40501513937E+01  0.59071788500E+02  0.12700000000E+01 0.  1.
         -4    1    3    3    0  501  0.66015704757E+02 -0.83781449148E+00  0.50944372353E+02  0.83400942334E+02  0.12700000000E+01 0.  1.
          2    1    1    2  502    0 -0.65967700009E+02 -0.54197419296E+02  0.18790014924E+02  0.87419462156E+02  0.00000000000E+00 0. -1.
          1    1    1    2  503    0  0.47213273417E+02  0.90218058524E+02  0.21727553867E+03  0.23995218477E+03  0.00000000000E+00 0. -1.
<mgrwt>
<rscale>  0 0.85646403E+02</rscale>
<asrwt>0</asrwt>
<pdfrwt beam="2">  1        2 0.13752639E-01 0.85376213E+02</pdfrwt>
<pdfrwt beam="1">  1        1 0.58531111E-01 0.85917449E+02</pdfrwt>
<totfact> 0.36302602E+03</totfact>
</mgrwt>
</event>
<event>
 7    1  0.3113530E-004  0.1488556E+03  0.7546771E-02  0.1221663E+00
          2   -1    0    0  503    0  0.00000000000E+00  0.00000000000E+00  0.11479659746E+04  0.11479659746E+04  0.00000000000E+00 0.  1.
          2   -1    0    0  502    0 -0.00000000000E+00 -0.00000000000E+00 -0.15352329507E+04  0.15352329507E+04  0.00000000000E+00 0. -1.
         25    2    1    2    0    0  0.11126877182E+03  0.34215858104E+00 -0.22564749666E+03  0.28093031592E+03  0.12499677198E+03 0.  0.
          4    1    3    3  501    0  0.53716611437E+02  0.95322812767E+01 -0.74464303438E+01  0.55076319371E+02  0.12700000000E+01 0.  1.
         -4    1    3    3    0  501  0.57552160379E+02 -0.91901226957E+01 -0.21820106631E+03  0.22585399655E+03  0.12700000000E+01 0.  1.
          2    1    1    2  502    0 -0.10787210070E+03 -0.12089060139E+03 -0.12735513277E+04  0.12838161519E+04  0.00000000000E+00 0. -1.
          2    1    1    2  503    0 -0.33966711180E+01  0.12054844281E+03  0.11119318483E+04  0.11184524575E+04  0.00000000000E+00 0.  1.
<mgrwt>
<rscale>  0 0.13398298E+03</rscale>
<asrwt>0</asrwt>
<pdfrwt beam="1">  1        2 0.17661015E+00 0.12059629E+03</pdfrwt>
<pdfrwt beam="2">  1        2 0.23618969E+00 0.14885564E+03</pdfrwt>
<totfact> 0.48197695E+01</totfact>
</mgrwt>
</event>
<event>
 7    1  0.3113530E-004  0.1114303E+03  0.7546771E-02  0.1353844E+00
          1   -1    0    0  503    0 -0.00000000000E+00  0.00000000000E+00  0.20116401537E+03  0.20116401537E+03  0.00000000000E+00 0. -1.
          2   -1    0    0  502    0  0.00000000000E+00 -0.00000000000E+00 -0.27251635975E+04  0.27251635975E+04  0.00000000000E+00 0. -1.
         25    2    1    2    0    0  0.30046309712E+02  0.70639912536E+02  0.14454833383E+02  0.14735988947E+03  0.12495285850E+03 0.  0.
          4    1    3    3  501    0  0.57531089680E+02  0.75811503493E+02  0.45552344591E+02  0.10551700972E+03  0.12700000000E+01 0. -1.
         -4    1    3    3    0  501 -0.27484779969E+02 -0.51715909567E+01 -0.31097511207E+02  0.41842879756E+02  0.12700000000E+01 0. -1.
          2    1    1    2  502    0 -0.74563257393E+02 -0.83565720245E+02 -0.26530181411E+04  0.26553809832E+04  0.00000000000E+00 0. -1.
          1    1    1    2  503    0  0.44516947681E+02  0.12925807709E+02  0.11456372558E+03  0.12358674020E+03  0.00000000000E+00 0. -1.
<mgrwt>
<rscale>  0 0.71870802E+02</rscale>
<asrwt>0</asrwt>
<pdfrwt beam="2">  1        2 0.41925587E+00 0.11143033E+03</pdfrwt>
<pdfrwt beam="1">  1        1 0.30948315E-01 0.46355530E+02</pdfrwt>
<totfact> 0.65617474E+01</totfact>
</mgrwt>
</event>
<event>
 7    1  0.3113530E-004  0.1061872E+03  0.7546771E-02  0.1386704E+00
          2   -1    0    0  502    0  0.00000000000E+00  0.00000000000E+00  0.11472311895E+04  0.11472311895E+04  0.00000000000E+00 0. -1.
          1   -1    0    0  503    0 -0.00000000000E+00 -0.00000000000E+00 -0.39673707796E+03  0.39673707796E+03  0.00000000000E+00 0. -1.
         25    2    1    2    0    0 -0.13490866712E+02  0.12986402840E+03  0.46206238689E+03  0.49615749484E+03  0.12499576372E+03 0.  0.
          4    1    3    3  501    0 -0.30787027226E+02  0.14842610658E+03  0.42499161483E+03  0.45121794704E+03  0.12700000000E+01 0. -1.
         -4    1    3    3    0  501  0.17296160513E+02 -0.18562078178E+02  0.37070772065E+02  0.44939547798E+02  0.12700000000E+01 0. -1.
          2    1    1    2  502    0 -0.21725228912E+02 -0.30027175850E+02  0.66021196940E+03  0.66125143584E+03  0.00000000000E+00 0. -1.
          1    1    1    2  503    0  0.35216095625E+02 -0.99836852549E+02 -0.37178024472E+03  0.38655933682E+03  0.00000000000E+00 0. -1.
<mgrwt>
<rscale>  0 0.62733919E+02</rscale>
<asrwt>0</asrwt>
<pdfrwt beam="1">  1        2 0.17649710E+00 0.37062337E+02</pdfrwt>
<pdfrwt beam="2">  1        1 0.61036474E-01 0.10618717E+03</pdfrwt>
<totfact> 0.20530188E+02</totfact>
</mgrwt>
</event>
<event>
 7    1  0.3113530E-004  0.1185712E+03  0.7546771E-02  0.1265616E+00
          2   -1    0    0  502    0  0.00000000000E+00  0.00000000000E+00  0.67427629118E+03  0.67427629118E+03  0.00000000000E+00 0. -1.
          2   -1    0    0  503    0 -0.00000000000E+00 -0.00000000000E+00 -0.35014845775E+03  0.35014845775E+03  0.00000000000E+00 0. -1.
         25    2    1    2    0    0 -0.70558569506E+02 -0.39836406037E+02 -0.98158982123E+02  0.17838678976E+03  0.12498483914E+03 0.  0.
          4    1    3    3  501    0 -0.11042216830E+02 -0.19105445637E+02 -0.11173904096E+03  0.11390423512E+03  0.12700000000E+01 0.  1.
         -4    1    3    3    0  501 -0.59516352676E+02 -0.20730960401E+02  0.13580058833E+02  0.64482554640E+02  0.12700000000E+01 0.  1.
          2    1    1    2  502    0  0.85197681477E+02 -0.82465056176E+02  0.61005679577E+03  0.62147278660E+03  0.00000000000E+00 0. -1.
          2    1    1    2  503    0 -0.14639111971E+02  0.12230146221E+03 -0.18776998022E+03  0.22456517257E+03  0.00000000000E+00 0. -1.
<mgrwt>
<rscale>  0 0.10731922E+03</rscale>
<asrwt>0</asrwt>
<pdfrwt beam="1">  1        2 0.10373481E+00 0.11857120E+03</pdfrwt>
<pdfrwt beam="2">  1        2 0.53868993E-01 0.97135017E+02</pdfrwt>
<totfact> 0.64476461E+02</totfact>
</mgrwt>
</event>
<event>
 7    1  0.3113530E-004  0.6646815E+02  0.7546771E-02  0.1501478E+00
         -1   -1    0    0    0  501 -0.00000000000E+00  0.00000000000E+00  0.96245416917E+02  0.96245416917E+02  0.00000000000E+00 0.  1.
          2   -1    0    0  503    0  0.00000000000E+00 -0.00000000000E+00 -0.28302229460E+03  0.28302229460E+03  0.00000000000E+00 0. -1.
         25    2    1    2    0    0  0.54626794118E+02 -0.33335260655E+02 -0.22911862710E+03  0.26873163346E+03  0.12500407713E+03 0.  0.
          4    1    3    3  502    0  0.58736857861E+02 -0.37234932474E+02 -0.41443842560E+02  0.80967052892E+02  0.12700000000E+01 0. -1.
         -4    1    3    3    0  502 -0.41100637428E+01  0.38996718191E+01 -0.18767478454E+03  0.18776458057E+03  0.12700000000E+01 0. -1.
          2    1    1    2  503    0 -0.14764488369E+02 -0.20426643145E+02 -0.83790252253E+01  0.26560232128E+02  0.00000000000E+00 0. -1.
         -1    1    1    2    0  501 -0.39862305749E+02  0.53761903801E+02  0.50720774639E+02  0.83975845931E+02  0.00000000000E+00 0.  1.
<mgrwt>
<rscale>  0 0.40929921E+02</rscale>
<asrwt>0</asrwt>
<pdfrwt beam="2">  1        2 0.43541891E-01 0.25203926E+02</pdfrwt>
<pdfrwt beam="1">  1       -1 0.14806987E-01 0.66468155E+02</pdfrwt>
<totfact> 0.39596083E+03</totfact>
</mgrwt>
</event>
<event>
 7    1  0.3113530E-004  0.1865969E+03  0.7546771E-02  0.1225222E+00
          2   -1    0    0  502    0  0.00000000000E+00  0.00000000000E+00  0.50570124554E+03  0.50570124554E+03  0.00000000000E+00 0. -1.
          1   -1    0    0  503    0 -0.00000000000E+00 -0.00000000000E+00 -0.66748759940E+03  0.66748759940E+03  0.00000000000E+00 0. -1.
         25    2    1    2    0    0 -0.18733368716E+03 -0.26127314979E+01  0.27842970147E+02  0.22694461580E+03  0.12501156324E+03 0.  0.
          4    1    3    3  501    0  0.10256345055E+02  0.93300122325E+01  0.25410517246E+02  0.28974972456E+02  0.12700000000E+01 0. -1.
         -4    1    3    3    0  501 -0.19759003221E+03 -0.11942743730E+02  0.24324529010E+01  0.19796964334E+03  0.12700000000E+01 0. -1.
          2    1    1    2  502    0  0.22491105088E+02 -0.89925598727E+02  0.35648344082E+03  0.36833803318E+03  0.00000000000E+00 0. -1.
          1    1    1    2  503    0  0.16484258207E+03  0.92538330225E+02 -0.54611276482E+03  0.57790619596E+03  0.00000000000E+00 0. -1.
<mgrwt>
<rscale>  0 0.13151692E+03</rscale>
<asrwt>0</asrwt>
<pdfrwt beam="1">  1        2 0.77800192E-01 0.92695540E+02</pdfrwt>
<pdfrwt beam="2">  1        1 0.10269040E+00 0.18659689E+03</pdfrwt>
<totfact> 0.26201190E+02</totfact>
</mgrwt>
</event>
<event>
 7    1  0.3113530E-004  0.1231310E+03  0.7546771E-02  0.1376814E+00
          1   -1    0    0  503    0 -0.00000000000E+00  0.00000000000E+00  0.18968338635E+04  0.18968338635E+04  0.00000000000E+00 0. -1.
          2   -1    0    0  502    0  0.00000000000E+00 -0.00000000000E+00 -0.41280464739E+03  0.41280464739E+03  0.00000000000E+00 0. -1.
         25    2    1    2    0    0 -0.15108636021E+03  0.29196342917E+02  0.91617845155E+03  0.93738262889E+03  0.12499489261E+03 0.  0.
          4    1    3    3  501    0 -0.29070336195E+01  0.36906163662E+02  0.35465659702E+03  0.35658579679E+03  0.12700000000E+01 0.  1.
         -4    1    3    3    0  501 -0.14817932659E+03 -0.77098207453E+01  0.56152185453E+03  0.58079683210E+03  0.12700000000E+01 0.  1.
          2    1    1    2  502    0  0.11724805610E+03 -0.36604695255E+02 -0.39250526815E+03  0.41127532858E+03  0.00000000000E+00 0. -1.
          1    1    1    2  503    0  0.33838304113E+02  0.74083523375E+01  0.96035603266E+03  0.96098055339E+03  0.00000000000E+00 0. -1.
<mgrwt>
<rscale>  0 0.65308734E+02</rscale>
<asrwt>0</asrwt>
<pdfrwt beam="2">  1        2 0.63508408E-01 0.12313099E+03</pdfrwt>
<pdfrwt beam="1">  1        1 0.29182059E+00 0.34639782E+02</pdfrwt>
<totfact> 0.53461720E+01</totfact>
</mgrwt>
</event>
<event>
 7    1  0.3113530E-004  0.8388489E+02  0.7546771E-02  0.1404627E+00
          2   -1    0    0  502    0  0.00000000000E+00  0.00000000000E+00  0.13705104638E+03  0.13705104638E+03  0.00000000000E+00 0. -1.
          1   -1    0    0  503    0 -0.00000000000E+00 -0.00000000000E+00 -0.72464862384E+03  0.72464862384E+03  0.00000000000E+00 0. -1.
         25    2    1    2    0    0 -0.78146128689E+02 -0.65439017760E+02 -0.26726711150E+03  0.31216319877E+03  0.12500028521E+03 0.  0.
          4    1    3    3  501    0 -0.14383726836E+02 -0.83174195953E+02 -0.20321610480E+03  0.22005280416E+03  0.12700000000E+01 0. -1.
         -4    1    3    3    0  501 -0.63762401853E+02  0.17735178193E+02 -0.64051006707E+02  0.92110394613E+02  0.12700000000E+01 0. -1.
          2    1    1    2  502    0  0.79549666364E+02  0.24791351618E+02  0.98340951254E+02  0.12889415513E+03  0.00000000000E+00 0. -1.
          1    1    1    2  503    0 -0.14035376756E+01  0.40647666142E+02 -0.41867141721E+03  0.42064231631E+03  0.00000000000E+00 0. -1.
<mgrwt>
<rscale>  0 0.58410249E+02</rscale>
<asrwt>0</asrwt>
<pdfrwt beam="1">  1        2 0.21084777E-01 0.83884894E+02</pdfrwt>
<pdfrwt beam="2">  1        1 0.11148440E+00 0.40671891E+02</pdfrwt>
<totfact> 0.99514896E+02</totfact>
</mgrwt>
</event>
<event>
 7    1  0.3113530E-004  0.1025075E+03  0.7546771E-02  0.1405440E+00
          2   -1    0    0  503    0  0.00000000000E+00  0.00000000000E+00  0.69346042386E+02  0.69346042386E+02  0.00000000000E+00 0. -1.
         -1   -1    0    0    0  501 -0.00000000000E+00 -0.00000000000E+00 -0.33078972935E+03  0.33078972935E+03  0.00000000000E+00 0.  1.
         25    2    1    2    0    0  0.10562319545E+03  0.31852736163E+02 -0.14882128429E+03  0.22347833182E+03  0.12499573560E+03 0.  0.
          4    1    3    3  502    0  0.92055738892E+02 -0.32255623877E+02 -0.65642187627E+02  0.11758058526E+03  0.12700000000E+01 0.  1.
         -4    1    3    3    0  502  0.13567456557E+02  0.64108360040E+02 -0.83179096661E+02  0.10589774656E+03  0.12700000000E+01 0.  1.
          2    1    1    2  503    0 -0.83038502522E+02 -0.56011083688E+02 -0.67788473803E+02  0.12094590352E+03  0.00000000000E+00 0. -1.
         -1    1    1    2    0  501 -0.22584692926E+02  0.24158347525E+02 -0.44833928874E+02  0.55711536399E+02  0.00000000000E+00 0.  1.
<mgrwt>
<rscale>  0 0.58223969E+02</rscale>
<asrwt>0</asrwt>
<pdfrwt beam="1">  1        2 0.10668622E-01 0.10250751E+03</pdfrwt>
<pdfrwt beam="2">  1       -1 0.50890728E-01 0.33071046E+02</pdfrwt>
<totfact> 0.25663120E+03</totfact>
</mgrwt>
</event>
<event>
 7    1  0.3113530E-004  0.7493050E+02  0.7546771E-02  0.1498267E+00
          2   -1    0    0  503    0  0.00000000000E+00  0.00000000000E+00  0.27270160648E+04  0.27270160648E+04  0.00000000000E+00 0. -1.
         -1   -1    0    0    0  501 -0.00000000000E+00 -0.00000000000E+00 -0.61518918324E+02  0.61518918324E+02  0.00000000000E+00 0.  1.
         25    2    1    2    0    0 -0.14779251088E+02 -0.70774911509E+02  0.11569965051E+04  0.11659723403E+04  0.12499228459E+03 0.  0.
          4    1    3    3  502    0 -0.59417762505E+02 -0.27496449878E+02  0.86246224725E+03  0.86494466071E+03  0.12700000000E+01 0.  1.
         -4    1    3    3    0  502  0.44638511417E+02 -0.43278461631E+02  0.29453425788E+03  0.30102767963E+03  0.12700000000E+01 0.  1.
          2    1    1    2  503    0 -0.75455979940E+01  0.75674891397E+02  0.15622789047E+04  0.15641288315E+04  0.00000000000E+00 0. -1.
         -1    1    1    2    0  501  0.22324849082E+02 -0.48999798879E+01 -0.53778263399E+02  0.58433811305E+02  0.00000000000E+00 0.  1.
<mgrwt>
<rscale>  0 0.41383948E+02</rscale>
<asrwt>0</asrwt>
<pdfrwt beam="1">  1        2 0.41954084E+00 0.74930504E+02</pdfrwt>
<pdfrwt beam="2">  1       -1 0.94644511E-02 0.22856261E+02</pdfrwt>
<totfact> 0.22624181E+02</totfact>
</mgrwt>
</event>
<event>
 7    1  0.3113530E-004  0.2158840E+03  0.7546771E-02  0.1197215E+00
          2   -1    0    0  502    0  0.00000000000E+00  0.00000000000E+00  0.53581604745E+03  0.53581604745E+03  0.00000000000E+00 0. -1.
          2   -1    0    0  503    0 -0.00000000000E+00 -0.00000000000E+00 -0.80647895721E+03  0.80647895721E+03  0.00000000000E+00 0.  1.
         25    2    1    2    0    0 -0.15749746944E+03  0.21824099266E+03  0.16500228939E+01  0.29675240889E+03  0.12499874341E+03 0.  0.
          4    1    3    3  501    0 -0.10448973695E+03  0.15638965212E+03  0.58997080323E+02  0.19712457179E+03  0.12700000000E+01 0.  1.
         -4    1    3    3    0  501 -0.53007732489E+02  0.61851340534E+02 -0.57347057429E+02  0.99627837100E+02  0.12700000000E+01 0.  1.
          2    1    1    2  502    0  0.17605228968E+03 -0.11186294192E+03  0.35351663124E+03  0.41046526655E+03  0.00000000000E+00 0. -1.
          2    1    1    2  503    0 -0.18554820245E+02 -0.10637805074E+03 -0.62582956390E+03  0.63507732922E+03  0.00000000000E+00 0.  1.
<mgrwt>
<rscale>  0 0.15268281E+03</rscale>
<asrwt>0</asrwt>
<pdfrwt beam="1">  1        2 0.82433239E-01 0.21588397E+03</pdfrwt>
<pdfrwt beam="2">  1        2 0.12407368E+00 0.10798412E+03</pdfrwt>
<totfact> 0.32678391E+02</totfact>
</mgrwt>
</event>
<event>
 7    1  0.3113530E-004  0.3141982E+02  0.7546771E-02  0.1636777E+00
          2   -1    0    0  502    0  0.00000000000E+00  0.00000000000E+00  0.37781400753E+04  0.37781400753E+04  0.00000000000E+00 0. -1.
          2   -1    0    0  503    0 -0.00000000000E+00 -0.00000000000E+00 -0.65987186317E+01  0.65987186317E+01  0.00000000000E+00 0. -1.
         25    2    1    2    0    0 -0.44683039040E+02 -0.25637638391E+02  0.19290204191E+04  0.19337577752E+04  0.12508194702E+03 0.  0.
          4    1    3    3  501    0 -0.15843815018E+02  0.42414336636E+02  0.33805211788E+03  0.34107308562E+03  0.12700000000E+01 0. -1.
         -4    1    3    3    0  501 -0.28839224022E+02 -0.68051975027E+02  0.15909683012E+04  0.15926846896E+04  0.12700000000E+01 0. -1.
          2    1    1    2  502    0  0.22459786438E+02  0.20487461984E+02  0.18149133821E+04  0.18151679709E+04  0.00000000000E+00 0. -1.
          2    1    1    2  503    0  0.22223252602E+02  0.51501764076E+01  0.27607555481E+02  0.35813047802E+02  0.00000000000E+00 0. -1.
<mgrwt>
<rscale>  0 0.26772296E+02</rscale>
<asrwt>0</asrwt>
<pdfrwt beam="1">  1        2 0.58125059E+00 0.31419822E+02</pdfrwt>
<pdfrwt beam="2">  1        2 0.10151905E-02 0.22812218E+02</pdfrwt>
<totfact> 0.14774945E+03</totfact>
</mgrwt>
</event>
<event>
 7    1  0.3113530E-004  0.9591068E+02  0.7546771E-02  0.1342491E+00
          2   -1    0    0  503    0  0.00000000000E+00  0.00000000000E+00  0.43055485318E+03  0.43055485318E+03  0.00000000000E+00 0. -1.
          2   -1    0    0  502    0 -0.00000000000E+00 -0.00000000000E+00 -0.28509160405E+03  0.28509160405E+03  0.00000000000E+00 0. -1.
         25    2    1    2    0    0  0.76840453326E+00 -0.58783666252E+02 -0.23815599939E+03  0.27531170353E+03  0.12498857625E+03 0.  0.
          4    1    3    3  501    0 -0.43474110399E+02  0.18438735707E+02 -0.62001990048E+02  0.77947706312E+02  0.12700000000E+01 0.  1.
         -4    1    3    3    0  501  0.44242514932E+02 -0.77222401959E+02 -0.17615400934E+03  0.19736399722E+03  0.12700000000E+01 0.  1.
          2    1    1    2  502    0  0.95131818987E+02  0.57367733936E+02  0.14141156649E+03  0.17982867129E+03  0.00000000000E+00 0. -1.
          2    1    1    2  503    0 -0.95900223520E+02  0.14159323169E+01  0.24220768204E+03  0.26050608241E+03  0.00000000000E+00 0. -1.
<mgrwt>
<rscale>  0 0.75447424E+02</rscale>
<asrwt>0</asrwt>
<pdfrwt beam="1">  1        2 0.66239208E-01 0.95910676E+02</pdfrwt>
<pdfrwt beam="2">  1        2 0.43860247E-01 0.59350158E+02</pdfrwt>
<totfact> 0.13116006E+03</totfact>
</mgrwt>
</event>
<event>
 7    1  0.3113530E-004  0.1597661E+03  0.7546771E-02  0.1203507E+00
         -1   -1    0    0    0  501  0.00000000000E+00  0.00000000000E+00  0.78247225386E+03  0.78247225386E+03  0.00000000000E+00 0.  1.
         -1   -1    0    0    0  502 -0.00000000000E+00 -0.00000000000E+00 -0.11006275058E+04  0.11006275058E+04  0.00000000000E+00 0.  1.
         25    2    1    2    0    0  0.54559277552E+02 -0.20305702015E+03 -0.11673281292E+03  0.27103192677E+03  0.12499154978E+03 0.  0.
          4    1    3    3  503    0  0.70906108633E+02 -0.79745359480E+02 -0.10113115423E+02  0.10719555310E+03  0.12700000000E+01 0.  1.
         -4    1    3    3    0  503 -0.16346831080E+02 -0.12331166067E+03 -0.10661969750E+03  0.16383637367E+03  0.12700000000E+01 0.  1.
         -1    1    1    2    0  502  0.68231226712E+02  0.14393605425E+03 -0.89304828015E+03  0.90714294281E+03  0.00000000000E+00 0.  1.
         -1    1    1    2    0  501 -0.12279050426E+03  0.59120965900E+02  0.69162584113E+03  0.70492489009E+03  0.00000000000E+00 0.  1.
<mgrwt>
<rscale>  0 0.14755764E+03</rscale>
<asrwt>0</asrwt>
<pdfrwt beam="1">  1       -1 0.12038035E+00 0.13628205E+03</pdfrwt>
<pdfrwt beam="2">  1       -1 0.16932731E+00 0.15976613E+03</pdfrwt>
<totfact> 0.16482432E+00</totfact>
</mgrwt>
</event>
<event>
 7    1  0.3113530E-004  0.4036023E+02  0.7546771E-02  0.1519847E+00
          1   -1    0    0  503    0  0.00000000000E+00  0.00000000000E+00  0.17430637649E+03  0.17430637649E+03  0.00000000000E+00 0. -1.
         -1   -1    0    0    0  501 -0.00000000000E+00 -0.00000000000E+00 -0.67514742918E+02  0.67514742918E+02  0.00000000000E+00 0.  1.
         25    2    1    2    0    0  0.51780666596E+02  0.16253909152E+02  0.86548335613E+02  0.16143731191E+03  0.12500385708E+03 0.  0.
          4    1    3    3  502    0 -0.26016940103E+02  0.26249611269E+02 -0.87527566798E+01  0.38001933025E+02  0.12700000000E+01 0.  1.
         -4    1    3    3    0  502  0.77797606700E+02 -0.99957021173E+01  0.95301092293E+02  0.12343537889E+03  0.12700000000E+01 0.  1.
          1    1    1    2  503    0 -0.19630636767E+02 -0.33854106800E+02  0.19501957727E+02  0.43724007162E+02  0.00000000000E+00 0. -1.
         -1    1    1    2    0  501 -0.32150029830E+02  0.17600197649E+02  0.74134023385E+00  0.36659800336E+02  0.00000000000E+00 0.  1.
<mgrwt>
<rscale>  0 0.38461609E+02</rscale>
<asrwt>0</asrwt>
<pdfrwt beam="1">  1        1 0.26816365E-01 0.40360229E+02</pdfrwt>
<pdfrwt beam="2">  1       -1 0.10386884E-01 0.36652304E+02</pdfrwt>
<totfact> 0.83633988E+03</totfact>
</mgrwt>
</event>
<event>
 7    1  0.3113530E-004  0.5774011E+02  0.7546771E-02  0.1544938E+00
          2   -1    0    0  503    0  0.00000000000E+00  0.00000000000E+00  0.28413573475E+04  0.28413573475E+04  0.00000000000E+00 0. -1.
         -3   -1    0    0    0  501 -0.00000000000E+00 -0.00000000000E+00 -0.12844705786E+02  0.12844705786E+02  0.00000000000E+00 0.  1.
         25    2    1    2    0    0 -0.13406237291E+02 -0.76539991831E+02  0.15869644058E+04  0.15937751364E+04  0.12500025051E+03 0.  0.
          4    1    3    3  502    0 -0.57417268679E+02 -0.80943250471E+02  0.12469695945E+04  0.12509130006E+04  0.12700000000E+01 0.  1.
         -4    1    3    3    0  502  0.44011031388E+02  0.44032586400E+01  0.33999481126E+03  0.34286213579E+03  0.12700000000E+01 0.  1.
          2    1    1    2  503    0 -0.90902413521E+00  0.21703987476E+02  0.11648965989E+04  0.11650991269E+04  0.00000000000E+00 0. -1.
         -3    1    1    2    0  501  0.14315261427E+02  0.54836004355E+02  0.76651637051E+02  0.95327789998E+02  0.00000000000E+00 0.  1.
<mgrwt>
<rscale>  0 0.35415947E+02</rscale>
<asrwt>0</asrwt>
<pdfrwt beam="1">  1        2 0.43713140E+00 0.21723015E+02</pdfrwt>
<pdfrwt beam="2">  1       -3 0.19761108E-02 0.57740111E+02</pdfrwt>
<totfact> 0.18717108E+03</totfact>
</mgrwt>
</event>
<event>
 7    1  0.3113530E-004  0.1186871E+03  0.7546771E-02  0.1295702E+00
          2   -1    0    0  503    0  0.00000000000E+00  0.00000000000E+00  0.22599153860E+03  0.22599153860E+03  0.00000000000E+00 0. -1.
         -3   -1    0    0    0  501 -0.00000000000E+00 -0.00000000000E+00 -0.62290360939E+03  0.62290360939E+03  0.00000000000E+00 0.  1.
         25    2    1    2    0    0  0.15994225119E+03 -0.77283776155E+02 -0.12860401766E+01  0.21721207835E+03  0.12500050923E+03 0.  0.
          4    1    3    3  502    0  0.14988670746E+03 -0.65080028544E+02  0.43997608532E+02  0.16923013220E+03  0.12700000000E+01 0.  1.
         -4    1    3    3    0  502  0.10055543728E+02 -0.12203747611E+02 -0.45283648709E+02  0.47981946144E+02  0.12700000000E+01 0.  1.
          2    1    1    2  503    0 -0.90818313380E+02  0.54121052079E+02  0.91081946858E+02  0.13954560318E+03  0.00000000000E+00 0. -1.
         -3    1    1    2    0  501 -0.69123937810E+02  0.23162724076E+02 -0.48670797747E+03  0.49213746646E+03  0.00000000000E+00 0.  1.
<mgrwt>
<rscale>  0 0.93018667E+02</rscale>
<asrwt>0</asrwt>
<pdfrwt beam="1">  1        2 0.34767930E-01 0.11868715E+03</pdfrwt>
<pdfrwt beam="2">  1       -3 0.95831323E-01 0.72901513E+02</pdfrwt>
<totfact> 0.88702625E+01</totfact>
</mgrwt>
</event>
<event>
 7    1  0.3113530E-004  0.1194135E+03  0.7546771E-02  0.1387822E+00
          1   -1    0    0  503    0 -0.00000000000E+00  0.00000000000E+00  0.11982754201E+04  0.11982754201E+04  0.00000000000E+00 0. -1.
          2   -1    0    0  502    0  0.00000000000E+00 -0.00000000000E+00 -0.23937832422E+03  0.23937832422E+03  0.00000000000E+00 0. -1.
         25    2    1    2    0    0  0.82549048352E+02  0.12439187134E+03  0.63843829681E+02  0.20491086832E+03  0.12499898530E+03 0.  0.
          4    1    3    3  501    0 -0.17632781906E+02  0.76136797405E+02  0.50146192920E+02  0.92865389038E+02  0.12700000000E+01 0.  1.
         -4    1    3    3    0  501  0.10018183026E+03  0.48255073939E+02  0.13697636761E+02  0.11204547928E+03  0.12700000000E+01 0.  1.
          2    1    1    2  502    0 -0.24480024077E+02 -0.21621658021E+02 -0.16395483125E+03  0.16717641689E+03  0.00000000000E+00 0. -1.
          1    1    1    2  503    0 -0.58069024274E+02 -0.10277021332E+03  0.10590080974E+04  0.10655664591E+04  0.00000000000E+00 0. -1.
<mgrwt>
<rscale>  0 0.62451674E+02</rscale>
<asrwt>0</asrwt>
<pdfrwt beam="2">  1        2 0.36827435E-01 0.32661410E+02</pdfrwt>
<pdfrwt beam="1">  1        1 0.18435006E+00 0.11941345E+03</pdfrwt>
<totfact> 0.22520642E+02</totfact>
</mgrwt>
</event>
<event>
 7    1  0.3113530E-004  0.1122223E+03  0.7546771E-02  0.1399426E+00
          2   -1    0    0  503    0  0.00000000000E+00  0.00000000000E+00  0.12047936373E+04  0.12047936373E+04  0.00000000000E+00 0. -1.
          2   -1    0    0  502    0 -0.00000000000E+00 -0.00000000000E+00 -0.20682230470E+04  0.20682230470E+04  0.00000000000E+00 0. -1.
         25    2    1    2    0    0  0.63422063989E+02 -0.54204004552E+02 -0.48977155321E+03  0.51230927584E+03  0.12499674982E+03 0.  0.
          4    1    3    3  501    0  0.47229013014E+02 -0.95123904964E+02 -0.34046867665E+03  0.35665062687E+03  0.12700000000E+01 0.  1.
         -4    1    3    3    0  501  0.16193050975E+02  0.40919900412E+02 -0.14930287656E+03  0.15565864897E+03  0.12700000000E+01 0.  1.
          2    1    1    2  502    0  0.30927591952E+02 -0.68450945573E+01 -0.15643766622E+04  0.15646973230E+04  0.00000000000E+00 0. -1.
          2    1    1    2  503    0 -0.94349655941E+02  0.61049099109E+02  0.11907188057E+04  0.11960100854E+04  0.00000000000E+00 0. -1.
<mgrwt>
<rscale>  0 0.59621775E+02</rscale>
<asrwt>0</asrwt>
<pdfrwt beam="1">  1        2 0.18535287E+00 0.11222225E+03</pdfrwt>
<pdfrwt beam="2">  1        2 0.31818816E+00 0.31676036E+02</pdfrwt>
<totfact> 0.28737021E+01</totfact>
</mgrwt>
</event>
<event>
 7    1  0.3113530E-004  0.8683177E+02  0.7546771E-02  0.1358876E+00
          2   -1    0    0  502    0  0.00000000000E+00  0.00000000000E+00  0.65156300689E+03  0.65156300689E+03  0.00000000000E+00 0. -1.
          3   -1    0    0  503    0 -0.00000000000E+00 -0.00000000000E+00 -0.52959618586E+02  0.52959618586E+02  0.00000000000E+00 0. -1.
         25    2    1    2    0    0  0.49554861343E+02  0.74649548121E+02  0.18707310645E+03  0.24217547658E+03  0.12499749991E+03 0.  0.
          4    1    3    3  501    0 -0.15997237489E+02  0.58841698258E+02  0.15681028195E+03  0.16825378000E+03  0.12700000000E+01 0.  1.
         -4    1    3    3    0  501  0.65552098832E+02  0.15807849863E+02  0.30262824503E+02  0.73921696582E+02  0.12700000000E+01 0.  1.
          2    1    1    2  502    0 -0.84192360008E+02 -0.29366205032E+02  0.39210684501E+03  0.40211752683E+03  0.00000000000E+00 0. -1.
          3    1    1    2  503    0  0.34637498665E+02 -0.45283343089E+02  0.19423436852E+02  0.60229622066E+02  0.00000000000E+00 0. -1.
<mgrwt>
<rscale>  0 0.70359287E+02</rscale>
<asrwt>0</asrwt>
<pdfrwt beam="1">  1        2 0.10024046E+00 0.86831765E+02</pdfrwt>
<pdfrwt beam="2">  1        3 0.81476341E-02 0.57011731E+02</pdfrwt>
<totfact> 0.25730526E+03</totfact>
</mgrwt>
</event>
<event>
 7    1  0.3113530E-004  0.5917258E+02  0.7546771E-02  0.1418399E+00
          1   -1    0    0  503    0 -0.00000000000E+00  0.00000000000E+00  0.36238391327E+02  0.36238391327E+02  0.00000000000E+00 0. -1.
          2   -1    0    0  502    0  0.00000000000E+00 -0.00000000000E+00 -0.17771748760E+04  0.17771748760E+04  0.00000000000E+00 0. -1.
         25    2    1    2    0    0  0.76168138624E+01  0.23143544397E+02 -0.45056096526E+03  0.46821353846E+03  0.12500037875E+03 0.  0.
          4    1    3    3  501    0  0.50703012884E+02  0.21748364792E+02 -0.93602749813E+02  0.10865944303E+03  0.12700000000E+01 0. -1.
         -4    1    3    3    0  501 -0.43086199021E+02  0.13951796047E+01 -0.35695821544E+03  0.35955409544E+03  0.12700000000E+01 0. -1.
          2    1    1    2  502    0 -0.43323295177E+02  0.28387296950E+02 -0.12807210274E+04  0.12817679573E+04  0.00000000000E+00 0. -1.
          1    1    1    2  503    0  0.35706481314E+02 -0.51530841347E+02 -0.96544920168E+01  0.63431771486E+02  0.00000000000E+00 0. -1.
<mgrwt>
<rscale>  0 0.55361160E+02</rscale>
<asrwt>0</asrwt>
<pdfrwt beam="2">  1        2 0.27341159E+00 0.51795237E+02</pdfrwt>
<pdfrwt beam="1">  1        1 0.55751357E-02 0.59172584E+02</pdfrwt>
<totfact> 0.19477587E+03</totfact>
</mgrwt>
</event>
<event>
 7    1  0.3113530E-004  0.6247185E+02  0.7546771E-02  0.1425381E+00
         -1   -1    0    0    0  501 -0.00000000000E+00  0.00000000000E+00  0.34147356538E+03  0.34147356538E+03  0.00000000000E+00 0.  1.
          2   -1    0    0  503    0  0.00000000000E+00 -0.00000000000E+00 -0.52017896109E+02  0.52017896109E+02  0.00000000000E+00 0. -1.
         25    2    1    2    0    0 -0.81683905100E+02  0.33878525897E+01  0.13508453138E+03  0.20138722791E+03  0.12500098819E+03 0.  0.
          4    1    3    3  502    0 -0.10613420879E+02 -0.47369949712E+02  0.91921374350E+02  0.10396013082E+03  0.12700000000E+01 0.  1.
         -4    1    3    3    0  502 -0.71070484221E+02  0.50757802302E+02  0.43163157030E+02  0.97427097086E+02  0.12700000000E+01 0.  1.
          2    1    1    2  503    0  0.47425716778E+02 -0.34832981916E+02  0.47737144893E+02  0.75771830146E+02  0.00000000000E+00 0. -1.
         -1    1    1    2    0  501  0.34258188322E+02  0.31445129326E+02  0.10663399300E+03  0.11633240343E+03  0.00000000000E+00 0.  1.
<mgrwt>
<rscale>  0 0.53898562E+02</rscale>
<asrwt>0</asrwt>
<pdfrwt beam="2">  1        2 0.80027535E-02 0.62471851E+02</pdfrwt>
<pdfrwt beam="1">  1       -1 0.52534393E-01 0.46501824E+02</pdfrwt>
<totfact> 0.33258020E+03</totfact>
</mgrwt>
</event>
<event>
 7    1  0.3113530E-004  0.2313529E+03  0.7546771E-02  0.1328574E+00
          2   -1    0    0  503    0  0.00000000000E+00  0.00000000000E+00  0.12196963434E+04  0.12196963434E+04  0.00000000000E+00 0. -1.
         -3   -1    0    0    0  501 -0.00000000000E+00 -0.00000000000E+00 -0.51267384841E+03  0.51267384841E+03  0.00000000000E+00 0.  1.
         25    2    1    2    0    0  0.92547169633E+02  0.19821488081E+03  0.19063133842E+02  0.25267082722E+03  0.12500010510E+03 0.  0.
          4    1    3    3  502    0 -0.26950666648E+02  0.43897487501E+02 -0.16856319529E+02  0.54213247917E+02  0.12700000000E+01 0. -1.
         -4    1    3    3    0  502  0.11949783628E+03  0.15431739330E+03  0.35919453371E+02  0.19845757930E+03  0.12700000000E+01 0. -1.
          2    1    1    2  503    0  0.27551513598E+02  0.35565838749E+01  0.10488101121E+04  0.10491779574E+04  0.00000000000E+00 0. -1.
         -3    1    1    2    0  501 -0.12009868323E+03 -0.20177146468E+03 -0.36085075086E+03  0.43052140721E+03  0.00000000000E+00 0.  1.
<mgrwt>
<rscale>  0 0.80168648E+02</rscale>
<asrwt>0</asrwt>
<pdfrwt beam="1">  1        2 0.18764559E+00 0.27780122E+02</pdfrwt>
<pdfrwt beam="2">  1       -3 0.78872900E-01 0.23135291E+03</pdfrwt>
<totfact> 0.21568746E+01</totfact>
</mgrwt>
</event>
<event>
 7    1  0.3113530E-004  0.1615050E+03  0.7546771E-02  0.1327274E+00
          1   -1    0    0  503    0  0.00000000000E+00  0.00000000000E+00  0.43945791762E+03  0.43945791762E+03  0.00000000000E+00 0. -1.
         -1   -1    0    0    0  501 -0.00000000000E+00 -0.00000000000E+00 -0.15201998418E+03  0.15201998418E+03  0.00000000000E+00 0.  1.
         25    2    1    2    0    0  0.76822841211E+02  0.16853600311E+03  0.15451871288E+03  0.27167182864E+03  0.12499366611E+03 0.  0.
          4    1    3    3  502    0  0.78976534022E+02  0.14253703359E+03  0.60070045800E+02  0.17367821444E+03  0.12700000000E+01 0.  1.
         -4    1    3    3    0  502 -0.21536928115E+01  0.25998969521E+02  0.94448667083E+02  0.97993614193E+02  0.12700000000E+01 0.  1.
          1    1    1    2  503    0 -0.80230737115E+02 -0.12842700422E+03  0.19433959022E+03  0.24637033693E+03  0.00000000000E+00 0. -1.
         -1    1    1    2    0  501  0.34078959040E+01 -0.40108998889E+02 -0.61420369670E+02  0.73435736238E+02  0.00000000000E+00 0.  1.
<mgrwt>
<rscale>  0 0.80629675E+02</rscale>
<asrwt>0</asrwt>
<pdfrwt beam="1">  1        1 0.67608910E-01 0.16150501E+03</pdfrwt>
<pdfrwt beam="2">  1       -1 0.23387690E-01 0.40253516E+02</pdfrwt>
<totfact> 0.79877086E+02</totfact>
</mgrwt>
</event>
<event>
 7    1  0.3113530E-004  0.7530221E+02  0.7546771E-02  0.1448016E+00
         -2   -1    0    0    0  501 -0.00000000000E+00  0.00000000000E+00  0.96950876619E+03  0.96950876619E+03  0.00000000000E+00 0.  1.
          2   -1    0    0  503    0  0.00000000000E+00 -0.00000000000E+00 -0.93220417772E+02  0.93220417772E+02  0.00000000000E+00 0. -1.
         25    2    1    2    0    0  0.27389654157E+02 -0.93687400315E+02  0.56983273915E+03  0.59149106168E+03  0.12499921321E+03 0.  0.
          4    1    3    3  502    0 -0.88072173665E+01  0.26399663543E+02  0.17529566235E+03  0.17749560966E+03  0.12700000000E+01 0.  1.
         -4    1    3    3    0  502  0.36196871523E+02 -0.12008706386E+03  0.39453707681E+03  0.41399545202E+03  0.12700000000E+01 0.  1.
          2    1    1    2  503    0 -0.21206384402E+02  0.24692445178E+02 -0.75938611059E+02  0.82620216884E+02  0.00000000000E+00 0. -1.
         -2    1    1    2    0  501 -0.61832697547E+01  0.68994955136E+02  0.38239422033E+03  0.38861790540E+03  0.00000000000E+00 0.  1.
<mgrwt>
<rscale>  0 0.49507579E+02</rscale>
<asrwt>0</asrwt>
<pdfrwt beam="2">  1        2 0.14341603E-01 0.32548849E+02</pdfrwt>
<pdfrwt beam="1">  1       -2 0.14915519E+00 0.75302213E+02</pdfrwt>
<totfact> 0.12677002E+02</totfact>
</mgrwt>
</event>
<event>
 7    1  0.3113530E-004  0.1494105E+03  0.7546771E-02  0.1322888E+00
         -3   -1    0    0    0  501 -0.00000000000E+00  0.00000000000E+00  0.31254622669E+03  0.31254622669E+03  0.00000000000E+00 0.  1.
          3   -1    0    0  503    0  0.00000000000E+00 -0.00000000000E+00 -0.16939659639E+03  0.16939659639E+03  0.00000000000E+00 0. -1.
         25    2    1    2    0    0 -0.63361206689E+02 -0.16580783768E+03  0.22408041959E+02  0.21824878689E+03  0.12499412419E+03 0.  0.
          4    1    3    3  502    0 -0.71880854337E+01  0.10982526160E+02  0.29810305044E+02  0.32596804136E+02  0.12700000000E+01 0.  1.
         -4    1    3    3    0  502 -0.56173121255E+02 -0.17679036384E+03 -0.74022630858E+01  0.18565198275E+03  0.12700000000E+01 0.  1.
          3    1    1    2  503    0  0.57868100121E+02  0.12090578968E+03 -0.76166742767E+00  0.13404293016E+03  0.00000000000E+00 0. -1.
         -3    1    1    2    0  501  0.54931065677E+01  0.44902048009E+02  0.12150325577E+03  0.12965110604E+03  0.00000000000E+00 0.  1.
<mgrwt>
<rscale>  0 0.82212255E+02</rscale>
<asrwt>0</asrwt>
<pdfrwt beam="2">  1        3 0.26061015E-01 0.14941054E+03</pdfrwt>
<pdfrwt beam="1">  1       -3 0.48084035E-01 0.45236801E+02</pdfrwt>
<totfact> 0.13298125E+02</totfact>
</mgrwt>
</event>
<event>
 7    1  0.3113530E-004  0.4852389E+02  0.7546771E-02  0.1543716E+00
         -1   -1    0    0    0  501 -0.00000000000E+00  0.00000000000E+00  0.57770931158E+02  0.57770931158E+02  0.00000000000E+00 0.  1.
          2   -1    0    0  503    0  0.00000000000E+00 -0.00000000000E+00 -0.41114663736E+03  0.41114663736E+03  0.00000000000E+00 0. -1.
         25    2    1    2    0    0  0.65534413441E+02 -0.13755839334E+02 -0.58205899970E+02  0.15328962605E+03  0.12500320077E+03 0.  0.
          4    1    3    3  502    0  0.22898131978E+02 -0.49867605556E+02 -0.76792292564E+02  0.94391586644E+02  0.12700000000E+01 0.  1.
         -4    1    3    3    0  502  0.42636281463E+02  0.36111766222E+02  0.18586392594E+02  0.58898039410E+02  0.12700000000E+01 0.  1.
          2    1    1    2  503    0 -0.47597987221E+02 -0.51412706060E+01 -0.28273310722E+03  0.28675775660E+03  0.00000000000E+00 0. -1.
         -1    1    1    2    0  501 -0.17936426219E+02  0.18897109940E+02 -0.12436699010E+02  0.28870185865E+02  0.00000000000E+00 0.  1.
<mgrwt>
<rscale>  0 0.35556242E+02</rscale>
<asrwt>0</asrwt>
<pdfrwt beam="2">  1        2 0.63253331E-01 0.48523890E+02</pdfrwt>
<pdfrwt beam="1">  1       -1 0.88878353E-02 0.26054100E+02</pdfrwt>
<totfact> 0.54249076E+03</totfact>
</mgrwt>
</event>
<event>
 7    1  0.3113530E-004  0.7542042E+02  0.7546771E-02  0.1392222E+00
          1   -1    0    0  503    0 -0.00000000000E+00  0.00000000000E+00  0.35776766610E+03  0.35776766610E+03  0.00000000000E+00 0. -1.
          2   -1    0    0  502    0  0.00000000000E+00 -0.00000000000E+00 -0.52412972055E+03  0.52412972055E+03  0.00000000000E+00 0. -1.
         25    2    1    2    0    0 -0.19724540820E+02 -0.63001861754E+02  0.15884671324E+03  0.21263467455E+03  0.12499173739E+03 0.  0.
          4    1    3    3  501    0  0.39700816784E+02 -0.41419802390E+02  0.13200121799E+03  0.14393640726E+03  0.12700000000E+01 0.  1.
         -4    1    3    3    0  501 -0.59425357604E+02 -0.21582059364E+02  0.26845495248E+02  0.68698267285E+02  0.12700000000E+01 0.  1.
          2    1    1    2  502    0  0.64195228075E+02  0.40330004155E+02 -0.49064107003E+03  0.49646369066E+03  0.00000000000E+00 0. -1.
          1    1    1    2  503    0 -0.44470687254E+02  0.22671857598E+02  0.16543230234E+03  0.17279902144E+03  0.00000000000E+00 0. -1.
<mgrwt>
<rscale>  0 0.61357329E+02</rscale>
<asrwt>0</asrwt>
<pdfrwt beam="2">  1        2 0.80635342E-01 0.75420416E+02</pdfrwt>
<pdfrwt beam="1">  1        1 0.55041179E-01 0.49916482E+02</pdfrwt>
<totfact> 0.58241403E+02</totfact>
</mgrwt>
</event>
<event>
 7    1  0.3113530E-004  0.3746008E+02  0.7546771E-02  0.1605842E+00
         -1   -1    0    0    0  501 -0.00000000000E+00  0.00000000000E+00  0.14633701241E+02  0.14633701241E+02  0.00000000000E+00 0.  1.
          2   -1    0    0  503    0  0.00000000000E+00 -0.00000000000E+00 -0.95395731456E+03  0.95395731456E+03  0.00000000000E+00 0. -1.
         25    2    1    2    0    0 -0.19157751715E+02 -0.43724079463E+02 -0.42585657416E+03  0.44638593632E+03  0.12501107075E+03 0.  0.
          4    1    3    3  502    0 -0.25528231352E+02 -0.60010621117E+02 -0.42373262527E+03  0.42872358912E+03  0.12700000000E+01 0. -1.
         -4    1    3    3    0  502  0.63704796371E+01  0.16286541654E+02 -0.21239488903E+01  0.17662347204E+02  0.12700000000E+01 0. -1.
          2    1    1    2  503    0  0.29075963691E+02  0.23046479477E+02 -0.48114664494E+03  0.48257501574E+03  0.00000000000E+00 0. -1.
         -1    1    1    2    0  501 -0.99182119761E+01  0.20677599986E+02 -0.32320394223E+02  0.39630063748E+02  0.00000000000E+00 0.  1.
<mgrwt>
<rscale>  0 0.29310094E+02</rscale>
<asrwt>0</asrwt>
<pdfrwt beam="2">  1        2 0.14676274E+00 0.37460085E+02</pdfrwt>
<pdfrwt beam="1">  1       -1 0.22513374E-02 0.22933252E+02</pdfrwt>
<totfact> 0.14376316E+04</totfact>
</mgrwt>
</event>
<event>
 7    1  0.3113530E-004  0.7918211E+02  0.7546771E-02  0.1360799E+00
          2   -1    0    0  503    0  0.00000000000E+00  0.00000000000E+00  0.38462088630E+03  0.38462088630E+03  0.00000000000E+00 0. -1.
          2   -1    0    0  502    0 -0.00000000000E+00 -0.00000000000E+00 -0.54850940345E+03  0.54850940345E+03  0.00000000000E+00 0. -1.
         25    2    1    2    0    0  0.12646484967E+02 -0.15002634072E+02  0.14052153174E+03  0.18909023011E+03  0.12499520644E+03 0.  0.
          4    1    3    3  501    0 -0.51775477501E+01  0.54491126798E+02  0.59143141829E+02  0.80595372235E+02  0.12700000000E+01 0.  1.
         -4    1    3    3    0  501  0.17824032717E+02 -0.69493760870E+02  0.81378389907E+02  0.10849485788E+03  0.12700000000E+01 0.  1.
          2    1    1    2  502    0 -0.34716631946E+02  0.72424042288E+02 -0.51675744259E+03  0.52296150997E+03  0.00000000000E+00 0. -1.
          2    1    1    2  503    0  0.22070146980E+02 -0.57421408215E+02  0.21234739371E+03  0.22107854967E+03  0.00000000000E+00 0. -1.
<mgrwt>
<rscale>  0 0.69792733E+02</rscale>
<asrwt>0</asrwt>
<pdfrwt beam="1">  1        2 0.59172444E-01 0.61516742E+02</pdfrwt>
<pdfrwt beam="2">  1        2 0.84386062E-01 0.79182114E+02</pdfrwt>
<totfact> 0.74464607E+02</totfact>
</mgrwt>
</event>
<event>
 7    1  0.3113530E-004  0.1364402E+03  0.7546771E-02  0.1245949E+00
          1   -1    0    0  503    0 -0.00000000000E+00  0.00000000000E+00  0.23228155586E+03  0.23228155586E+03  0.00000000000E+00 0. -1.
          2   -1    0    0  502    0  0.00000000000E+00 -0.00000000000E+00 -0.22162505532E+03  0.22162505532E+03  0.00000000000E+00 0. -1.
         25    2    1    2    0    0  0.16976447448E+02  0.56167606813E+02 -0.93941409418E+01  0.13840730254E+03  0.12500132675E+03 0.  0.
          4    1    3    3  501    0 -0.49727620723E+02  0.48092284609E+01  0.12290876246E+02  0.51464973332E+02  0.12700000000E+01 0. -1.
         -4    1    3    3    0  501  0.66704068171E+02  0.51358378352E+02 -0.21685017188E+02  0.86942329207E+02  0.12700000000E+01 0. -1.
          2    1    1    2  502    0 -0.15317983797E+03 -0.64203244847E+02 -0.32587433964E+02  0.16925737875E+03  0.00000000000E+00 0. -1.
          1    1    1    2  503    0  0.13620339052E+03  0.80356380339E+01  0.52638075450E+02  0.14624192988E+03  0.00000000000E+00 0. -1.
<mgrwt>
<rscale>  0 0.11828768E+03</rscale>
<asrwt>0</asrwt>
<pdfrwt beam="2">  1        2 0.34096162E-01 0.10255022E+03</pdfrwt>
<pdfrwt beam="1">  1        1 0.35735624E-01 0.13644023E+03</pdfrwt>
<totfact> 0.24478422E+03</totfact>
</mgrwt>
</event>
<event>
 7    1  0.3113530E-004  0.5056408E+02  0.7546771E-02  0.1464872E+00
          1   -1    0    0  502    0  0.00000000000E+00  0.00000000000E+00  0.62598342413E+03  0.62598342413E+03  0.00000000000E+00 0. -1.
          1   -1    0    0  503    0 -0.00000000000E+00 -0.00000000000E+00 -0.96313413198E+02  0.96313413198E+02  0.00000000000E+00 0. -1.
         25    2    1    2    0    0 -0.38436206405E+00  0.16044720612E+02  0.27585944786E+03  0.30328540823E+03  0.12500409224E+03 0.  0.
          4    1    3    3  501    0  0.29043163243E+02 -0.22771993747E+02  0.18405182123E+02  0.41260546038E+02  0.12700000000E+01 0.  1.
         -4    1    3    3    0  501 -0.29427525307E+02  0.38816714359E+02  0.25745426573E+03  0.26202486219E+03  0.12700000000E+01 0.  1.
          1    1    1    2  502    0  0.38448507723E+02  0.18940204080E+02  0.32678257271E+03  0.32958135400E+03  0.00000000000E+00 0. -1.
          1    1    1    2  503    0 -0.38064145659E+02 -0.34984924693E+02 -0.72972009643E+02  0.89430075097E+02  0.00000000000E+00 0. -1.
<mgrwt>
<rscale>  0 0.46553190E+02</rscale>
<asrwt>0</asrwt>
<pdfrwt beam="1">  1        1 0.96305140E-01 0.42860461E+02</pdfrwt>
<pdfrwt beam="2">  1        1 0.14817449E-01 0.50564075E+02</pdfrwt>
<totfact> 0.14777519E+03</totfact>
</mgrwt>
</event>
<event>
 7    1  0.3113530E-004  0.5510111E+02  0.7546771E-02  0.1549312E+00
          2   -1    0    0  502    0  0.00000000000E+00  0.00000000000E+00  0.10438472067E+04  0.10438472067E+04  0.00000000000E+00 0.  1.
          2   -1    0    0  503    0 -0.00000000000E+00 -0.00000000000E+00 -0.26495967589E+02  0.26495967589E+02  0.00000000000E+00 0. -1.
         25    2    1    2    0    0 -0.35671487413E+02 -0.36585926596E+02  0.28084261206E+03  0.31162308582E+03  0.12500155931E+03 0.  0.
          4    1    3    3  501    0 -0.47476375037E+02  0.12117670956E+02  0.33784098593E+02  0.59530012210E+02  0.12700000000E+01 0.  1.
         -4    1    3    3    0  501  0.11804887624E+02 -0.48703597551E+02  0.24705851347E+03  0.25209307361E+03  0.12700000000E+01 0.  1.
          2    1    1    2  502    0  0.19797755812E+02  0.52005883999E+02  0.73438263994E+03  0.73648789872E+03  0.00000000000E+00 0.  1.
          2    1    1    2  503    0  0.15873731601E+02 -0.15419957404E+02  0.21259871411E+01  0.22232189784E+02  0.00000000000E+00 0. -1.
<mgrwt>
<rscale>  0 0.34919971E+02</rscale>
<asrwt>0</asrwt>
<pdfrwt beam="1">  1        2 0.16059185E+00 0.55101109E+02</pdfrwt>
<pdfrwt beam="2">  1        2 0.40763035E-02 0.22130306E+02</pdfrwt>
<totfact> 0.65364979E+03</totfact>
</mgrwt>
</event>
<event>
 7    1  0.3113530E-004  0.1374425E+03  0.7546771E-02  0.1341346E+00
          2   -1    0    0  503    0  0.00000000000E+00  0.00000000000E+00  0.90338931398E+03  0.90338931398E+03  0.00000000000E+00 0. -1.
         -1   -1    0    0    0  501 -0.00000000000E+00 -0.00000000000E+00 -0.59800015588E+02  0.59800015588E+02  0.00000000000E+00 0.  1.
         25    2    1    2    0    0 -0.36766356820E+02 -0.11316088165E+03  0.18820751746E+03  0.25535168523E+03  0.12500105356E+03 0.  0.
          4    1    3    3  502    0 -0.39890023121E+01 -0.67637405134E+01  0.12900782554E+03  0.12925282309E+03  0.12700000000E+01 0. -1.
         -4    1    3    3    0  502 -0.32777354508E+02 -0.10639714113E+03  0.59199691920E+02  0.12609886214E+03  0.12700000000E+01 0. -1.
          2    1    1    2  503    0  0.29314726619E+01 -0.41724624272E+02  0.43141260328E+03  0.43343554546E+03  0.00000000000E+00 0. -1.
         -1    1    1    2    0  501  0.33834884158E+02  0.15488550592E+03  0.22396917765E+03  0.27440209887E+03  0.00000000000E+00 0.  1.
<mgrwt>
<rscale>  0 0.75821326E+02</rscale>
<asrwt>0</asrwt>
<pdfrwt beam="1">  1        2 0.13898296E+00 0.41827477E+02</pdfrwt>
<pdfrwt beam="2">  1       -1 0.92000031E-02 0.13744251E+03</pdfrwt>
<totfact> 0.24905545E+03</totfact>
</mgrwt>
</event>
<event>
 7    1  0.3113530E-004  0.4909824E+02  0.7546771E-02  0.1544781E+00
          1   -1    0    0  503    0 -0.00000000000E+00  0.00000000000E+00  0.32529962202E+03  0.32529962202E+03  0.00000000000E+00 0. -1.
          2   -1    0    0  502    0  0.00000000000E+00 -0.00000000000E+00 -0.27875780413E+03  0.27875780413E+03  0.00000000000E+00 0. -1.
         25    2    1    2    0    0 -0.37477141780E+02  0.28761606684E+01 -0.10508708212E+03  0.16757482168E+03  0.12500087030E+03 0.  0.
          4    1    3    3  501    0  0.31446331232E+02 -0.30293585816E+02 -0.87371446931E+01  0.44547993074E+02  0.12700000000E+01 0.  1.
         -4    1    3    3    0  501 -0.68923473013E+02  0.33169746484E+02 -0.96349937426E+02  0.12302682860E+03  0.12700000000E+01 0.  1.
          2    1    1    2  502    0 -0.29727318965E+01  0.25398995873E+02 -0.13918298890E+03  0.14151272213E+03  0.00000000000E+00 0. -1.
          1    1    1    2  503    0  0.40449873677E+02 -0.28275156542E+02  0.29081188891E+03  0.29496988234E+03  0.00000000000E+00 0. -1.
<mgrwt>
<rscale>  0 0.35433861E+02</rscale>
<asrwt>0</asrwt>
<pdfrwt beam="2">  1        2 0.42885816E-01 0.25572370E+02</pdfrwt>
<pdfrwt beam="1">  1        1 0.50046096E-01 0.49098244E+02</pdfrwt>
<totfact> 0.12435440E+03</totfact>
</mgrwt>
</event>
<event>
 7    1  0.3113530E-004  0.6663181E+02  0.7546771E-02  0.1454153E+00
         -1   -1    0    0    0  501 -0.00000000000E+00  0.00000000000E+00  0.13984662387E+02  0.13984662387E+02  0.00000000000E+00 0.  1.
          2   -1    0    0  503    0  0.00000000000E+00 -0.00000000000E+00 -0.12041476271E+04  0.12041476271E+04  0.00000000000E+00 0. -1.
         25    2    1    2    0    0  0.23222688365E+02 -0.67949345169E+02 -0.49893961134E+03  0.51934747456E+03  0.12499862721E+03 0.  0.
          4    1    3    3  502    0  0.64329280268E+02 -0.77219027007E+02 -0.31540123360E+03  0.33102958401E+03  0.12700000000E+01 0.  1.
         -4    1    3    3    0  502 -0.41106591903E+02  0.92696818382E+01 -0.18353837774E+03  0.18831789055E+03  0.12700000000E+01 0.  1.
          2    1    1    2  503    0 -0.49846651102E+02  0.44983595439E+02 -0.43161641968E+03  0.43680767647E+03  0.00000000000E+00 0. -1.
         -1    1    1    2    0  501  0.26623962737E+02  0.22965749730E+02 -0.25960693370E+03  0.26197713847E+03  0.00000000000E+00 0.  1.
<mgrwt>
<rscale>  0 0.48402562E+02</rscale>
<asrwt>0</asrwt>
<pdfrwt beam="2">  1        2 0.18525351E+00 0.66631810E+02</pdfrwt>
<pdfrwt beam="1">  1       -1 0.21514862E-02 0.35160504E+02</pdfrwt>
<totfact> 0.11622253E+04</totfact>
</mgrwt>
</event>
<event>
 7    1  0.3113530E-004  0.4071915E+02  0.7546771E-02  0.1536053E+00
         -2   -1    0    0    0  501 -0.00000000000E+00  0.00000000000E+00  0.70813113324E+02  0.70813113324E+02  0.00000000000E+00 0.  1.
          1   -1    0    0  503    0  0.00000000000E+00 -0.00000000000E+00 -0.18549239561E+03  0.18549239561E+03  0.00000000000E+00 0. -1.
         25    2    1    2    0    0  0.33036698790E+02  0.32790679131E+02 -0.90705477105E+02  0.16130519253E+03  0.12500091782E+03 0.  0.
          4    1    3    3  502    0 -0.39375786435E+02  0.37924080546E+02 -0.63425081214E+02  0.83743908851E+02  0.12700000000E+01 0. -1.
         -4    1    3    3    0  502  0.72412485226E+02 -0.51334014146E+01 -0.27280395891E+02  0.77561283683E+02  0.12700000000E+01 0. -1.
          1    1    1    2  503    0 -0.16478244652E+01 -0.41726518321E+02 -0.40713519361E+02  0.58321593904E+02  0.00000000000E+00 0. -1.
         -2    1    1    2    0  501 -0.31388874325E+02  0.89358391905E+01  0.16739714177E+02  0.36678722499E+02  0.00000000000E+00 0.  1.
<mgrwt>
<rscale>  0 0.36454238E+02</rscale>
<asrwt>0</asrwt>
<pdfrwt beam="2">  1        1 0.28537291E-01 0.40719149E+02</pdfrwt>
<pdfrwt beam="1">  1       -2 0.10894325E-01 0.32636033E+02</pdfrwt>
<totfact> 0.68085208E+03</totfact>
</mgrwt>
</event>
<event>
 7    1  0.3113530E-004  0.3282137E+02  0.7546771E-02  0.1591865E+00
          1   -1    0    0  502    0  0.00000000000E+00  0.00000000000E+00  0.12233054078E+04  0.12233054078E+04  0.00000000000E+00 0. -1.
          3   -1    0    0  503    0 -0.00000000000E+00 -0.00000000000E+00 -0.13904041230E+03  0.13904041230E+03  0.00000000000E+00 0. -1.
         25    2    1    2    0    0 -0.20140549287E+02  0.27212649398E+02  0.63848627525E+03  0.65148577424E+03  0.12499128106E+03 0.  0.
          4    1    3    3  501    0 -0.46894618421E+02 -0.91634514339E+01  0.55058967101E+03  0.55266054029E+03  0.12700000000E+01 0. -1.
         -4    1    3    3    0  501  0.26754069134E+02  0.36376100832E+02  0.87896604246E+02  0.98825233948E+02  0.12700000000E+01 0. -1.
          1    1    1    2  502    0 -0.12671741960E+02 -0.25499204936E+02  0.57592590924E+03  0.57662937441E+03  0.00000000000E+00 0. -1.
          3    1    1    2  503    0  0.32812291247E+02 -0.17134444617E+01 -0.13014718901E+03  0.13423067144E+03  0.00000000000E+00 0. -1.
<mgrwt>
<rscale>  0 0.30570632E+02</rscale>
<asrwt>0</asrwt>
<pdfrwt beam="1">  1        1 0.18820083E+00 0.28474243E+02</pdfrwt>
<pdfrwt beam="2">  1        3 0.21390833E-01 0.32821366E+02</pdfrwt>
<totfact> 0.12005719E+02</totfact>
</mgrwt>
</event>
<event>
 7    1  0.3113530E-004  0.6662401E+02  0.7546771E-02  0.1456296E+00
          2   -1    0    0  503    0  0.00000000000E+00  0.00000000000E+00  0.29095105653E+03  0.29095105653E+03  0.00000000000E+00 0. -1.
         -2   -1    0    0    0  501 -0.00000000000E+00 -0.00000000000E+00 -0.69712463540E+02  0.69712463540E+02  0.00000000000E+00 0.  1.
         25    2    1    2    0    0  0.12930832437E+02 -0.89291292956E+02  0.10221460088E+03  0.18496698436E+03  0.12499927698E+03 0.  0.
          4    1    3    3  502    0  0.25239674491E+02 -0.78900901585E+02  0.13952486575E+01  0.82861046688E+02  0.12700000000E+01 0.  1.
         -4    1    3    3    0  502 -0.12308842055E+02 -0.10390391371E+02  0.10081935223E+03  0.10210593768E+03  0.12700000000E+01 0.  1.
          2    1    1    2  503    0 -0.19654026840E+02  0.28497607273E+02  0.10817287307E+03  0.11357713177E+03  0.00000000000E+00 0. -1.
         -2    1    1    2    0  501  0.67231944033E+01  0.60793685683E+02  0.10851119037E+02  0.62119403943E+02  0.00000000000E+00 0.  1.
<mgrwt>
<rscale>  0 0.48024772E+02</rscale>
<asrwt>0</asrwt>
<pdfrwt beam="1">  1        2 0.44761700E-01 0.34617833E+02</pdfrwt>
<pdfrwt beam="2">  1       -2 0.10724995E-01 0.66624006E+02</pdfrwt>
<totfact> 0.60200180E+03</totfact>
</mgrwt>
</event>
<event>
 7    1  0.3113530E-004  0.9282483E+02  0.7546771E-02  0.1303713E+00
          2   -1    0    0  502    0  0.00000000000E+00  0.00000000000E+00  0.22790633023E+04  0.22790633023E+04  0.00000000000E+00 0. -1.
          1   -1    0    0  503    0 -0.00000000000E+00 -0.00000000000E+00 -0.10776056466E+04  0.10776056466E+04  0.00000000000E+00 0. -1.
         25    2    1    2    0    0  0.15379067741E+03 -0.66723281827E+02  0.94367997696E+02  0.22942107030E+03  0.12500055884E+03 0.  0.
          4    1    3    3  501    0  0.40503017773E+02 -0.31101190919E+02  0.98096287190E+02  0.11059960663E+03  0.12700000000E+01 0. -1.
         -4    1    3    3    0  501  0.11328765964E+03 -0.35622090908E+02 -0.37282894933E+01  0.11882146367E+03  0.12700000000E+01 0. -1.
          2    1    1    2  502    0 -0.67319290375E+02  0.62496843142E+02  0.21143146198E+04  0.21163090638E+04  0.00000000000E+00 0. -1.
          1    1    1    2  503    0 -0.86471387035E+02  0.42264386851E+01 -0.10072249618E+04  0.10109388147E+04  0.00000000000E+00 0. -1.
<mgrwt>
<rscale>  0 0.89645265E+02</rscale>
<asrwt>0</asrwt>
<pdfrwt beam="1">  1        2 0.35062512E+00 0.92824827E+02</pdfrwt>
<pdfrwt beam="2">  1        1 0.16578548E+00 0.86574613E+02</pdfrwt>
<totfact> 0.12506002E+01</totfact>
</mgrwt>
</event>
<event>
 7    1  0.3113530E-004  0.1104569E+03  0.7546771E-02  0.1304819E+00
          3   -1    0    0  503    0 -0.00000000000E+00  0.00000000000E+00  0.66959113092E+02  0.66959113092E+02  0.00000000000E+00 0. -1.
          1   -1    0    0  502    0  0.00000000000E+00 -0.00000000000E+00 -0.14433039605E+04  0.14433039605E+04  0.00000000000E+00 0. -1.
         25    2    1    2    0    0  0.12855010800E+03  0.11295034304E+03 -0.20021610446E+03  0.29153688140E+03  0.12499741787E+03 0.  0.
          4    1    3    3  501    0  0.76870537217E+02  0.13520100939E+03 -0.15095912942E+03  0.21674562069E+03  0.12700000000E+01 0. -1.
         -4    1    3    3    0  501  0.51679570782E+02 -0.22250666352E+02 -0.49256975035E+02  0.74791260712E+02  0.12700000000E+01 0. -1.
          1    1    1    2  502    0 -0.60830342220E+02 -0.88430959721E+02 -0.11256978509E+04  0.11308032617E+04  0.00000000000E+00 0. -1.
          3    1    1    2  503    0 -0.67719765779E+02 -0.24519383320E+02 -0.50430892110E+02  0.87922930539E+02  0.00000000000E+00 0. -1.
<mgrwt>
<rscale>  0 0.89192631E+02</rscale>
<asrwt>0</asrwt>
<pdfrwt beam="2">  1        1 0.22204676E+00 0.11045690E+03</pdfrwt>
<pdfrwt beam="1">  1        3 0.10301402E-01 0.72021989E+02</pdfrwt>
<totfact> 0.28818032E+02</totfact>
</mgrwt>
</event>
<event>
 7    1  0.3113530E-004  0.9127317E+02  0.7546771E-02  0.1371673E+00
          1   -1    0    0  503    0 -0.00000000000E+00  0.00000000000E+00  0.95403093261E+03  0.95403093261E+03  0.00000000000E+00 0. -1.
          2   -1    0    0  502    0  0.00000000000E+00 -0.00000000000E+00 -0.18545885246E+04  0.18545885246E+04  0.00000000000E+00 0.  1.
         25    2    1    2    0    0 -0.82808019817E+02 -0.69742942609E+02  0.49590520537E+02  0.17263849475E+03  0.12499433569E+03 0.  0.
          4    1    3    3  501    0  0.56541440409E+01  0.29729355377E+02  0.19908637679E+02  0.36245974538E+02  0.12700000000E+01 0.  1.
         -4    1    3    3    0  501 -0.88462163858E+02 -0.99472297985E+02  0.29681882858E+02  0.13639252022E+03  0.12700000000E+01 0.  1.
          2    1    1    2  502    0  0.36117530296E+02  0.83758392373E+02 -0.17911982665E+04  0.17935192149E+04  0.00000000000E+00 0.  1.
          1    1    1    2  503    0  0.46690489521E+02 -0.14015449764E+02  0.84105015396E+03  0.84246174757E+03  0.00000000000E+00 0. -1.
<mgrwt>
<rscale>  0 0.66704177E+02</rscale>
<asrwt>0</asrwt>
<pdfrwt beam="2">  1        2 0.28532131E+00 0.91273168E+02</pdfrwt>
<pdfrwt beam="1">  1        1 0.14677399E+00 0.48748689E+02</pdfrwt>
<totfact> 0.26085655E+01</totfact>
</mgrwt>
</event>
<event>
 7    1  0.3223821E-004  0.4953535E+03  0.7546771E-02  0.1014999E+00
          2   -1    0    0  503    0  0.00000000000E+00  0.00000000000E+00  0.24316014986E+03  0.24316014986E+03  0.00000000000E+00 0. -1.
         -1   -1    0    0    0  501 -0.00000000000E+00 -0.00000000000E+00 -0.25227722013E+03  0.25227722013E+03  0.00000000000E+00 0.  1.
         25    2    1    2    0    0  0.52941500226E+02  0.21786006585E+03 -0.55867764182E+01  0.25674907616E+03  0.12499226096E+03 0.  0.
          4    1    3    3  502    0 -0.30189671691E+02  0.49455784143E+02  0.30518964031E+02  0.65500465094E+02  0.12700000000E+01 0. -1.
         -4    1    3    3    0  502  0.83131171917E+02  0.16840428171E+03 -0.36105740449E+02  0.19124861107E+03  0.12700000000E+01 0. -1.
          2    1    1    2  503    0 -0.59851278800E+02 -0.18361709515E+03  0.23457246228E+02  0.19454473934E+03  0.00000000000E+00 0. -1.
         -1    1    1    2    0  501  0.69097785738E+01 -0.34242970706E+02 -0.26987540086E+02  0.44143554486E+02  0.00000000000E+00 0.  1.
<mgrwt>
<rscale>  0 0.49535348E+03</rscale>
<asrwt>0</asrwt>
<pdfrwt beam="1">  1        2 0.37409254E-01 0.49535348E+03</pdfrwt>
<pdfrwt beam="2">  1       -1 0.38811880E-01 0.49535348E+03</pdfrwt>
<totfact> 0.10237877E+03</totfact>
</mgrwt>
</event>
<event>
 7    1  0.3113530E-004  0.6561363E+03  0.7546771E-02  0.9795333E-01
         -2   -1    0    0    0  501 -0.00000000000E+00  0.00000000000E+00  0.95331809020E+02  0.95331809020E+02  0.00000000000E+00 0.  1.
          2   -1    0    0  503    0  0.00000000000E+00 -0.00000000000E+00 -0.11289903935E+04  0.11289903935E+04  0.00000000000E+00 0. -1.
         25    2    1    2    0    0 -0.52464927071E+02 -0.27197639992E+03 -0.78199741245E+03  0.83896867257E+03  0.12499899914E+03 0.  0.
          4    1    3    3  502    0  0.18268011394E+02 -0.18658471675E+03 -0.41074730555E+03  0.45151139375E+03  0.12700000000E+01 0.  1.
         -4    1    3    3    0  502 -0.70732938466E+02 -0.85391683165E+02 -0.37125010690E+03  0.38745727882E+03  0.12700000000E+01 0.  1.
          2    1    1    2  503    0  0.38806585060E+02  0.30626546811E+02 -0.52817267113E+02  0.72343625281E+02  0.00000000000E+00 0.  1.
         -2    1    1    2    0  501  0.13658342011E+02  0.24134985311E+03 -0.19884390493E+03  0.31300990468E+03  0.00000000000E+00 0. -1.
<mgrwt>
<rscale>  0 0.65613626E+03</rscale>
<asrwt>0</asrwt>
<pdfrwt beam="2">  1        2 0.17369084E+00 0.65613626E+03</pdfrwt>
<pdfrwt beam="1">  1       -2 0.14666432E-01 0.65613626E+03</pdfrwt>
<totfact> 0.76820476E+02</totfact>
</mgrwt>
</event>
<event>
 7    1  0.3113530E-004  0.4368474E+02  0.7546771E-02  0.1513089E+00
          1   -1    0    0  503    0  0.00000000000E+00  0.00000000000E+00  0.14807406536E+04  0.14807406536E+04  0.00000000000E+00 0. -1.
         -2   -1    0    0    0  501 -0.00000000000E+00 -0.00000000000E+00 -0.11290149512E+02  0.11290149512E+02  0.00000000000E+00 0.  1.
         25    2    1    2    0    0  0.10534217369E+02  0.72506528648E+02  0.69047029714E+03  0.70550862151E+03  0.12500006947E+03 0.  0.
          4    1    3    3  502    0  0.34072436562E+02  0.10573343740E+02  0.53894978167E+03  0.54013073103E+03  0.12700000000E+01 0.  1.
         -4    1    3    3    0  502 -0.23538219194E+02  0.61933184908E+02  0.15152051546E+03  0.16537789049E+03  0.12700000000E+01 0.  1.
          1    1    1    2  503    0  0.57363136819E+01 -0.41026735717E+02  0.68223247734E+03  0.68348902806E+03  0.00000000000E+00 0. -1.
         -2    1    1    2    0  501 -0.16270531051E+02 -0.31479792931E+02  0.96747729581E+02  0.10303315351E+03  0.00000000000E+00 0.  1.
<mgrwt>
<rscale>  0 0.39344769E+02</rscale>
<asrwt>0</asrwt>
<pdfrwt beam="1">  1        1 0.22780610E+00 0.43684740E+02</pdfrwt>
<pdfrwt beam="2">  1       -2 0.17369472E-02 0.35435964E+02</pdfrwt>
<totfact> 0.55091631E+03</totfact>
</mgrwt>
</event>
<event>
 7    1  0.3113530E-004  0.8096557E+02  0.7546771E-02  0.1337170E+00
          2   -1    0    0  503    0  0.00000000000E+00  0.00000000000E+00  0.97342567570E+03  0.97342567570E+03  0.00000000000E+00 0. -1.
         -2   -1    0    0    0  501 -0.00000000000E+00 -0.00000000000E+00 -0.27420207254E+03  0.27420207254E+03  0.00000000000E+00 0.  1.
         25    2    1    2    0    0 -0.12766304289E+03  0.58878945456E+02  0.16752506858E+03  0.25188119180E+03  0.12495960723E+03 0.  0.
          4    1    3    3  502    0 -0.77823734390E+02  0.27620167511E+02  0.17407461345E+03  0.19267327587E+03  0.12700000000E+01 0.  1.
         -4    1    3    3    0  502 -0.49839308502E+02  0.31258777945E+02 -0.65495448657E+01  0.59207915928E+02  0.12700000000E+01 0.  1.
          2    1    1    2  503    0  0.48388709966E+02 -0.55487329762E+02  0.75509576435E+03  0.75867642928E+03  0.00000000000E+00 0. -1.
         -2    1    1    2    0  501  0.79274332926E+02 -0.33916156938E+01 -0.22339722978E+03  0.23707012716E+03  0.00000000000E+00 0.  1.
<mgrwt>
<rscale>  0 0.77206921E+02</rscale>
<asrwt>0</asrwt>
<pdfrwt beam="1">  1        2 0.14975779E+00 0.73622762E+02</pdfrwt>
<pdfrwt beam="2">  1       -2 0.42184935E-01 0.80965566E+02</pdfrwt>
<totfact> 0.15695397E+02</totfact>
</mgrwt>
</event>
<event>
 7    1  0.3113530E-004  0.5594886E+02  0.7546771E-02  0.1421399E+00
         -1   -1    0    0    0  501 -0.00000000000E+00  0.00000000000E+00  0.20061955604E+03  0.20061955604E+03  0.00000000000E+00 0.  1.
          1   -1    0    0  503    0  0.00000000000E+00 -0.00000000000E+00 -0.89842776537E+03  0.89842776537E+03  0.00000000000E+00 0. -1.
         25    2    1    2    0    0  0.82649184741E+02  0.10738078901E+01 -0.67269277090E+02  0.16420700916E+03  0.12492696032E+03 0.  0.
          4    1    3    3  502    0  0.63891749835E+02 -0.15417864435E+02 -0.10203668499E+03  0.12137942258E+03  0.12700000000E+01 0. -1.
         -4    1    3    3    0  502  0.18757434906E+02  0.16491672325E+02  0.34767407904E+02  0.42827586585E+02  0.12700000000E+01 0. -1.
          1    1    1    2  503    0 -0.40440667236E+02  0.35071588282E+02 -0.77666344440E+03  0.77850598567E+03  0.00000000000E+00 0. -1.
         -1    1    1    2    0  501 -0.42208517505E+02 -0.36145396172E+02  0.14612451215E+03  0.15633432657E+03  0.00000000000E+00 0.  1.
<mgrwt>
<rscale>  0 0.54726082E+02</rscale>
<asrwt>0</asrwt>
<pdfrwt beam="2">  1        1 0.13821966E+00 0.53530028E+02</pdfrwt>
<pdfrwt beam="1">  1       -1 0.30864547E-01 0.55948859E+02</pdfrwt>
<totfact> 0.20136027E+02</totfact>
</mgrwt>
</event>
<event>
 7    1  0.3113530E-004  0.2366799E+03  0.7546771E-02  0.1201980E+00
          2   -1    0    0  502    0  0.00000000000E+00  0.00000000000E+00  0.27783849285E+04  0.27783849285E+04  0.00000000000E+00 0. -1.
          1   -1    0    0  503    0 -0.00000000000E+00 -0.00000000000E+00 -0.37773472913E+02  0.37773472913E+02  0.00000000000E+00 0. -1.
         25    2    1    2    0    0  0.19697378676E+03 -0.31013859418E+01  0.11848456581E+04  0.12075977403E+04  0.12499911039E+03 0.  0.
          4    1    3    3  501    0  0.19989770865E+03 -0.20864470436E+02  0.11575907921E+04  0.11749095603E+04  0.12700000000E+01 0.  1.
         -4    1    3    3    0  501 -0.29239218876E+01  0.17763084494E+02  0.27254865931E+02  0.32688179926E+02  0.12700000000E+01 0.  1.
          2    1    1    2  502    0 -0.28930204513E+03 -0.11814706889E+02  0.13736470099E+04  0.14038309615E+04  0.00000000000E+00 0. -1.
          1    1    1    2  503    0  0.92328258364E+02  0.14916092831E+02  0.18211878761E+03  0.20472969965E+03  0.00000000000E+00 0. -1.
<mgrwt>
<rscale>  0 0.14878031E+03</rscale>
<asrwt>0</asrwt>
<pdfrwt beam="1">  1        2 0.42744368E+00 0.23667992E+03</pdfrwt>
<pdfrwt beam="2">  1        1 0.58113057E-02 0.93525382E+02</pdfrwt>
<totfact> 0.48200197E+02</totfact>
</mgrwt>
</event>
<event>
 7    1  0.3113530E-004  0.6512380E+02  0.7546771E-02  0.1392150E+00
          2   -1    0    0  502    0  0.00000000000E+00  0.00000000000E+00  0.12164304126E+04  0.12164304126E+04  0.00000000000E+00 0. -1.
          3   -1    0    0  503    0 -0.00000000000E+00 -0.00000000000E+00 -0.22279040688E+02  0.22279040688E+02  0.00000000000E+00 0. -1.
         25    2    1    2    0    0  0.12882329549E+02  0.18136433722E+02  0.53055393754E+03  0.54553319629E+03  0.12499641186E+03 0.  0.
          4    1    3    3  501    0 -0.28211165369E+02  0.61192186895E+02  0.28802129347E+03  0.29580100064E+03  0.12700000000E+01 0. -1.
         -4    1    3    3    0  501  0.41093494918E+02 -0.43055753173E+02  0.24253264407E+03  0.24973219565E+03  0.12700000000E+01 0. -1.
          2    1    1    2  502    0  0.34916633950E+02 -0.62367294683E+02  0.59236289614E+03  0.59665957756E+03  0.00000000000E+00 0. -1.
          3    1    1    2  503    0 -0.47798963499E+02  0.44230860962E+02  0.71234538264E+02  0.96516679463E+02  0.00000000000E+00 0. -1.
<mgrwt>
<rscale>  0 0.61375222E+02</rscale>
<asrwt>0</asrwt>
<pdfrwt beam="1">  1        2 0.18714309E+00 0.57842411E+02</pdfrwt>
<pdfrwt beam="2">  1        3 0.34275457E-02 0.65123805E+02</pdfrwt>
<totfact> 0.46510845E+03</totfact>
</mgrwt>
</event>
<event>
 7    1  0.3113530E-004  0.7643196E+02  0.7546771E-02  0.1361103E+00
         -1   -1    0    0    0  501 -0.00000000000E+00  0.00000000000E+00  0.12813789366E+03  0.12813789366E+03  0.00000000000E+00 0.  1.
          2   -1    0    0  503    0  0.00000000000E+00 -0.00000000000E+00 -0.60345219886E+03  0.60345219886E+03  0.00000000000E+00 0. -1.
         25    2    1    2    0    0 -0.63068240466E+02 -0.22326645111E+02 -0.76491977283E+02  0.16110404751E+03  0.12500963763E+03 0.  0.
          4    1    3    3  502    0 -0.93887780942E+02 -0.39289382426E+02 -0.73945601640E+02  0.12580991965E+03  0.12700000000E+01 0. -1.
         -4    1    3    3    0  502  0.30819540477E+02  0.16962737315E+02 -0.25463756428E+01  0.35294127859E+02  0.12700000000E+01 0. -1.
          2    1    1    2  503    0 -0.75382727309E+01  0.63119325842E+02 -0.46261018966E+03  0.46695723833E+03  0.00000000000E+00 0. -1.
         -1    1    1    2    0  501  0.70606513197E+02 -0.40792680731E+02  0.63787861741E+02  0.10352880668E+03  0.00000000000E+00 0.  1.
<mgrwt>
<rscale>  0 0.69703784E+02</rscale>
<asrwt>0</asrwt>
<pdfrwt beam="2">  1        2 0.92838800E-01 0.63567876E+02</pdfrwt>
<pdfrwt beam="1">  1       -1 0.19713522E-01 0.76431963E+02</pdfrwt>
<totfact> 0.11712728E+03</totfact>
</mgrwt>
</event>
<event>
 7    1  0.3113530E-004  0.1182522E+03  0.7546771E-02  0.1433084E+00
          1   -1    0    0  503    0  0.00000000000E+00  0.00000000000E+00  0.30386579108E+03  0.30386579108E+03  0.00000000000E+00 0. -1.
          1   -1    0    0  502    0 -0.00000000000E+00 -0.00000000000E+00 -0.12578638540E+04  0.12578638540E+04  0.00000000000E+00 0. -1.
         25    2    1    2    0    0 -0.26441377636E+02  0.92916383137E+02 -0.97390911826E+03  0.98663898157E+03  0.12499963449E+03 0.  0.
          4    1    3    3  501    0  0.21907520077E+02  0.18692638740E+02 -0.65554627184E+03  0.65617976317E+03  0.12700000000E+01 0. -1.
         -4    1    3    3    0  501 -0.48348897714E+02  0.74223744397E+02 -0.31836284642E+03  0.33045921840E+03  0.12700000000E+01 0. -1.
          1    1    1    2  502    0  0.21101481237E+01  0.23075269294E+02 -0.26526127500E+03  0.26627141189E+03  0.00000000000E+00 0. -1.
          1    1    1    2  503    0  0.24331229513E+02 -0.11599165243E+03  0.28517233035E+03  0.30881925160E+03  0.00000000000E+00 0. -1.
<mgrwt>
<rscale>  0 0.52345833E+02</rscale>
<asrwt>0</asrwt>
<pdfrwt beam="1">  1        1 0.46748584E-01 0.11825217E+03</pdfrwt>
<pdfrwt beam="2">  1        1 0.19351751E+00 0.23171551E+02</pdfrwt>
<totfact> 0.13327038E+02</totfact>
</mgrwt>
</event>
<event>
 7    1  0.3113530E-004  0.1197149E+03  0.7546771E-02  0.1335768E+00
          2   -1    0    0  503    0  0.00000000000E+00  0.00000000000E+00  0.11651110394E+04  0.11651110394E+04  0.00000000000E+00 0. -1.
          2   -1    0    0  502    0 -0.00000000000E+00 -0.00000000000E+00 -0.49217135087E+03  0.49217135087E+03  0.00000000000E+00 0. -1.
         25    2    1    2    0    0  0.10598952488E+03 -0.45957733728E+02 -0.82137222003E+02  0.18899566423E+03  0.12500778051E+03 0.  0.
          4    1    3    3  501    0 -0.92909621998E+01 -0.35055767383E+02  0.13590434189E+02  0.38749730410E+02  0.12700000000E+01 0. -1.
         -4    1    3    3    0  501  0.11528048708E+03 -0.10901966345E+02 -0.95727656192E+02  0.15024593383E+03  0.12700000000E+01 0. -1.
          2    1    1    2  502    0 -0.12222588762E+03 -0.17598157318E+01 -0.34553579164E+03  0.36652046036E+03  0.00000000000E+00 0. -1.
          2    1    1    2  503    0  0.16236362741E+02  0.47717549460E+02  0.11006127022E+04  0.11017662657E+04  0.00000000000E+00 0. -1.
<mgrwt>
<rscale>  0 0.77679695E+02</rscale>
<asrwt>0</asrwt>
<pdfrwt beam="1">  1        2 0.17924785E+00 0.50404206E+02</pdfrwt>
<pdfrwt beam="2">  1        2 0.75718670E-01 0.11971491E+03</pdfrwt>
<totfact> 0.23173432E+02</totfact>
</mgrwt>
</event>
<event>
 7    1  0.3113530E-004  0.1173531E+03  0.7546771E-02  0.1443684E+00
         -2   -1    0    0    0  501 -0.00000000000E+00  0.00000000000E+00  0.36272468718E+03  0.36272468718E+03  0.00000000000E+00 0.  1.
          1   -1    0    0  503    0  0.00000000000E+00 -0.00000000000E+00 -0.57965603595E+03  0.57965603595E+03  0.00000000000E+00 0. -1.
         25    2    1    2    0    0  0.12412424177E+03 -0.27778435267E+02  0.51300610190E+02  0.18556377690E+03  0.12499477522E+03 0.  0.
          4    1    3    3  502    0  0.10593189841E+02  0.11614469991E+01 -0.37206849149E+02  0.38723728562E+02  0.12700000000E+01 0. -1.
         -4    1    3    3    0  502  0.11353105193E+03 -0.28939882266E+02  0.88507459339E+02  0.14684004834E+03  0.12700000000E+01 0. -1.
          1    1    1    2  503    0 -0.10872946008E+03  0.42882623967E+02 -0.50536512808E+03  0.51870504876E+03  0.00000000000E+00 0. -1.
         -2    1    1    2    0  501 -0.15394781686E+02 -0.15104188699E+02  0.23713316912E+03  0.23811189747E+03  0.00000000000E+00 0.  1.
<mgrwt>
<rscale>  0 0.50308608E+02</rscale>
<asrwt>0</asrwt>
<pdfrwt beam="2">  1        1 0.89177851E-01 0.11735314E+03</pdfrwt>
<pdfrwt beam="1">  1       -2 0.55803798E-01 0.21567008E+02</pdfrwt>
<totfact> 0.10344662E+02</totfact>
</mgrwt>
</event>
<event>
 7    1  0.3113530E-004  0.1391109E+03  0.7546771E-02  0.1334507E+00
          1   -1    0    0  503    0  0.00000000000E+00  0.00000000000E+00  0.24096566545E+03  0.24096566545E+03  0.00000000000E+00 0. -1.
          1   -1    0    0  502    0 -0.00000000000E+00 -0.00000000000E+00 -0.19077369442E+03  0.19077369442E+03  0.00000000000E+00 0. -1.
         25    2    1    2    0    0  0.76240421774E+02  0.10467554543E+03  0.59939882236E+02  0.18971203641E+03  0.12501318151E+03 0.  0.
          4    1    3    3  501    0  0.82960338998E+02  0.63947812753E+02  0.90422989979E+02  0.13838233493E+03  0.12700000000E+01 0. -1.
         -4    1    3    3    0  501 -0.67199172243E+01  0.40727732679E+02 -0.30483107743E+02  0.51329701483E+02  0.12700000000E+01 0. -1.
          1    1    1    2  502    0  0.41699848682E+02 -0.13584082581E+02 -0.68917257616E+02  0.81688390099E+02  0.00000000000E+00 0. -1.
          1    1    1    2  503    0 -0.11794027046E+03 -0.91091462851E+02  0.59169346406E+02  0.16033893337E+03  0.00000000000E+00 0. -1.
<mgrwt>
<rscale>  0 0.78108493E+02</rscale>
<asrwt>0</asrwt>
<pdfrwt beam="1">  1        1 0.37071641E-01 0.13911091E+03</pdfrwt>
<pdfrwt beam="2">  1        1 0.29349799E-01 0.43856638E+02</pdfrwt>
<totfact> 0.20611605E+03</totfact>
</mgrwt>
</event>
<event>
 7    1  0.3113530E-004  0.1555353E+03  0.7546771E-02  0.1297750E+00
          2   -1    0    0  502    0  0.00000000000E+00  0.00000000000E+00  0.16582086108E+04  0.16582086108E+04  0.00000000000E+00 0. -1.
          1   -1    0    0  503    0 -0.00000000000E+00 -0.00000000000E+00 -0.24829682113E+04  0.24829682113E+04  0.00000000000E+00 0. -1.
         25    2    1    2    0    0 -0.17095150129E+03 -0.86540839601E+02 -0.59370958402E+02  0.23635794071E+03  0.12500573077E+03 0.  0.
          4    1    3    3  501    0 -0.12602878276E+03 -0.73790265053E+02 -0.97883115352E+02  0.17581517133E+03  0.12700000000E+01 0. -1.
         -4    1    3    3    0  501 -0.44922718528E+02 -0.12750574548E+02  0.38512156950E+02  0.60542769380E+02  0.12700000000E+01 0. -1.
          2    1    1    2  502    0  0.15050643016E+03  0.35929843789E+02  0.15655815404E+04  0.15732096805E+04  0.00000000000E+00 0. -1.
          1    1    1    2  503    0  0.20445071129E+02  0.50610995812E+02 -0.23309701825E+04  0.23316092009E+04  0.00000000000E+00 0. -1.
<mgrwt>
<rscale>  0 0.92140247E+02</rscale>
<asrwt>0</asrwt>
<pdfrwt beam="1">  1        2 0.25510902E+00 0.15553530E+03</pdfrwt>
<pdfrwt beam="2">  1        1 0.38199511E+00 0.54584557E+02</pdfrwt>
<totfact> 0.33362163E+00</totfact>
</mgrwt>
</event>
<event>
 7    1  0.3113530E-004  0.1626099E+03  0.7546771E-02  0.1314917E+00
         -2   -1    0    0    0  501 -0.00000000000E+00  0.00000000000E+00  0.29262456716E+03  0.29262456716E+03  0.00000000000E+00 0.  1.
          2   -1    0    0  503    0  0.00000000000E+00 -0.00000000000E+00 -0.75101709864E+03  0.75101709864E+03  0.00000000000E+00 0. -1.
         25    2    1    2    0    0 -0.13659316417E+03  0.84867861299E+02  0.69296711800E+02  0.21514376736E+03  0.12499823993E+03 0.  0.
          4    1    3    3  502    0  0.46253320693E+01  0.23709763984E+02 -0.24892690433E+02  0.34710308871E+02  0.12700000000E+01 0. -1.
         -4    1    3    3    0  502 -0.14121849624E+03  0.61158097315E+02  0.94189402232E+02  0.18043345849E+03  0.12700000000E+01 0. -1.
          2    1    1    2  503    0  0.15678448596E+03 -0.45057336037E+02 -0.66468641380E+03  0.68441184038E+03  0.00000000000E+00 0. -1.
         -2    1    1    2    0  501 -0.20191321783E+02 -0.39810525262E+02  0.13699717051E+03  0.14408605806E+03  0.00000000000E+00 0.  1.
<mgrwt>
<rscale>  0 0.85197477E+02</rscale>
<asrwt>0</asrwt>
<pdfrwt beam="2">  1        2 0.11554109E+00 0.16260989E+03</pdfrwt>
<pdfrwt beam="1">  1       -2 0.45019165E-01 0.44638183E+02</pdfrwt>
<totfact> 0.18531620E+02</totfact>
</mgrwt>
</event>
<event>
 7    1  0.3113530E-004  0.4874937E+02  0.7546771E-02  0.1515508E+00
          2   -1    0    0  502    0  0.00000000000E+00  0.00000000000E+00  0.51483755380E+03  0.51483755380E+03  0.00000000000E+00 0. -1.
          3   -1    0    0  503    0 -0.00000000000E+00 -0.00000000000E+00 -0.43510628274E+02  0.43510628274E+02  0.00000000000E+00 0. -1.
         25    2    1    2    0    0  0.84214261501E+01 -0.65181062140E+02  0.28596991156E+03  0.31894057252E+03  0.12499922881E+03 0.  0.
          4    1    3    3  501    0  0.50820528691E+02  0.12647807545E+02  0.11454414985E+03  0.12595502506E+03  0.12700000000E+01 0.  1.
         -4    1    3    3    0  501 -0.42399102541E+02 -0.77828869686E+02  0.17142576171E+03  0.19298554747E+03  0.12700000000E+01 0.  1.
          2    1    1    2  502    0  0.14915310617E+02  0.44410594531E+02  0.19963499519E+03  0.20505828123E+03  0.00000000000E+00 0. -1.
          3    1    1    2  503    0 -0.23336736767E+02  0.20770467609E+02 -0.14277981229E+02  0.34349328314E+02  0.00000000000E+00 0. -1.
<mgrwt>
<rscale>  0 0.39025518E+02</rscale>
<asrwt>0</asrwt>
<pdfrwt beam="1">  1        2 0.79205773E-01 0.48749366E+02</pdfrwt>
<pdfrwt beam="2">  1        3 0.66939432E-02 0.31241248E+02</pdfrwt>
<totfact> 0.41239973E+03</totfact>
</mgrwt>
</event>
<event>
 7    1  0.3113530E-004  0.8656086E+02  0.7546771E-02  0.1338379E+00
          2   -1    0    0  502    0  0.00000000000E+00  0.00000000000E+00  0.15027277009E+04  0.15027277009E+04  0.00000000000E+00 0. -1.
          1   -1    0    0  503    0 -0.00000000000E+00 -0.00000000000E+00 -0.18126165647E+02  0.18126165647E+02  0.00000000000E+00 0. -1.
         25    2    1    2    0    0  0.20940743055E+02  0.80203421055E+02  0.56819823534E+03  0.58764754580E+03  0.12493718410E+03 0.  0.
          4    1    3    3  501    0 -0.12797304458E+01 -0.17128257436E+02  0.31505888318E+03  0.31552928182E+03  0.12700000000E+01 0. -1.
         -4    1    3    3    0  501  0.22220473501E+02  0.97331678491E+02  0.25313935216E+03  0.27211826398E+03  0.12700000000E+01 0. -1.
          2    1    1    2  502    0 -0.67782466734E+02  0.70105738303E+01  0.52826453037E+03  0.53264155394E+03  0.00000000000E+00 0. -1.
          1    1    1    2  503    0  0.46841723679E+02 -0.87213994885E+02  0.38813876951E+03  0.40056476677E+03  0.00000000000E+00 0. -1.
<mgrwt>
<rscale>  0 0.76802392E+02</rscale>
<asrwt>0</asrwt>
<pdfrwt beam="1">  1        2 0.23118878E+00 0.68144046E+02</pdfrwt>
<pdfrwt beam="2">  1        1 0.27886421E-02 0.86560864E+02</pdfrwt>
<totfact> 0.68843718E+03</totfact>
</mgrwt>
</event>
<event>
 7    1  0.3113530E-004  0.1278492E+03  0.7546771E-02  0.1358188E+00
          1   -1    0    0  503    0 -0.00000000000E+00  0.00000000000E+00  0.48400452536E+03  0.48400452536E+03  0.00000000000E+00 0. -1.
          2   -1    0    0  502    0  0.00000000000E+00 -0.00000000000E+00 -0.16537468671E+04  0.16537468671E+04  0.00000000000E+00 0. -1.
         25    2    1    2    0    0 -0.12137095900E+03  0.66999881643E+02  0.14026197656E+02  0.18719392698E+03  0.12499975300E+03 0.  0.
          4    1    3    3  501    0 -0.32268461064E+02  0.29578439275E+02  0.64652157815E+02  0.78087464163E+02  0.12700000000E+01 0. -1.
         -4    1    3    3    0  501 -0.89102497933E+02  0.37421442368E+02 -0.50625960158E+02  0.10910646282E+03  0.12700000000E+01 0. -1.
          2    1    1    2  502    0  0.31498123863E+02  0.22905122511E+02 -0.15563752280E+04  0.15568624303E+04  0.00000000000E+00 0. -1.
          1    1    1    2  503    0  0.89872835134E+02 -0.89905004155E+02  0.37260668867E+03  0.39369503516E+03  0.00000000000E+00 0. -1.
<mgrwt>
<rscale>  0 0.70563395E+02</rscale>
<asrwt>0</asrwt>
<pdfrwt beam="2">  1        2 0.25442260E+00 0.38945814E+02</pdfrwt>
<pdfrwt beam="1">  1        1 0.74462234E-01 0.12784924E+03</pdfrwt>
<totfact> 0.88657413E+01</totfact>
</mgrwt>
</event>
<event>
 7    1  0.3113530E-004  0.9811508E+02  0.7546771E-02  0.1317783E+00
          1   -1    0    0  503    0  0.00000000000E+00  0.00000000000E+00  0.86422847319E+03  0.86422847319E+03  0.00000000000E+00 0. -1.
         -3   -1    0    0    0  501 -0.00000000000E+00 -0.00000000000E+00 -0.74114815671E+03  0.74114815671E+03  0.00000000000E+00 0.  1.
         25    2    1    2    0    0  0.56159568234E+02 -0.21346602037E+02 -0.46532203176E+02  0.14628799434E+03  0.12500142733E+03 0.  0.
          4    1    3    3  502    0  0.64841738080E+01 -0.61468909313E+02 -0.53869977634E+02  0.82000358001E+02  0.12700000000E+01 0.  1.
         -4    1    3    3    0  502  0.49675394426E+02  0.40122307275E+02  0.73377744582E+01  0.64287636342E+02  0.12700000000E+01 0.  1.
          1    1    1    2  503    0 -0.11850348035E+02 -0.71119239940E+02  0.80865994184E+03  0.81186777161E+03  0.00000000000E+00 0. -1.
         -3    1    1    2    0  501 -0.44309220199E+02  0.92465841977E+02 -0.63904742219E+03  0.64722086395E+03  0.00000000000E+00 0.  1.
<mgrwt>
<rscale>  0 0.84107518E+02</rscale>
<asrwt>0</asrwt>
<pdfrwt beam="1">  1        1 0.13295823E+00 0.72099771E+02</pdfrwt>
<pdfrwt beam="2">  1       -3 0.11402279E+00 0.98115077E+02</pdfrwt>
<totfact> 0.79237302E+00</totfact>
</mgrwt>
</event>
<event>
 7    1  0.3113530E-004  0.5690664E+02  0.7546771E-02  0.1473102E+00
         -2   -1    0    0    0  501 -0.00000000000E+00  0.00000000000E+00  0.32375030607E+02  0.32375030607E+02  0.00000000000E+00 0.  1.
          2   -1    0    0  503    0  0.00000000000E+00 -0.00000000000E+00 -0.42850292705E+03  0.42850292705E+03  0.00000000000E+00 0. -1.
         25    2    1    2    0    0  0.12514795030E+02 -0.36136948231E+02 -0.23155934025E+03  0.26590791803E+03  0.12499917476E+03 0.  0.
          4    1    3    3  502    0  0.63759825042E+02 -0.19558182763E+02 -0.17735381371E+03  0.18948304921E+03  0.12700000000E+01 0.  1.
         -4    1    3    3    0  502 -0.51245030012E+02 -0.16578765468E+02 -0.54205526543E+02  0.76424868814E+02  0.12700000000E+01 0.  1.
          2    1    1    2  503    0  0.31164174804E+01  0.68455657674E+02 -0.11240858702E+03  0.13164945712E+03  0.00000000000E+00 0. -1.
         -2    1    1    2    0  501 -0.15631212511E+02 -0.32318709444E+02 -0.52159969172E+02  0.63320582505E+02  0.00000000000E+00 0.  1.
<mgrwt>
<rscale>  0 0.45199194E+02</rscale>
<asrwt>0</asrwt>
<pdfrwt beam="2">  1        2 0.65923526E-01 0.56906638E+02</pdfrwt>
<pdfrwt beam="1">  1       -2 0.49807740E-02 0.35900331E+02</pdfrwt>
<totfact> 0.12045383E+04</totfact>
</mgrwt>
</event>
<event>
 7    1  0.3113530E-004  0.2185813E+03  0.7546771E-02  0.1136455E+00
          3   -1    0    0  503    0 -0.00000000000E+00  0.00000000000E+00  0.54129180769E+03  0.54129180769E+03  0.00000000000E+00 0. -1.
          2   -1    0    0  502    0  0.00000000000E+00 -0.00000000000E+00 -0.63380409362E+03  0.63380409362E+03  0.00000000000E+00 0. -1.
         25    2    1    2    0    0 -0.24307943636E+02 -0.11090931750E+03  0.45493076281E+02  0.17488884903E+03  0.12499894678E+03 0.  0.
          4    1    3    3  501    0 -0.37266977345E+02 -0.51472152825E+02  0.82139141928E+02  0.10385885448E+03  0.12700000000E+01 0. -1.
         -4    1    3    3    0  501  0.12959033709E+02 -0.59437164671E+02 -0.36646065648E+02  0.71029994553E+02  0.12700000000E+01 0. -1.
          2    1    1    2  502    0 -0.10299096741E+03 -0.18827988439E+03 -0.48154179113E+03  0.52719915671E+03  0.00000000000E+00 0. -1.
          3    1    1    2  503    0  0.12729891105E+03  0.29918920188E+03  0.34353642892E+03  0.47300789557E+03  0.00000000000E+00 0. -1.
<mgrwt>
<rscale>  0 0.21658538E+03</rscale>
<asrwt>0</asrwt>
<pdfrwt beam="2">  1        2 0.97508322E-01 0.21460768E+03</pdfrwt>
<pdfrwt beam="1">  1        3 0.83275663E-01 0.21858131E+03</pdfrwt>
<totfact> 0.40146649E+01</totfact>
</mgrwt>
</event>
<event>
 7    1  0.3113530E-004  0.5067416E+02  0.7546771E-02  0.1441793E+00
          3   -1    0    0  503    0 -0.00000000000E+00  0.00000000000E+00  0.12104930551E+03  0.12104930551E+03  0.00000000000E+00 0. -1.
          1   -1    0    0  502    0  0.00000000000E+00 -0.00000000000E+00 -0.14429792250E+04  0.14429792250E+04  0.00000000000E+00 0. -1.
         25    2    1    2    0    0 -0.26191965256E+02  0.34316791675E+01 -0.93376530409E+03  0.94246534955E+03  0.12500198599E+03 0.  0.
          4    1    3    3  501    0  0.11349259187E+02  0.59254084408E+02 -0.41997629298E+03  0.42428946696E+03  0.12700000000E+01 0. -1.
         -4    1    3    3    0  501 -0.37541224442E+02 -0.55822405240E+02 -0.51378901111E+03  0.51817588259E+03  0.12700000000E+01 0. -1.
          1    1    1    2  502    0  0.52875800688E+02  0.39623732602E+02 -0.49707619553E+03  0.50144853639E+03  0.00000000000E+00 0. -1.
          3    1    1    2  503    0 -0.26683835433E+02 -0.43055411770E+02  0.10891158013E+03  0.12011464458E+03  0.00000000000E+00 0. -1.
<mgrwt>
<rscale>  0 0.50663919E+02</rscale>
<asrwt>0</asrwt>
<pdfrwt beam="2">  1        1 0.22199681E+00 0.50674158E+02</pdfrwt>
<pdfrwt beam="1">  1        3 0.18622970E-01 0.50653683E+02</pdfrwt>
<totfact> 0.11081207E+02</totfact>
</mgrwt>
</event>
<event>
 7    1  0.3113530E-004  0.3645958E+02  0.7546771E-02  0.1559346E+00
          1   -1    0    0  503    0  0.00000000000E+00  0.00000000000E+00  0.20170075614E+03  0.20170075614E+03  0.00000000000E+00 0. -1.
         -2   -1    0    0    0  501 -0.00000000000E+00 -0.00000000000E+00 -0.56793763533E+02  0.56793763533E+02  0.00000000000E+00 0.  1.
         25    2    1    2    0    0 -0.82164224696E+01 -0.50886732237E+00  0.50799959902E+02  0.13517987403E+03  0.12500077549E+03 0.  0.
          4    1    3    3  502    0 -0.66524894260E+02 -0.26766948173E+01  0.22260479820E+02  0.70213019543E+02  0.12700000000E+01 0.  1.
         -4    1    3    3    0  502  0.58308471791E+02  0.21678274949E+01  0.28539480081E+02  0.64966854487E+02  0.12700000000E+01 0.  1.
          1    1    1    2  503    0  0.39285993522E+02  0.48371125608E+01  0.79291508776E+02  0.88622402974E+02  0.00000000000E+00 0. -1.
         -2    1    1    2    0  501 -0.31069571052E+02 -0.43282452384E+01  0.14815523930E+02  0.34692242671E+02  0.00000000000E+00 0.  1.
<mgrwt>
<rscale>  0 0.33818967E+02</rscale>
<asrwt>0</asrwt>
<pdfrwt beam="1">  1        1 0.31030885E-01 0.36459581E+02</pdfrwt>
<pdfrwt beam="2">  1       -2 0.87375022E-02 0.31369602E+02</pdfrwt>
<totfact> 0.85281320E+03</totfact>
</mgrwt>
</event>
<event>
 7    1  0.3113530E-004  0.1217014E+03  0.7546771E-02  0.1279383E+00
         -1   -1    0    0    0  501 -0.00000000000E+00  0.00000000000E+00  0.17783302629E+03  0.17783302629E+03  0.00000000000E+00 0.  1.
          1   -1    0    0  503    0  0.00000000000E+00 -0.00000000000E+00 -0.27979987980E+04  0.27979987980E+04  0.00000000000E+00 0. -1.
         25    2    1    2    0    0 -0.38882848326E+02 -0.15663130782E+02 -0.63191706663E+03  0.64552299050E+03  0.12499417029E+03 0.  0.
          4    1    3    3  502    0 -0.55295320580E+01 -0.48408579490E+02 -0.96908476900E+02  0.10847502979E+03  0.12700000000E+01 0.  1.
         -4    1    3    3    0  502 -0.33353316268E+02  0.32745448707E+02 -0.53500858973E+03  0.53704796071E+03  0.12700000000E+01 0.  1.
          1    1    1    2  503    0 -0.80340725121E+02 -0.20381874573E+02 -0.21356912136E+04  0.21372989994E+04  0.00000000000E+00 0. -1.
         -1    1    1    2    0  501  0.11922357345E+03  0.36045005355E+02  0.14744250850E+03  0.19300983443E+03  0.00000000000E+00 0.  1.
<mgrwt>
<rscale>  0 0.10043564E+03</rscale>
<asrwt>0</asrwt>
<pdfrwt beam="2">  1        1 0.43046132E+00 0.82885782E+02</pdfrwt>
<pdfrwt beam="1">  1       -1 0.27358929E-01 0.12170142E+03</pdfrwt>
<totfact> 0.14299953E+01</totfact>
</mgrwt>
</event>
<event>
 7    1  0.3113530E-004  0.8190321E+02  0.7546771E-02  0.1375463E+00
         -1   -1    0    0    0  501 -0.00000000000E+00  0.00000000000E+00  0.10140799591E+03  0.10140799591E+03  0.00000000000E+00 0.  1.
          2   -1    0    0  503    0  0.00000000000E+00 -0.00000000000E+00 -0.11330731851E+04  0.11330731851E+04  0.00000000000E+00 0. -1.
         25    2    1    2    0    0 -0.43960454712E+02  0.11305997366E+03 -0.21443390098E+03  0.27625938083E+03  0.12498907305E+03 0.  0.
          4    1    3    3  502    0 -0.54284317087E+01  0.10560341721E+02  0.16679502272E+02  0.20513590230E+02  0.12700000000E+01 0. -1.
         -4    1    3    3    0  502 -0.38532023004E+02  0.10249963194E+03 -0.23111340325E+03  0.25574579060E+03  0.12700000000E+01 0. -1.
          2    1    1    2  503    0  0.30698841773E+01 -0.79883560845E+02 -0.87581244160E+03  0.87945337588E+03  0.00000000000E+00 0. -1.
         -1    1    1    2    0  501  0.40890570535E+02 -0.33176412819E+02  0.58581153427E+02  0.78768424277E+02  0.00000000000E+00 0.  1.
<mgrwt>
<rscale>  0 0.65671462E+02</rscale>
<asrwt>0</asrwt>
<pdfrwt beam="2">  1        2 0.17431895E+00 0.81903207E+02</pdfrwt>
<pdfrwt beam="1">  1       -1 0.15601230E-01 0.52656558E+02</pdfrwt>
<totfact> 0.74999320E+02</totfact>
</mgrwt>
</event>
<event>
 7    1  0.3113530E-004  0.4815131E+02  0.7546771E-02  0.1460223E+00
          2   -1    0    0  503    0  0.00000000000E+00  0.00000000000E+00  0.20834729911E+04  0.20834729911E+04  0.00000000000E+00 0. -1.
         -2   -1    0    0    0  501 -0.00000000000E+00 -0.00000000000E+00 -0.68871826001E+01  0.68871826001E+01  0.00000000000E+00 0.  1.
         25    2    1    2    0    0 -0.45938743443E+02  0.15271888870E+02  0.95188857638E+03  0.96128020615E+03  0.12499669662E+03 0.  0.
          4    1    3    3  502    0 -0.31406353212E+02  0.11293324605E+02  0.55574083161E+02  0.64838181821E+02  0.12700000000E+01 0. -1.
         -4    1    3    3    0  502 -0.14532390231E+02  0.39785642650E+01  0.89631449322E+03  0.89644202433E+03  0.12700000000E+01 0. -1.
          2    1    1    2  503    0  0.12071832029E+02 -0.49500247353E+02  0.53548628627E+03  0.53790479306E+03  0.00000000000E+00 0. -1.
         -2    1    1    2    0  501  0.33866911414E+02  0.34228358483E+02  0.58921094586E+03  0.59117517449E+03  0.00000000000E+00 0.  1.
<mgrwt>
<rscale>  0 0.47343040E+02</rscale>
<asrwt>0</asrwt>
<pdfrwt beam="1">  1        2 0.32053380E+00 0.46548342E+02</pdfrwt>
<pdfrwt beam="2">  1       -2 0.10595682E-02 0.48151305E+02</pdfrwt>
<totfact> 0.12311850E+04</totfact>
</mgrwt>
</event>
<event>
 7    1  0.3113530E-004  0.4278073E+02  0.7546771E-02  0.1539928E+00
          1   -1    0    0  503    0 -0.00000000000E+00  0.00000000000E+00  0.81785677802E+02  0.81785677802E+02  0.00000000000E+00 0. -1.
          2   -1    0    0  502    0  0.00000000000E+00 -0.00000000000E+00 -0.59108553882E+03  0.59108553882E+03  0.00000000000E+00 0. -1.
         25    2    1    2    0    0 -0.68369481092E+02 -0.61417137569E+01 -0.27626009888E+03  0.31089910921E+03  0.12500602899E+03 0.  0.
          4    1    3    3  501    0 -0.30180808218E+01 -0.54392572041E+02 -0.16031647002E+03  0.16932408029E+03  0.12700000000E+01 0. -1.
         -4    1    3    3    0  501 -0.65351400270E+02  0.48250858284E+02 -0.11594362885E+03  0.14157502892E+03  0.12700000000E+01 0. -1.
          2    1    1    2  502    0  0.26876641656E+02  0.13963876163E+02 -0.28971691855E+03  0.29129578884E+03  0.00000000000E+00 0. -1.
          1    1    1    2  503    0  0.41492839436E+02 -0.78221624063E+01  0.56677156402E+02  0.70676318573E+02  0.00000000000E+00 0. -1.
<mgrwt>
<rscale>  0 0.35996239E+02</rscale>
<asrwt>0</asrwt>
<pdfrwt beam="2">  1        2 0.90936234E-01 0.30287682E+02</pdfrwt>
<pdfrwt beam="1">  1        1 0.12582412E-01 0.42780731E+02</pdfrwt>
<totfact> 0.31059328E+03</totfact>
</mgrwt>
</event>
<event>
 7    1  0.3113530E-004  0.4301781E+02  0.7546771E-02  0.1496913E+00
          1   -1    0    0  503    0  0.00000000000E+00  0.00000000000E+00  0.12356319908E+04  0.12356319908E+04  0.00000000000E+00 0. -1.
         -2   -1    0    0    0  501 -0.00000000000E+00 -0.00000000000E+00 -0.99251202811E+01  0.99251202811E+01  0.00000000000E+00 0.  1.
         25    2    1    2    0    0  0.36828698041E+02  0.16738876293E+02  0.72633514123E+03  0.73812220494E+03  0.12500043623E+03 0.  0.
          4    1    3    3  502    0 -0.19375668885E+02 -0.97660410801E+01  0.21568944501E+02  0.30620652671E+02  0.12700000000E+01 0.  1.
         -4    1    3    3    0  502  0.56204366926E+02  0.26504917373E+02  0.70476619673E+03  0.70750155227E+03  0.12700000000E+01 0.  1.
          1    1    1    2  503    0  0.50106577185E+01 -0.39871971682E+02  0.28339430808E+03  0.28622930435E+03  0.00000000000E+00 0. -1.
         -2    1    1    2    0  501 -0.41839355760E+02  0.23133095389E+02  0.21597742119E+03  0.22120560177E+03  0.00000000000E+00 0.  1.
<mgrwt>
<rscale>  0 0.41577587E+02</rscale>
<asrwt>0</asrwt>
<pdfrwt beam="1">  1        1 0.19009711E+00 0.40185580E+02</pdfrwt>
<pdfrwt beam="2">  1       -2 0.15269426E-02 0.43017812E+02</pdfrwt>
<totfact> 0.98097025E+03</totfact>
</mgrwt>
</event>
<event>
 7    1  0.3113530E-004  0.9790957E+02  0.7546771E-02  0.1304227E+00
          1   -1    0    0  503    0 -0.00000000000E+00  0.00000000000E+00  0.73568063596E+03  0.73568063596E+03  0.00000000000E+00 0. -1.
          2   -1    0    0  502    0  0.00000000000E+00 -0.00000000000E+00 -0.15203918251E+04  0.15203918251E+04  0.00000000000E+00 0. -1.
         25    2    1    2    0    0  0.10808831808E+03  0.57903436954E+02 -0.92451485000E+03  0.94095101703E+03  0.12500086430E+03 0.  0.
          4    1    3    3  501    0  0.99214104173E+02  0.11095426912E+02 -0.82032524058E+03  0.82637864215E+03  0.12700000000E+01 0. -1.
         -4    1    3    3    0  501  0.88742139076E+01  0.46808010042E+02 -0.10418960942E+03  0.11457237489E+03  0.12700000000E+01 0. -1.
          2    1    1    2  502    0 -0.32881732469E+02 -0.89804838518E+02 -0.58144677378E+03  0.58925925372E+03  0.00000000000E+00 0. -1.
          1    1    1    2  503    0 -0.75206585612E+02  0.31901401564E+02  0.72125043461E+03  0.72586219034E+03  0.00000000000E+00 0. -1.
<mgrwt>
<rscale>  0 0.89434425E+02</rscale>
<asrwt>0</asrwt>
<pdfrwt beam="2">  1        2 0.23390643E+00 0.97909566E+02</pdfrwt>
<pdfrwt beam="1">  1        1 0.11318164E+00 0.81692900E+02</pdfrwt>
<totfact> 0.54778654E+01</totfact>
</mgrwt>
</event>
<event>
 7    1  0.3113530E-004  0.1596559E+03  0.7546771E-02  0.1396500E+00
          2   -1    0    0  503    0  0.00000000000E+00  0.00000000000E+00  0.10428142793E+04  0.10428142793E+04  0.00000000000E+00 0. -1.
          2   -1    0    0  502    0 -0.00000000000E+00 -0.00000000000E+00 -0.10094273728E+04  0.10094273728E+04  0.00000000000E+00 0. -1.
         25    2    1    2    0    0  0.92949405924E+02 -0.15435792001E+03 -0.74405942315E+01  0.21942606545E+03  0.12500590476E+03 0.  0.
          4    1    3    3  501    0  0.88137795879E+01 -0.63093444390E+02  0.51575235460E+02  0.81976113889E+02  0.12700000000E+01 0.  1.
         -4    1    3    3    0  501  0.84135626336E+02 -0.91264475624E+02 -0.59015829692E+02  0.13744995156E+03  0.12700000000E+01 0.  1.
          2    1    1    2  502    0 -0.16787142230E+02  0.15411198838E+02 -0.88914699106E+03  0.88943897200E+03  0.00000000000E+00 0. -1.
          2    1    1    2  503    0 -0.76162263693E+02  0.13894672118E+03  0.92997449175E+03  0.94337661464E+03  0.00000000000E+00 0. -1.
<mgrwt>
<rscale>  0 0.60318408E+02</rscale>
<asrwt>0</asrwt>
<pdfrwt beam="1">  1        2 0.16043297E+00 0.15965594E+03</pdfrwt>
<pdfrwt beam="2">  1        2 0.15529652E+00 0.22788444E+02</pdfrwt>
<totfact> 0.11721188E+02</totfact>
</mgrwt>
</event>
<event>
 7    1  0.3113530E-004  0.8309667E+02  0.7546771E-02  0.1388092E+00
          3   -1    0    0  503    0 -0.00000000000E+00  0.00000000000E+00  0.55783042877E+03  0.55783042877E+03  0.00000000000E+00 0. -1.
          2   -1    0    0  502    0  0.00000000000E+00 -0.00000000000E+00 -0.62303759275E+02  0.62303759275E+02  0.00000000000E+00 0. -1.
         25    2    1    2    0    0 -0.50215902843E+02  0.82939809268E+00  0.63426152581E+02  0.14892861717E+03  0.12503811971E+03 0.  0.
          4    1    3    3  501    0 -0.44457741307E+02  0.60146240815E+02  0.30074594228E+02  0.80623539765E+02  0.12700000000E+01 0.  1.
         -4    1    3    3    0  501 -0.57581615360E+01 -0.59316842723E+02  0.33351558354E+02  0.68305077406E+02  0.12700000000E+01 0.  1.
          2    1    1    2  502    0 -0.29176407482E+02 -0.36635432347E+02  0.21612878274E+02  0.51580366072E+02  0.00000000000E+00 0. -1.
          3    1    1    2  503    0  0.79392310325E+02  0.35806034254E+02  0.41048763864E+03  0.41962520480E+03  0.00000000000E+00 0. -1.
<mgrwt>
<rscale>  0 0.62383846E+02</rscale>
<asrwt>0</asrwt>
<pdfrwt beam="2">  1        2 0.95851941E-02 0.46833937E+02</pdfrwt>
<pdfrwt beam="1">  1        3 0.85820062E-01 0.83096670E+02</pdfrwt>
<totfact> 0.46348460E+02</totfact>
</mgrwt>
</event>
<event>
 7    1  0.3113530E-004  0.9362927E+02  0.7546771E-02  0.1390785E+00
          2   -1    0    0  502    0  0.00000000000E+00  0.00000000000E+00  0.25579265523E+04  0.25579265523E+04  0.00000000000E+00 0. -1.
          2   -1    0    0  503    0 -0.00000000000E+00 -0.00000000000E+00 -0.11892677412E+03  0.11892677412E+03  0.00000000000E+00 0. -1.
         25    2    1    2    0    0  0.61154755790E+02  0.95281038069E+02  0.17898166835E+03  0.24590032108E+03  0.12495659218E+03 0.  0.
          4    1    3    3  501    0  0.84096649861E+02  0.58756501463E+02  0.58902616700E+02  0.11830344093E+03  0.12700000000E+01 0.  1.
         -4    1    3    3    0  501 -0.22941894071E+02  0.36524536606E+02  0.12007905165E+03  0.12759688015E+03  0.12700000000E+01 0.  1.
          2    1    1    2  502    0  0.11620994178E+02 -0.38979554233E+02  0.23204912748E+04  0.23208477351E+04  0.00000000000E+00 0. -1.
          2    1    1    2  503    0 -0.72775749968E+02 -0.56301483836E+02 -0.60473164923E+02  0.11010527027E+03  0.00000000000E+00 0. -1.
<mgrwt>
<rscale>  0 0.61711975E+02</rscale>
<asrwt>0</asrwt>
<pdfrwt beam="1">  1        2 0.39352712E+00 0.40674970E+02</pdfrwt>
<pdfrwt beam="2">  1        2 0.18296429E-01 0.93629274E+02</pdfrwt>
<totfact> 0.22258299E+02</totfact>
</mgrwt>
</event>
<event>
 7    1  0.3113530E-004  0.1132322E+03  0.7546771E-02  0.1322560E+00
          2   -1    0    0  502    0  0.00000000000E+00  0.00000000000E+00  0.11798808542E+04  0.11798808542E+04  0.00000000000E+00 0. -1.
          1   -1    0    0  503    0 -0.00000000000E+00 -0.00000000000E+00 -0.94468548627E+03  0.94468548627E+03  0.00000000000E+00 0. -1.
         25    2    1    2    0    0 -0.22099514792E+02 -0.10466416824E+03 -0.16737750008E+03  0.23469739064E+03  0.12499864388E+03 0.  0.
          4    1    3    3  501    0 -0.24870515481E+02  0.12820356991E+02 -0.89330203065E+02  0.93618385872E+02  0.12700000000E+01 0.  1.
         -4    1    3    3    0  501  0.27710006884E+01 -0.11748452523E+03 -0.78047297014E+02  0.14107900476E+03  0.12700000000E+01 0.  1.
          2    1    1    2  502    0 -0.37716145627E+02  0.10708778550E+03  0.11421970844E+04  0.11478259803E+04  0.00000000000E+00 0. -1.
          1    1    1    2  503    0  0.59815660420E+02 -0.24236172548E+01 -0.73962421639E+03  0.74204296953E+03  0.00000000000E+00 0. -1.
<mgrwt>
<rscale>  0 0.82332340E+02</rscale>
<asrwt>0</asrwt>
<pdfrwt beam="1">  1        2 0.18152013E+00 0.11323217E+03</pdfrwt>
<pdfrwt beam="2">  1        1 0.14533623E+00 0.59864740E+02</pdfrwt>
<totfact> 0.57393826E+01</totfact>
</mgrwt>
</event>
<event>
 7    1  0.3113530E-004  0.1061920E+03  0.7546771E-02  0.1411688E+00
          2   -1    0    0  503    0  0.00000000000E+00  0.00000000000E+00  0.64997669510E+03  0.64997669510E+03  0.00000000000E+00 0. -1.
         -1   -1    0    0    0  501 -0.00000000000E+00 -0.00000000000E+00 -0.61703673596E+02  0.61703673596E+02  0.00000000000E+00 0.  1.
         25    2    1    2    0    0 -0.14406163150E+02 -0.13195437196E+03  0.50044165031E+03  0.53262213203E+03  0.12499998542E+03 0.  0.
          4    1    3    3  502    0  0.17243115077E+02 -0.13177182438E+03  0.47094981507E+03  0.48934290628E+03  0.12700000000E+01 0.  1.
         -4    1    3    3    0  502 -0.31649278227E+02 -0.18254758310E+00  0.29491835239E+02  0.43279225752E+02  0.12700000000E+01 0.  1.
          2    1    1    2  503    0  0.87464747557E+01  0.29116064638E+02  0.67564537726E+02  0.74089221880E+02  0.00000000000E+00 0. -1.
         -1    1    1    2    0  501  0.56596883942E+01  0.10283830732E+03  0.20266833471E+02  0.10496901478E+03  0.00000000000E+00 0.  1.
<mgrwt>
<rscale>  0 0.56818892E+02</rscale>
<asrwt>0</asrwt>
<pdfrwt beam="1">  1        2 0.99996410E-01 0.30401415E+02</pdfrwt>
<pdfrwt beam="2">  1       -1 0.94928733E-02 0.10619198E+03</pdfrwt>
<totfact> 0.34491967E+03</totfact>
</mgrwt>
</event>
<event>
 7    1  0.3113530E-004  0.9533253E+02  0.7546771E-02  0.1321103E+00
         -1   -1    0    0    0  501  0.00000000000E+00  0.00000000000E+00  0.16658983677E+04  0.16658983677E+04  0.00000000000E+00 0.  1.
         -1   -1    0    0    0  502 -0.00000000000E+00 -0.00000000000E+00 -0.38467281456E+02  0.38467281456E+02  0.00000000000E+00 0.  1.
         25    2    1    2    0    0  0.50444138949E+02 -0.13692700239E+03  0.52891143875E+03  0.56272859238E+03  0.12499017362E+03 0.  0.
          4    1    3    3  503    0  0.53305594098E+01 -0.40646725794E+01  0.25386965882E+03  0.25396132185E+03  0.12700000000E+01 0.  1.
         -4    1    3    3    0  503  0.45113579539E+02 -0.13286232982E+03  0.27504177993E+03  0.30876727052E+03  0.12700000000E+01 0.  1.
         -1    1    1    2    0  501 -0.52764036801E+02  0.49038962345E+02  0.10235862800E+04  0.10261177983E+04  0.00000000000E+00 0.  1.
         -1    1    1    2    0  502  0.23198978517E+01  0.87888040050E+02  0.74933367467E+02  0.11551925844E+03  0.00000000000E+00 0.  1.
<mgrwt>
<rscale>  0 0.82868335E+02</rscale>
<asrwt>0</asrwt>
<pdfrwt beam="1">  1       -1 0.25629200E+00 0.72033766E+02</pdfrwt>
<pdfrwt beam="2">  1       -1 0.59180446E-02 0.95332528E+02</pdfrwt>
<totfact> 0.88270047E+01</totfact>
</mgrwt>
</event>
<event>
 7    1  0.3113530E-004  0.1525809E+03  0.7546771E-02  0.1199203E+00
          2   -1    0    0  503    0  0.00000000000E+00  0.00000000000E+00  0.39406862160E+04  0.39406862160E+04  0.00000000000E+00 0. -1.
         -3   -1    0    0    0  501 -0.00000000000E+00 -0.00000000000E+00 -0.25385474581E+03  0.25385474581E+03  0.00000000000E+00 0.  1.
         25    2    1    2    0    0  0.97606842172E+01  0.10827273082E+02  0.88493702196E+02  0.15384984373E+03  0.12500455307E+03 0.  0.
          4    1    3    3  502    0 -0.22608248398E+02  0.27264971544E+02 -0.19120124202E+02  0.40270381404E+02  0.12700000000E+01 0. -1.
         -4    1    3    3    0  502  0.32368932615E+02 -0.16437698462E+02  0.10761382640E+03  0.11357946232E+03  0.12700000000E+01 0. -1.
          2    1    1    2  503    0 -0.14408008789E+03  0.61555326973E+02  0.37913876637E+04  0.37946236370E+04  0.00000000000E+00 0. -1.
         -3    1    1    2    0  501  0.13431940367E+03 -0.72382600055E+02 -0.19304989573E+03  0.24606748106E+03  0.00000000000E+00 0.  1.
<mgrwt>
<rscale>  0 0.15103817E+03</rscale>
<asrwt>0</asrwt>
<pdfrwt beam="1">  1        2 0.60625937E+00 0.14951099E+03</pdfrwt>
<pdfrwt beam="2">  1       -3 0.39054579E-01 0.15258094E+03</pdfrwt>
<totfact> 0.22194959E+00</totfact>
</mgrwt>
</event>
<event>
 7    1  0.3113530E-004  0.6130481E+02  0.7546771E-02  0.1530312E+00
          2   -1    0    0  503    0  0.00000000000E+00  0.00000000000E+00  0.52188712888E+02  0.52188712888E+02  0.00000000000E+00 0. -1.
         -2   -1    0    0    0  501 -0.00000000000E+00 -0.00000000000E+00 -0.30511915032E+03  0.30511915032E+03  0.00000000000E+00 0.  1.
         25    2    1    2    0    0 -0.29907240696E+02 -0.54445681525E+02 -0.13623641654E+03  0.19505625095E+03  0.12501121775E+03 0.  0.
          4    1    3    3  502    0 -0.16614507279E+02  0.13501512418E+02  0.16694617575E+02  0.27178223741E+02  0.12700000000E+01 0. -1.
         -4    1    3    3    0  502 -0.13292733416E+02 -0.67947193943E+02 -0.15293103411E+03  0.16787802721E+03  0.12700000000E+01 0. -1.
          2    1    1    2  503    0  0.84899747674E+01  0.61374570963E+02 -0.23319493320E+02  0.66202087589E+02  0.00000000000E+00 0. -1.
         -2    1    1    2    0  501  0.21417265928E+02 -0.69288894380E+01 -0.93374527579E+02  0.96049524670E+02  0.00000000000E+00 0.  1.
<mgrwt>
<rscale>  0 0.37148123E+02</rscale>
<asrwt>0</asrwt>
<pdfrwt beam="1">  1        2 0.80290330E-02 0.61304806E+02</pdfrwt>
<pdfrwt beam="2">  1       -2 0.46941406E-01 0.22510193E+02</pdfrwt>
<totfact> 0.32685414E+03</totfact>
</mgrwt>
</event>
<event>
 7    1  0.3113530E-004  0.9408110E+02  0.7546771E-02  0.1325476E+00
          1   -1    0    0  503    0  0.00000000000E+00  0.00000000000E+00  0.14175034268E+04  0.14175034268E+04  0.00000000000E+00 0. -1.
         -3   -1    0    0    0  501 -0.00000000000E+00 -0.00000000000E+00 -0.50120141348E+02  0.50120141348E+02  0.00000000000E+00 0. -1.
         25    2    1    2    0    0  0.24167261053E+02  0.33704444136E+02  0.16689933666E+03  0.21259802089E+03  0.12498993497E+03 0.  0.
          4    1    3    3  502    0  0.64559830100E+01  0.55491004506E+02  0.17470831325E+03  0.18342720331E+03  0.12700000000E+01 0. -1.
         -4    1    3    3    0  502  0.17711278043E+02 -0.21786560370E+02 -0.78089765815E+01  0.29170817573E+02  0.12700000000E+01 0. -1.
          1    1    1    2  503    0 -0.94354942236E+02 -0.31953357941E+02  0.11766816828E+04  0.11808910428E+04  0.00000000000E+00 0. -1.
         -3    1    1    2    0  501  0.70187681183E+02 -0.17510861950E+01  0.23802265982E+02  0.74134504508E+02  0.00000000000E+00 0. -1.
<mgrwt>
<rscale>  0 0.81273544E+02</rscale>
<asrwt>0</asrwt>
<pdfrwt beam="1">  1        1 0.21807742E+00 0.94081099E+02</pdfrwt>
<pdfrwt beam="2">  1       -3 0.77107921E-02 0.70209521E+02</pdfrwt>
<totfact> 0.48329735E+02</totfact>
</mgrwt>
</event>
<event>
 7    1  0.3113530E-004  0.4347188E+02  0.7546771E-02  0.1509882E+00
          1   -1    0    0  503    0  0.00000000000E+00  0.00000000000E+00  0.10070135696E+04  0.10070135696E+04  0.00000000000E+00 0. -1.
         -2   -1    0    0    0  501 -0.00000000000E+00 -0.00000000000E+00 -0.12134671995E+02  0.12134671995E+02  0.00000000000E+00 0.  1.
         25    2    1    2    0    0 -0.26549821510E+02  0.25037030949E+02  0.51442301461E+03  0.53065325323E+03  0.12502036338E+03 0.  0.
          4    1    3    3  502    0 -0.63510205152E+02 -0.24754828221E+02  0.27577607319E+03  0.28407816376E+03  0.12700000000E+01 0.  1.
         -4    1    3    3    0  502  0.36960383642E+02  0.49791859169E+02  0.23864694142E+03  0.24657508947E+03  0.12700000000E+01 0.  1.
          1    1    1    2  503    0  0.25849325623E+02  0.25614126733E+02  0.24173390120E+03  0.24445766528E+03  0.00000000000E+00 0. -1.
         -2    1    1    2    0  501  0.70049588715E+00 -0.50651157681E+02  0.23872198176E+03  0.24403732306E+03  0.00000000000E+00 0.  1.
<mgrwt>
<rscale>  0 0.39773926E+02</rscale>
<asrwt>0</asrwt>
<pdfrwt beam="1">  1        1 0.15492510E+00 0.36390536E+02</pdfrwt>
<pdfrwt beam="2">  1       -2 0.18668734E-02 0.43471884E+02</pdfrwt>
<totfact> 0.10598042E+04</totfact>
</mgrwt>
</event>
<event>
 7    1  0.3113530E-004  0.1278385E+03  0.7546771E-02  0.1400893E+00
         -1   -1    0    0    0  501 -0.00000000000E+00  0.00000000000E+00  0.12309769668E+02  0.12309769668E+02  0.00000000000E+00 0.  1.
          2   -1    0    0  503    0  0.00000000000E+00 -0.00000000000E+00 -0.24038829067E+04  0.24038829067E+04  0.00000000000E+00 0. -1.
         25    2    1    2    0    0 -0.13347118027E+03 -0.22338039803E+02 -0.12100788556E+04  0.12240216069E+04  0.12499805315E+03 0.  0.
          4    1    3    3  502    0 -0.11080931613E+03 -0.64288460113E+02 -0.10215738507E+04  0.10295758622E+04  0.12700000000E+01 0. -1.
         -4    1    3    3    0  502 -0.22661864134E+02  0.41950420310E+02 -0.18850500489E+03  0.19444574466E+03  0.12700000000E+01 0. -1.
          2    1    1    2  503    0  0.17444962608E+02 -0.21239852497E+02 -0.39662973601E+03  0.39758094212E+03  0.00000000000E+00 0. -1.
         -1    1    1    2    0  501  0.11602621766E+03  0.43577892300E+02 -0.78486454541E+03  0.79459012738E+03  0.00000000000E+00 0.  1.
<mgrwt>
<rscale>  0 0.59276621E+02</rscale>
<asrwt>0</asrwt>
<pdfrwt beam="2">  1        2 0.36982811E+00 0.27485597E+02</pdfrwt>
<pdfrwt beam="1">  1       -1 0.18938109E-02 0.12783851E+03</pdfrwt>
<totfact> 0.47589983E+03</totfact>
</mgrwt>
</event>
<event>
 7    1  0.3113530E-004  0.7158357E+02  0.7546771E-02  0.1361326E+00
         -1   -1    0    0    0  501 -0.00000000000E+00  0.00000000000E+00  0.94803681096E+02  0.94803681096E+02  0.00000000000E+00 0.  1.
          2   -1    0    0  503    0  0.00000000000E+00 -0.00000000000E+00 -0.62855213502E+03  0.62855213502E+03  0.00000000000E+00 0. -1.
         25    2    1    2    0    0 -0.14091804934E+02  0.91964230283E+01 -0.15813322847E+03  0.20227690581E+03  0.12500670188E+03 0.  0.
          4    1    3    3  502    0 -0.19783101310E+02  0.53991555451E+02 -0.14381374982E+03  0.15488856218E+03  0.12700000000E+01 0.  1.
         -4    1    3    3    0  502  0.56912963754E+01 -0.44795132423E+02 -0.14319478652E+02  0.47388343631E+02  0.12700000000E+01 0.  1.
          2    1    1    2  503    0 -0.10183175639E+02 -0.76538336994E+02 -0.42638462404E+03  0.43331935303E+03  0.00000000000E+00 0. -1.
         -1    1    1    2    0  501  0.24274980573E+02  0.67341913966E+02  0.50769398591E+02  0.87759557267E+02  0.00000000000E+00 0.  1.
<mgrwt>
<rscale>  0 0.69638659E+02</rscale>
<asrwt>0</asrwt>
<pdfrwt beam="2">  1        2 0.96700325E-01 0.67746586E+02</pdfrwt>
<pdfrwt beam="1">  1       -1 0.14585182E-01 0.71583574E+02</pdfrwt>
<totfact> 0.17811133E+03</totfact>
</mgrwt>
</event>
<event>
 7    1  0.3113530E-004  0.3347342E+03  0.7546771E-02  0.1266172E+00
         -2   -1    0    0    0  501  0.00000000000E+00  0.00000000000E+00  0.87549399872E+02  0.87549399872E+02  0.00000000000E+00 0.  1.
         -1   -1    0    0    0  502 -0.00000000000E+00 -0.00000000000E+00 -0.19810389423E+04  0.19810389423E+04  0.00000000000E+00 0.  1.
         25    2    1    2    0    0 -0.25887181178E+03 -0.24570194863E+03 -0.59957248839E+03  0.70886236540E+03  0.12495848008E+03 0.  0.
          4    1    3    3  503    0 -0.24919577319E+03 -0.25840151944E+03 -0.55019295765E+03  0.65695036508E+03  0.12700000000E+01 0. -1.
         -4    1    3    3    0  503 -0.96760385883E+01  0.12699570804E+02 -0.49379530737E+02  0.51912000319E+02  0.12700000000E+01 0. -1.
         -2    1    1    2    0  501  0.32662329387E+02  0.10213593005E+02 -0.11062362187E+02  0.35965554357E+02  0.00000000000E+00 0.  1.
         -1    1    1    2    0  502  0.22620948239E+03  0.23548835563E+03 -0.12828546919E+04  0.13237604225E+04  0.00000000000E+00 0.  1.
<mgrwt>
<rscale>  0 0.10702931E+03</rscale>
<asrwt>0</asrwt>
<pdfrwt beam="1">  1       -2 0.13469139E-01 0.34221999E+02</pdfrwt>
<pdfrwt beam="2">  1       -1 0.30477521E+00 0.33473421E+03</pdfrwt>
<totfact> 0.95041357E+00</totfact>
</mgrwt>
</event>
<event>
 7    1  0.3113530E-004  0.4121764E+02  0.7546771E-02  0.1597629E+00
          2   -1    0    0  502    0  0.00000000000E+00  0.00000000000E+00  0.29525334870E+03  0.29525334870E+03  0.00000000000E+00 0. -1.
          2   -1    0    0  503    0 -0.00000000000E+00 -0.00000000000E+00 -0.35817264476E+03  0.35817264476E+03  0.00000000000E+00 0. -1.
         25    2    1    2    0    0  0.24291514011E+02  0.54684951775E+02 -0.55019775778E+02  0.14910745939E+03  0.12500134845E+03 0.  0.
          4    1    3    3  501    0  0.51388455903E+02  0.83586705903E+02 -0.46389620088E+02  0.10854087044E+03  0.12700000000E+01 0.  1.
         -4    1    3    3    0  501 -0.27096941892E+02 -0.28901754128E+02 -0.86301556907E+01  0.40566588947E+02  0.12700000000E+01 0.  1.
          2    1    1    2  502    0 -0.31285979787E+00 -0.21893691758E+02  0.24610951441E+03  0.24708161547E+03  0.00000000000E+00 0. -1.
          2    1    1    2  503    0 -0.23978654213E+02 -0.32791260018E+02 -0.25400903468E+03  0.25723691860E+03  0.00000000000E+00 0. -1.
<mgrwt>
<rscale>  0 0.30041611E+02</rscale>
<asrwt>0</asrwt>
<pdfrwt beam="1">  1        2 0.45423592E-01 0.21895927E+02</pdfrwt>
<pdfrwt beam="2">  1        2 0.55103483E-01 0.41217637E+02</pdfrwt>
<totfact> 0.15091626E+03</totfact>
</mgrwt>
</event>
<event>
 7    1  0.3113530E-004  0.5983673E+02  0.7546771E-02  0.1540469E+00
         -2   -1    0    0    0  501 -0.00000000000E+00  0.00000000000E+00  0.56214385723E+02  0.56214385723E+02  0.00000000000E+00 0.  1.
          1   -1    0    0  503    0  0.00000000000E+00 -0.00000000000E+00 -0.36634287458E+03  0.36634287458E+03  0.00000000000E+00 0. -1.
         25    2    1    2    0    0  0.10653629138E+02 -0.52752544201E+02 -0.49883113543E+02  0.14495119664E+03  0.12500477453E+03 0.  0.
          4    1    3    3  502    0  0.46054999671E+02 -0.74158624007E+02 -0.10703402832E+02  0.87958741701E+02  0.12700000000E+01 0. -1.
         -4    1    3    3    0  502 -0.35401370533E+02  0.21406079807E+02 -0.39179710711E+02  0.56992454937E+02  0.12700000000E+01 0. -1.
          1    1    1    2  503    0  0.17606778372E+02 -0.12474819905E+02 -0.99991491954E+02  0.10229329518E+03  0.00000000000E+00 0. -1.
         -2    1    1    2    0  501 -0.28260407511E+02  0.65227364106E+02 -0.16025388336E+03  0.17531276848E+03  0.00000000000E+00 0.  1.
<mgrwt>
<rscale>  0 0.35932859E+02</rscale>
<asrwt>0</asrwt>
<pdfrwt beam="2">  1        1 0.56360441E-01 0.21578225E+02</pdfrwt>
<pdfrwt beam="1">  1       -2 0.86483672E-02 0.59836729E+02</pdfrwt>
<totfact> 0.45485073E+03</totfact>
</mgrwt>
</event>
<event>
 7    1  0.3113530E-004  0.1742188E+03  0.7546771E-02  0.1229801E+00
          1   -1    0    0  503    0 -0.00000000000E+00  0.00000000000E+00  0.59610789296E+03  0.59610789296E+03  0.00000000000E+00 0. -1.
          2   -1    0    0  502    0  0.00000000000E+00 -0.00000000000E+00 -0.12933904299E+04  0.12933904299E+04  0.00000000000E+00 0. -1.
         25    2    1    2    0    0  0.61906767504E+02 -0.66448603163E+02 -0.67506393081E+02  0.16862337728E+03  0.12501546118E+03 0.  0.
          4    1    3    3  501    0  0.42121887998E+02 -0.72802605423E+02 -0.99599350322E+02  0.13036915390E+03  0.12700000000E+01 0.  1.
         -4    1    3    3    0  501  0.19784879506E+02  0.63540022599E+01  0.32092957240E+02  0.38254223377E+02  0.12700000000E+01 0.  1.
          2    1    1    2  502    0  0.59733545014E+02 -0.73456515843E+02 -0.11575867720E+04  0.11614521475E+04  0.00000000000E+00 0. -1.
          1    1    1    2  503    0 -0.12164031252E+03  0.13990511901E+03  0.52781062811E+03  0.55942279815E+03  0.00000000000E+00 0. -1.
<mgrwt>
<rscale>  0 0.12843176E+03</rscale>
<asrwt>0</asrwt>
<pdfrwt beam="2">  1        2 0.19898314E+00 0.94678171E+02</pdfrwt>
<pdfrwt beam="1">  1        1 0.91708906E-01 0.17421881E+03</pdfrwt>
<totfact> 0.93932012E+01</totfact>
</mgrwt>
</event>
<event>
 7    1  0.3113530E-004  0.1644540E+03  0.7546771E-02  0.1306186E+00
         -1   -1    0    0    0  501 -0.00000000000E+00  0.00000000000E+00  0.41599589784E+03  0.41599589784E+03  0.00000000000E+00 0.  1.
          2   -1    0    0  503    0  0.00000000000E+00 -0.00000000000E+00 -0.54554902922E+03  0.54554902922E+03  0.00000000000E+00 0. -1.
         25    2    1    2    0    0 -0.69824164734E+02 -0.13917125372E+03  0.44790963331E+02  0.20463392930E+03  0.12499905112E+03 0.  0.
          4    1    3    3  502    0  0.13358374597E+02 -0.94716514868E+02  0.54016085130E+02  0.10985906751E+03  0.12700000000E+01 0. -1.
         -4    1    3    3    0  502 -0.83182539331E+02 -0.44454738854E+02 -0.92251217989E+01  0.94774861796E+02  0.12700000000E+01 0. -1.
          2    1    1    2  503    0 -0.45101837744E+02  0.15752367439E+02 -0.43981576812E+03  0.44240278337E+03  0.00000000000E+00 0. -1.
         -1    1    1    2    0  501  0.11492600248E+03  0.12341888628E+03  0.26547167341E+03  0.31450821439E+03  0.00000000000E+00 0.  1.
<mgrwt>
<rscale>  0 0.88637187E+02</rscale>
<asrwt>0</asrwt>
<pdfrwt beam="2">  1        2 0.83930619E-01 0.47773558E+02</pdfrwt>
<pdfrwt beam="1">  1       -1 0.63999369E-01 0.16445396E+03</pdfrwt>
<totfact> 0.17318831E+02</totfact>
</mgrwt>
</event>
<event>
 7    1  0.3113530E-004  0.1578175E+03  0.7546771E-02  0.1363574E+00
          1   -1    0    0  503    0  0.00000000000E+00  0.00000000000E+00  0.13333245634E+04  0.13333245634E+04  0.00000000000E+00 0. -1.
          1   -1    0    0  502    0 -0.00000000000E+00 -0.00000000000E+00 -0.18426027280E+03  0.18426027280E+03  0.00000000000E+00 0. -1.
         25    2    1    2    0    0  0.14348024657E+03  0.94510357840E+02  0.26793669632E+03  0.34195660939E+03  0.12500184229E+03 0.  0.
          4    1    3    3  501    0  0.14678143870E+03  0.32746175491E+02  0.18280474019E+03  0.23671985276E+03  0.12700000000E+01 0.  1.
         -4    1    3    3    0  501 -0.33011921287E+01  0.61764182349E+02  0.85131956131E+02  0.10523675663E+03  0.12700000000E+01 0.  1.
          1    1    1    2  502    0 -0.11532196922E+03 -0.10530348846E+03 -0.10554942616E+03  0.18849048419E+03  0.00000000000E+00 0. -1.
          1    1    1    2  503    0 -0.28158277353E+02  0.10793130624E+02  0.98667702044E+03  0.98713774263E+03  0.00000000000E+00 0. -1.
<mgrwt>
<rscale>  0 0.68986482E+02</rscale>
<asrwt>0</asrwt>
<pdfrwt beam="1">  1        1 0.20512685E+00 0.30155932E+02</pdfrwt>
<pdfrwt beam="2">  1        1 0.28347735E-01 0.15781753E+03</pdfrwt>
<totfact> 0.21723288E+02</totfact>
</mgrwt>
</event>
<event>
 7    1  0.3113530E-004  0.8112853E+02  0.7546771E-02  0.1470509E+00
          1   -1    0    0  503    0  0.00000000000E+00  0.00000000000E+00  0.14368579533E+04  0.14368579533E+04  0.00000000000E+00 0. -1.
         -2   -1    0    0    0  501 -0.00000000000E+00 -0.00000000000E+00 -0.13957825910E+02  0.13957825910E+02  0.00000000000E+00 0.  1.
         25    2    1    2    0    0  0.96359511523E+02 -0.71359939011E+01  0.70668116101E+03  0.72412672393E+03  0.12500068448E+03 0.  0.
          4    1    3    3  502    0  0.11121290945E+03  0.31579468936E+02  0.55205515766E+03  0.56403198853E+03  0.12700000000E+01 0. -1.
         -4    1    3    3    0  502 -0.14853397924E+02 -0.38715462837E+02  0.15462600335E+03  0.16009473540E+03  0.12700000000E+01 0. -1.
          1    1    1    2  503    0 -0.74650422801E+02  0.20802643535E+02  0.66402552040E+03  0.66853221863E+03  0.00000000000E+00 0. -1.
         -2    1    1    2    0  501 -0.21709088722E+02 -0.13666649634E+02  0.52193445989E+02  0.58156836653E+02  0.00000000000E+00 0.  1.
<mgrwt>
<rscale>  0 0.45619812E+02</rscale>
<asrwt>0</asrwt>
<pdfrwt beam="1">  1        1 0.22105495E+00 0.81128533E+02</pdfrwt>
<pdfrwt beam="2">  1       -2 0.21473590E-02 0.25652716E+02</pdfrwt>
<totfact> 0.38824245E+03</totfact>
</mgrwt>
</event>
<event>
 7    1  0.3113530E-004  0.1095047E+03  0.7546771E-02  0.1426120E+00
          2   -1    0    0  503    0  0.00000000000E+00  0.00000000000E+00  0.18223600629E+04  0.18223600629E+04  0.00000000000E+00 0. -1.
         -1   -1    0    0    0  501 -0.00000000000E+00 -0.00000000000E+00 -0.19652007290E+03  0.19652007290E+03  0.00000000000E+00 0.  1.
         25    2    1    2    0    0  0.36188470604E+02 -0.96417926411E+02  0.26852640361E+03  0.31358938764E+03  0.12500341064E+03 0.  0.
          4    1    3    3  502    0  0.37884542835E+02 -0.10485871595E+03  0.27871477730E+03  0.30019015454E+03  0.12700000000E+01 0. -1.
         -4    1    3    3    0  502 -0.16960722314E+01  0.84407895433E+01 -0.10188373696E+02  0.13399233101E+02  0.12700000000E+01 0. -1.
          2    1    1    2  503    0  0.25804983691E+02  0.54768742356E+01  0.15137702013E+04  0.15140000382E+04  0.00000000000E+00 0. -1.
         -1    1    1    2    0  501 -0.61993454295E+02  0.90941052175E+02 -0.15645661494E+03  0.19129070992E+03  0.00000000000E+00 0.  1.
<mgrwt>
<rscale>  0 0.53746728E+02</rscale>
<asrwt>0</asrwt>
<pdfrwt beam="1">  1        2 0.28036308E+00 0.26379790E+02</pdfrwt>
<pdfrwt beam="2">  1       -1 0.30233859E-01 0.10950469E+03</pdfrwt>
<totfact> 0.13386238E+02</totfact>
</mgrwt>
</event>
<event>
 7    1  0.3113530E-004  0.4895762E+02  0.7546771E-02  0.1557796E+00
         -1   -1    0    0    0  501 -0.00000000000E+00  0.00000000000E+00  0.10316619898E+02  0.10316619898E+02  0.00000000000E+00 0.  1.
          2   -1    0    0  503    0  0.00000000000E+00 -0.00000000000E+00 -0.12089696594E+04  0.12089696594E+04  0.00000000000E+00 0. -1.
         25    2    1    2    0    0 -0.30866640660E+02  0.20877167880E+02 -0.59037220082E+03  0.60461001036E+03  0.12500129391E+03 0.  0.
          4    1    3    3  502    0  0.33582934322E+02 -0.38478557908E+01 -0.41131097218E+03  0.41269958591E+03  0.12700000000E+01 0. -1.
         -4    1    3    3    0  502 -0.64449574981E+02  0.24725023671E+02 -0.17906122864E+03  0.19191042445E+03  0.12700000000E+01 0. -1.
          2    1    1    2  503    0 -0.22454143840E+02 -0.72399196830E+01 -0.33948226480E+03  0.34030106248E+03  0.00000000000E+00 0. -1.
         -1    1    1    2    0  501  0.53320784500E+02 -0.13637248197E+02 -0.26879857387E+03  0.27437520645E+03  0.00000000000E+00 0.  1.
<mgrwt>
<rscale>  0 0.33985757E+02</rscale>
<asrwt>0</asrwt>
<pdfrwt beam="2">  1        2 0.18599523E+00 0.23592478E+02</pdfrwt>
<pdfrwt beam="1">  1       -1 0.15871731E-02 0.48957625E+02</pdfrwt>
<totfact> 0.20028023E+04</totfact>
</mgrwt>
</event>
<event>
 7    1  0.3113530E-004  0.7879019E+02  0.7546771E-02  0.1441280E+00
         -1   -1    0    0    0  501  0.00000000000E+00  0.00000000000E+00  0.26894703726E+03  0.26894703726E+03  0.00000000000E+00 0.  1.
         -1   -1    0    0    0  502 -0.00000000000E+00 -0.00000000000E+00 -0.10733017678E+03  0.10733017678E+03  0.00000000000E+00 0.  1.
         25    2    1    2    0    0 -0.39845608653E+02 -0.81661863449E+02 -0.17690634744E+02  0.15554475417E+03  0.12499951809E+03 0.  0.
          4    1    3    3  503    0 -0.13534070373E+02 -0.73049317356E+02 -0.66304752794E+02  0.99585676531E+02  0.12700000000E+01 0. -1.
         -4    1    3    3    0  503 -0.26311538280E+02 -0.86125460932E+01  0.48614118049E+02  0.55959077642E+02  0.12700000000E+01 0. -1.
         -1    1    1    2    0  501 -0.82519503232E+01  0.31644655189E+02  0.13382782595E+03  0.13776561939E+03  0.00000000000E+00 0.  1.
         -1    1    1    2    0  502  0.48097558976E+02  0.50017208259E+02  0.45479669267E+02  0.82966840474E+02  0.00000000000E+00 0.  1.
<mgrwt>
<rscale>  0 0.50760878E+02</rscale>
<asrwt>0</asrwt>
<pdfrwt beam="1">  1       -1 0.41376467E-01 0.32702888E+02</pdfrwt>
<pdfrwt beam="2">  1       -1 0.16512335E-01 0.78790190E+02</pdfrwt>
<totfact> 0.12695125E+03</totfact>
</mgrwt>
</event>
<event>
 7    1  0.3113530E-004  0.1474967E+03  0.7546771E-02  0.1369326E+00
          2   -1    0    0  502    0  0.00000000000E+00  0.00000000000E+00  0.15019762770E+04  0.15019762770E+04  0.00000000000E+00 0. -1.
          2   -1    0    0  503    0 -0.00000000000E+00 -0.00000000000E+00 -0.32411617850E+03  0.32411617850E+03  0.00000000000E+00 0. -1.
         25    2    1    2    0    0 -0.69118835355E+02 -0.16318397069E+03  0.67010219789E+03  0.70432128913E+03  0.12500040408E+03 0.  0.
          4    1    3    3  501    0 -0.83526743368E+02 -0.16702768545E+03  0.50299044499E+03  0.53654073957E+03  0.12700000000E+01 0.  1.
         -4    1    3    3    0  501  0.14407908013E+02  0.38437147540E+01  0.16711175289E+03  0.16778054956E+03  0.12700000000E+01 0.  1.
          2    1    1    2  502    0  0.84467384921E+01  0.29575411989E+02  0.79691678995E+03  0.79751013943E+03  0.00000000000E+00 0. -1.
          2    1    1    2  503    0  0.60672096863E+02  0.13360855870E+03 -0.28915888935E+03  0.32426102693E+03  0.00000000000E+00 0. -1.
<mgrwt>
<rscale>  0 0.67355016E+02</rscale>
<asrwt>0</asrwt>
<pdfrwt beam="1">  1        2 0.23107327E+00 0.30757965E+02</pdfrwt>
<pdfrwt beam="2">  1        2 0.49864028E-01 0.14749670E+03</pdfrwt>
<totfact> 0.25469293E+02</totfact>
</mgrwt>
</event>
<event>
 7    1  0.3113530E-004  0.1108150E+03  0.7546771E-02  0.1363166E+00
          1   -1    0    0  503    0 -0.00000000000E+00  0.00000000000E+00  0.11882498737E+03  0.11882498737E+03  0.00000000000E+00 0. -1.
          2   -1    0    0  502    0  0.00000000000E+00 -0.00000000000E+00 -0.14467962570E+04  0.14467962570E+04  0.00000000000E+00 0. -1.
         25    2    1    2    0    0 -0.10647800239E+03 -0.14709859230E+02  0.12802452919E+02  0.16530028805E+03  0.12492532761E+03 0.  0.
          4    1    3    3  501    0 -0.10633120383E+03 -0.41719800457E+02 -0.26814467112E+02  0.11733497008E+03  0.12700000000E+01 0. -1.
         -4    1    3    3    0  501 -0.14679856058E+00  0.27009941227E+02  0.39616920031E+02  0.47965317967E+02  0.12700000000E+01 0. -1.
          2    1    1    2  502    0  0.95707683569E+02  0.56435416725E+02 -0.13513815443E+04  0.13559413687E+04  0.00000000000E+00 0. -1.
          1    1    1    2  503    0  0.10770318820E+02 -0.41725557495E+02  0.10607821780E+02  0.44379587635E+02  0.00000000000E+00 0. -1.
<mgrwt>
<rscale>  0 0.69104066E+02</rscale>
<asrwt>0</asrwt>
<pdfrwt beam="2">  1        2 0.22258404E+00 0.11081504E+03</pdfrwt>
<pdfrwt beam="1">  1        1 0.18280767E-01 0.43093177E+02</pdfrwt>
<totfact> 0.56802429E+02</totfact>
</mgrwt>
</event>
<event>
 7    1  0.3113530E-004  0.3641861E+02  0.7546771E-02  0.1589020E+00
          1   -1    0    0  503    0  0.00000000000E+00  0.00000000000E+00  0.33014422507E+03  0.33014422507E+03  0.00000000000E+00 0. -1.
         -2   -1    0    0    0  501 -0.00000000000E+00 -0.00000000000E+00 -0.39835029584E+02  0.39835029584E+02  0.00000000000E+00 0.  1.
         25    2    1    2    0    0 -0.31280789460E+02 -0.25844826687E+02  0.13373054551E+03  0.18749608798E+03  0.12499792538E+03 0.  0.
          4    1    3    3  502    0  0.12937614325E+02  0.12092842637E+02 -0.17802833818E+02  0.25143040775E+02  0.12700000000E+01 0. -1.
         -4    1    3    3    0  502 -0.44218403785E+02 -0.37937669324E+02  0.15153337932E+03  0.16235304720E+03  0.12700000000E+01 0. -1.
          1    1    1    2  503    0  0.23918784492E+02 -0.10471016904E+02  0.13907082453E+03  0.14150068792E+03  0.00000000000E+00 0. -1.
         -2    1    1    2    0  501  0.73620049679E+01  0.36315843591E+02  0.17507825450E+02  0.40982478754E+02  0.00000000000E+00 0.  1.
<mgrwt>
<rscale>  0 0.30836711E+02</rscale>
<asrwt>0</asrwt>
<pdfrwt beam="1">  1        1 0.50791418E-01 0.26110351E+02</pdfrwt>
<pdfrwt beam="2">  1       -2 0.61284663E-02 0.36418612E+02</pdfrwt>
<totfact> 0.81663441E+03</totfact>
</mgrwt>
</event>
<event>
 7    1  0.3113530E-004  0.6132356E+02  0.7546771E-02  0.1525248E+00
          2   -1    0    0  503    0  0.00000000000E+00  0.00000000000E+00  0.19821178544E+04  0.19821178544E+04  0.00000000000E+00 0. -1.
         -1   -1    0    0    0  501 -0.00000000000E+00 -0.00000000000E+00 -0.78252804347E+01  0.78252804347E+01  0.00000000000E+00 0.  1.
         25    2    1    2    0    0 -0.29843190421E+02 -0.57030128684E+02  0.14108419756E+04  0.14178303577E+04  0.12499916563E+03 0.  0.
          4    1    3    3  502    0 -0.36908168563E+02 -0.88870870944E+02  0.74520474174E+03  0.75139334880E+03  0.12700000000E+01 0. -1.
         -4    1    3    3    0  502  0.70649781419E+01  0.31840742260E+02  0.66563723390E+03  0.66643700890E+03  0.12700000000E+01 0. -1.
          2    1    1    2  503    0 -0.16364218708E+02  0.16544118673E+02  0.32647679870E+03  0.32730504977E+03  0.00000000000E+00 0. -1.
         -1    1    1    2    0  501  0.46207409129E+02  0.40486010011E+02  0.23697379959E+03  0.24480772732E+03  0.00000000000E+00 0.  1.
<mgrwt>
<rscale>  0 0.37775689E+02</rscale>
<asrwt>0</asrwt>
<pdfrwt beam="1">  1        2 0.30494081E+00 0.23270056E+02</pdfrwt>
<pdfrwt beam="2">  1       -1 0.12038909E-02 0.61323560E+02</pdfrwt>
<totfact> 0.13203743E+04</totfact>
</mgrwt>
</event>
<event>
 7    1  0.3113530E-004  0.4730011E+02  0.7546771E-02  0.1556267E+00
         -1   -1    0    0    0  501 -0.00000000000E+00  0.00000000000E+00  0.33521903652E+02  0.33521903652E+02  0.00000000000E+00 0.  1.
          2   -1    0    0  503    0  0.00000000000E+00 -0.00000000000E+00 -0.45203313512E+03  0.45203313512E+03  0.00000000000E+00 0. -1.
         25    2    1    2    0    0  0.24391995557E+02 -0.25274360363E+02 -0.34948629993E+03  0.37283223704E+03  0.12501776034E+03 0.  0.
          4    1    3    3  502    0  0.34522240586E+02 -0.71185998988E+02 -0.25950834132E+03  0.27130319508E+03  0.12700000000E+01 0.  1.
         -4    1    3    3    0  502 -0.10130245029E+02  0.45911638625E+02 -0.89977958612E+02  0.10152904196E+03  0.12700000000E+01 0.  1.
          2    1    1    2  503    0 -0.37949899028E+02  0.45870395778E+02 -0.64277294707E+02  0.87611977833E+02  0.00000000000E+00 0. -1.
         -1    1    1    2    0  501  0.13557903470E+02 -0.20596035415E+02 -0.47476368291E+01  0.25110823897E+02  0.00000000000E+00 0.  1.
<mgrwt>
<rscale>  0 0.34151468E+02</rscale>
<asrwt>0</asrwt>
<pdfrwt beam="2">  1        2 0.69543558E-01 0.47300112E+02</pdfrwt>
<pdfrwt beam="1">  1       -1 0.51572160E-02 0.24657928E+02</pdfrwt>
<totfact> 0.10589511E+04</totfact>
</mgrwt>
</event>
<event>
 7    1  0.3113530E-004  0.6007063E+03  0.7546771E-02  0.1131382E+00
          2   -1    0    0  503    0  0.00000000000E+00  0.00000000000E+00  0.18291763676E+04  0.18291763676E+04  0.00000000000E+00 0. -1.
          2   -1    0    0  502    0 -0.00000000000E+00 -0.00000000000E+00 -0.51800463641E+03  0.51800463641E+03  0.00000000000E+00 0. -1.
         25    2    1    2    0    0 -0.26390846517E+03 -0.52609285292E+03  0.98854266519E+03  0.11572655793E+04  0.12500260909E+03 0.  0.
          4    1    3    3  501    0 -0.23247821264E+03 -0.51623912038E+03  0.90566069300E+03  0.10680692171E+04  0.12700000000E+01 0.  1.
         -4    1    3    3    0  501 -0.31430252529E+02 -0.98537325461E+01  0.82881972184E+02  0.89196362214E+02  0.12700000000E+01 0.  1.
          2    1    1    2  502    0  0.56840258807E+02 -0.60582739916E+02 -0.29906458672E+03  0.31038799981E+03  0.00000000000E+00 0. -1.
          2    1    1    2  503    0  0.20706820637E+03  0.58667559284E+03  0.62169365277E+03  0.87952742494E+03  0.00000000000E+00 0. -1.
<mgrwt>
<rscale>  0 0.22338829E+03</rscale>
<asrwt>0</asrwt>
<pdfrwt beam="1">  1        2 0.28141175E+00 0.60070627E+03</pdfrwt>
<pdfrwt beam="2">  1        2 0.79693022E-01 0.83072760E+02</pdfrwt>
<totfact> 0.81193176E+01</totfact>
</mgrwt>
</event>
<event>
 7    1  0.3113530E-004  0.1361669E+03  0.7546771E-02  0.1252971E+00
         -3   -1    0    0    0  501 -0.00000000000E+00  0.00000000000E+00  0.10519343995E+04  0.10519343995E+04  0.00000000000E+00 0.  1.
          1   -1    0    0  503    0  0.00000000000E+00 -0.00000000000E+00 -0.13663927051E+04  0.13663927051E+04  0.00000000000E+00 0. -1.
         25    2    1    2    0    0 -0.10198960717E+03  0.32571274859E+02  0.19136832209E+03  0.25240893102E+03  0.12500266333E+03 0.  0.
          4    1    3    3  502    0  0.26914357078E+02  0.21078210166E+02  0.29580805435E+02  0.45225109297E+02  0.12700000000E+01 0.  1.
         -4    1    3    3    0  502 -0.12890396425E+03  0.11493064693E+02  0.16178751666E+03  0.20718382172E+03  0.12700000000E+01 0.  1.
          1    1    1    2  503    0  0.12282307381E+03  0.60925122053E+02 -0.13295718953E+04  0.13366221615E+04  0.00000000000E+00 0. -1.
         -3    1    1    2    0  501 -0.20833466640E+02 -0.93496396913E+02  0.82374526760E+03  0.82929601197E+03  0.00000000000E+00 0.  1.
<mgrwt>
<rscale>  0 0.11420747E+03</rscale>
<asrwt>0</asrwt>
<pdfrwt beam="2">  1        1 0.21021426E+00 0.13616691E+03</pdfrwt>
<pdfrwt beam="1">  1       -3 0.16183606E+00 0.95789402E+02</pdfrwt>
<totfact> 0.14524033E+00</totfact>
</mgrwt>
</event>
<event>
 7    1  0.3113530E-004  0.1686664E+03  0.7546771E-02  0.1187343E+00
          1   -1    0    0  503    0 -0.00000000000E+00  0.00000000000E+00  0.85671976658E+03  0.85671976658E+03  0.00000000000E+00 0. -1.
          2   -1    0    0  502    0  0.00000000000E+00 -0.00000000000E+00 -0.69477826455E+03  0.69477826455E+03  0.00000000000E+00 0. -1.
         25    2    1    2    0    0  0.18811053133E+02  0.32265154415E+02 -0.62397687852E+02  0.14460619449E+03  0.12499033613E+03 0.  0.
          4    1    3    3  501    0 -0.14292453147E+02 -0.43326844295E+02 -0.35432632888E+02  0.57780394831E+02  0.12700000000E+01 0. -1.
         -4    1    3    3    0  501  0.33103506280E+02  0.75591998710E+02 -0.26965054964E+02  0.86825799657E+02  0.12700000000E+01 0. -1.
          2    1    1    2  502    0 -0.38604790481E+02  0.14915898581E+03 -0.57072212698E+03  0.59115351570E+03  0.00000000000E+00 0. -1.
          1    1    1    2  503    0  0.19793737348E+02 -0.18142414023E+03  0.79506131686E+03  0.81573832095E+03  0.00000000000E+00 0. -1.
<mgrwt>
<rscale>  0 0.16120508E+03</rscale>
<asrwt>0</asrwt>
<pdfrwt beam="2">  1        2 0.10688896E+00 0.15407379E+03</pdfrwt>
<pdfrwt beam="1">  1        1 0.13180304E+00 0.16866644E+03</pdfrwt>
<totfact> 0.12527708E+02</totfact>
</mgrwt>
</event>
<event>
 7    1  0.3113530E-004  0.4322904E+02  0.7546771E-02  0.1507113E+00
          2   -1    0    0  502    0  0.00000000000E+00  0.00000000000E+00  0.87198682641E+02  0.87198682641E+02  0.00000000000E+00 0. -1.
          2   -1    0    0  503    0 -0.00000000000E+00 -0.00000000000E+00 -0.31335122561E+04  0.31335122561E+04  0.00000000000E+00 0.  1.
         25    2    1    2    0    0  0.13256670523E+02 -0.30316128037E+02 -0.97231498751E+03  0.98087493965E+03  0.12499762145E+03 0.  0.
          4    1    3    3  501    0 -0.43222704463E+02  0.21570527938E+02 -0.50497663109E+03  0.50728345203E+03  0.12700000000E+01 0.  1.
         -4    1    3    3    0  501  0.56479374986E+02 -0.51886655975E+02 -0.46733835642E+03  0.47359148762E+03  0.12700000000E+01 0.  1.
          2    1    1    2  502    0  0.23526850372E+02  0.36438806477E+02  0.77073916294E+02  0.88440306868E+02  0.00000000000E+00 0. -1.
          2    1    1    2  503    0 -0.36783520895E+02 -0.61226784402E+01 -0.21510725022E+04  0.21513956922E+04  0.00000000000E+00 0.  1.
<mgrwt>
<rscale>  0 0.40149645E+02</rscale>
<asrwt>0</asrwt>
<pdfrwt beam="1">  1        2 0.13415184E-01 0.43229044E+02</pdfrwt>
<pdfrwt beam="2">  1        2 0.48207874E+00 0.37289604E+02</pdfrwt>
<totfact> 0.15231312E+02</totfact>
</mgrwt>
</event>
<event>
 7    1  0.3113530E-004  0.4394648E+02  0.7546771E-02  0.1541254E+00
         -1   -1    0    0    0  501 -0.00000000000E+00  0.00000000000E+00  0.79910357839E+02  0.79910357839E+02  0.00000000000E+00 0.  1.
          1   -1    0    0  503    0  0.00000000000E+00 -0.00000000000E+00 -0.13903160585E+03  0.13903160585E+03  0.00000000000E+00 0. -1.
         25    2    1    2    0    0  0.19298549460E+02 -0.56461956705E+01 -0.58641096664E+02  0.13953888539E+03  0.12501203455E+03 0.  0.
          4    1    3    3  502    0 -0.58069113137E+01  0.55891575845E+02 -0.98087989680E+01  0.57056234600E+02  0.12700000000E+01 0.  1.
         -4    1    3    3    0  502  0.25105460774E+02 -0.61537771516E+02 -0.48832297696E+02  0.82482650794E+02  0.12700000000E+01 0.  1.
          1    1    1    2  503    0  0.28829586239E+02 -0.48278058302E+01 -0.59987971464E+01  0.29840213120E+02  0.00000000000E+00 0. -1.
         -1    1    1    2    0  501 -0.48128135699E+02  0.10474001501E+02  0.55186457954E+01  0.49562865179E+02  0.00000000000E+00 0.  1.
<mgrwt>
<rscale>  0 0.35841327E+02</rscale>
<asrwt>0</asrwt>
<pdfrwt beam="2">  1        1 0.21389478E-01 0.29231024E+02</pdfrwt>
<pdfrwt beam="1">  1       -1 0.12293901E-01 0.43946484E+02</pdfrwt>
<totfact> 0.85531321E+03</totfact>
</mgrwt>
</event>
<event>
 7    1  0.3113530E-004  0.1142909E+03  0.7546771E-02  0.1388841E+00
          1   -1    0    0  503    0  0.00000000000E+00  0.00000000000E+00  0.57147940166E+02  0.57147940166E+02  0.00000000000E+00 0. -1.
         -2   -1    0    0    0  501 -0.00000000000E+00 -0.00000000000E+00 -0.62753127156E+03  0.62753127156E+03  0.00000000000E+00 0.  1.
         25    2    1    2    0    0  0.11955356262E+03  0.48143754041E+02 -0.46845963917E+03  0.50168792621E+03  0.12500186551E+03 0.  0.
          4    1    3    3  502    0  0.92457168731E+02  0.77369328486E+02 -0.42888343118E+03  0.44550752124E+03  0.12700000000E+01 0.  1.
         -4    1    3    3    0  502  0.27096393886E+02 -0.29225574444E+02 -0.39576207993E+02  0.56180404968E+02  0.12700000000E+01 0.  1.
          1    1    1    2  503    0 -0.11112855491E+03 -0.15362667014E+02 -0.54486105956E+02  0.12471689138E+03  0.00000000000E+00 0. -1.
         -2    1    1    2    0  501 -0.84250077110E+01 -0.32781087027E+02 -0.47437586267E+02  0.58274394140E+02  0.00000000000E+00 0.  1.
<mgrwt>
<rscale>  0 0.62195972E+02</rscale>
<asrwt>0</asrwt>
<pdfrwt beam="1">  1        1 0.87919908E-02 0.11429092E+03</pdfrwt>
<pdfrwt beam="2">  1       -2 0.96543272E-01 0.33846424E+02</pdfrwt>
<totfact> 0.62559971E+02</totfact>
</mgrwt>
</event>
<event>
 7    1  0.3113530E-004  0.4562233E+02  0.7546771E-02  0.1530284E+00
          2   -1    0    0  502    0  0.00000000000E+00  0.00000000000E+00  0.51203858406E+03  0.51203858406E+03  0.00000000000E+00 0. -1.
          1   -1    0    0  503    0 -0.00000000000E+00 -0.00000000000E+00 -0.10052320211E+04  0.10052320211E+04  0.00000000000E+00 0.  1.
         25    2    1    2    0    0  0.28588255736E+02 -0.67332707985E+02  0.15119473099E+03  0.20935867827E+03  0.12498090877E+03 0.  0.
          4    1    3    3  501    0 -0.70579470564E+01  0.26662212612E+02  0.84036082641E+02  0.88455436711E+02  0.12700000000E+01 0.  1.
         -4    1    3    3    0  501  0.35646202792E+02 -0.93994920597E+02  0.67158648351E+02  0.12090324156E+03  0.12700000000E+01 0.  1.
          2    1    1    2  502    0 -0.23507822983E+02  0.37508777444E+02  0.33004946249E+03  0.33300476546E+03  0.00000000000E+00 0. -1.
          1    1    1    2  503    0 -0.50804327529E+01  0.29823930541E+02 -0.97443763051E+03  0.97490716142E+03  0.00000000000E+00 0.  1.
<mgrwt>
<rscale>  0 0.37151550E+02</rscale>
<asrwt>0</asrwt>
<pdfrwt beam="1">  1        2 0.78775167E-01 0.45622329E+02</pdfrwt>
<pdfrwt beam="2">  1        1 0.15465108E+00 0.30253556E+02</pdfrwt>
<totfact> 0.15607872E+02</totfact>
</mgrwt>
</event>
<event>
 7    1  0.3113530E-004  0.5299386E+02  0.7546771E-02  0.1493742E+00
         -1   -1    0    0    0  501 -0.00000000000E+00  0.00000000000E+00  0.83210879222E+02  0.83210879222E+02  0.00000000000E+00 0.  1.
          2   -1    0    0  503    0  0.00000000000E+00 -0.00000000000E+00 -0.84046810789E+03  0.84046810789E+03  0.00000000000E+00 0. -1.
         25    2    1    2    0    0  0.55833337188E+02 -0.64335372347E+02 -0.37215276952E+03  0.40171975320E+03  0.12499869826E+03 0.  0.
          4    1    3    3  502    0  0.54589421250E+01 -0.79193125023E+02 -0.11818376443E+03  0.14237403617E+03  0.12700000000E+01 0.  1.
         -4    1    3    3    0  502  0.50374395063E+02  0.14857752676E+02 -0.25396900509E+03  0.25934571703E+03  0.12700000000E+01 0.  1.
          2    1    1    2  503    0 -0.18987637309E+02  0.27409715049E+02 -0.44287161808E+03  0.44412508705E+03  0.00000000000E+00 0. -1.
         -1    1    1    2    0  501 -0.36845699879E+02  0.36925657298E+02  0.57767158934E+02  0.77834146863E+02  0.00000000000E+00 0.  1.
<mgrwt>
<rscale>  0 0.42036027E+02</rscale>
<asrwt>0</asrwt>
<pdfrwt beam="2">  1        2 0.12930280E+00 0.33344008E+02</pdfrwt>
<pdfrwt beam="1">  1       -1 0.12801673E-01 0.52993858E+02</pdfrwt>
<totfact> 0.15645352E+03</totfact>
</mgrwt>
</event>
<event>
 7    1  0.3113530E-004  0.7010062E+02  0.7546771E-02  0.1402596E+00
          1   -1    0    0  503    0 -0.00000000000E+00  0.00000000000E+00  0.49532541316E+02  0.49532541316E+02  0.00000000000E+00 0. -1.
          2   -1    0    0  502    0  0.00000000000E+00 -0.00000000000E+00 -0.30771290812E+04  0.30771290812E+04  0.00000000000E+00 0. -1.
         25    2    1    2    0    0  0.17811490007E+02  0.41011617886E+02 -0.72840470608E+03  0.74040315030E+03  0.12499682858E+03 0.  0.
          4    1    3    3  501    0  0.20980006943E+02 -0.42769852326E+02 -0.31453521506E+03  0.31812487387E+03  0.12700000000E+01 0. -1.
         -4    1    3    3    0  501 -0.31685169365E+01  0.83781470211E+02 -0.41386949102E+03  0.42227827643E+03  0.12700000000E+01 0. -1.
          2    1    1    2  502    0  0.47855111026E+02 -0.12474386955E+02 -0.23128410129E+04  0.23133696793E+04  0.00000000000E+00 0. -1.
          1    1    1    2  503    0 -0.65666601033E+02 -0.28537230930E+02  0.13649179142E+02  0.72888792908E+02  0.00000000000E+00 0. -1.
<mgrwt>
<rscale>  0 0.58879309E+02</rscale>
<asrwt>0</asrwt>
<pdfrwt beam="2">  1        2 0.47340458E+00 0.49454241E+02</pdfrwt>
<pdfrwt beam="1">  1        1 0.76203892E-02 0.70100621E+02</pdfrwt>
<totfact> 0.28425159E+02</totfact>
</mgrwt>
</event>
<event>
 7    1  0.3113530E-004  0.5195414E+02  0.7546771E-02  0.1534810E+00
          1   -1    0    0  503    0  0.00000000000E+00  0.00000000000E+00  0.20658452035E+03  0.20658452035E+03  0.00000000000E+00 0. -1.
         -2   -1    0    0    0  501 -0.00000000000E+00 -0.00000000000E+00 -0.57505340873E+02  0.57505340873E+02  0.00000000000E+00 0.  1.
         25    2    1    2    0    0  0.11054018361E+02 -0.29676589817E+02  0.68869632524E+02  0.14618161389E+03  0.12499258639E+03 0.  0.
          4    1    3    3  502    0  0.12462007573E+02 -0.76853333639E+02  0.25135361153E+02  0.81823809520E+02  0.12700000000E+01 0.  1.
         -4    1    3    3    0  502 -0.14079892120E+01  0.47176743822E+02  0.43734271371E+02  0.64357804372E+02  0.12700000000E+01 0.  1.
          1    1    1    2  503    0 -0.17868310158E+02  0.54547696311E+02  0.69096444707E+02  0.89827870686E+02  0.00000000000E+00 0. -1.
         -2    1    1    2    0  501  0.68142917973E+01 -0.24871106494E+02  0.11113102243E+02  0.28080376642E+02  0.00000000000E+00 0.  1.
<mgrwt>
<rscale>  0 0.36602988E+02</rscale>
<asrwt>0</asrwt>
<pdfrwt beam="1">  1        1 0.31782234E-01 0.51954137E+02</pdfrwt>
<pdfrwt beam="2">  1       -2 0.88469756E-02 0.25787720E+02</pdfrwt>
<totfact> 0.80397960E+03</totfact>
</mgrwt>
</event>
<event>
 7    1  0.3113530E-004  0.4652985E+02  0.7546771E-02  0.1510429E+00
          2   -1    0    0  503    0  0.00000000000E+00  0.00000000000E+00  0.91274097495E+03  0.91274097495E+03  0.00000000000E+00 0. -1.
         -2   -1    0    0    0  501 -0.00000000000E+00 -0.00000000000E+00 -0.17857829708E+02  0.17857829708E+02  0.00000000000E+00 0.  1.
         25    2    1    2    0    0  0.17478124635E+02 -0.10968291665E+02  0.72398800460E+03  0.73498996133E+03  0.12500329666E+03 0.  0.
          4    1    3    3  502    0 -0.12806425715E+02  0.50622653229E+02  0.20810784797E+03  0.21456268745E+03  0.12700000000E+01 0.  1.
         -4    1    3    3    0  502  0.30284550350E+02 -0.61590944894E+02  0.51588015663E+03  0.52042727387E+03  0.12700000000E+01 0.  1.
          2    1    1    2  503    0  0.31420266591E+02  0.12655364666E+02  0.12130175520E+03  0.12594247584E+03  0.00000000000E+00 0. -1.
         -2    1    1    2    0  501 -0.48898391226E+02 -0.16870730005E+01  0.49593385440E+02  0.69666367489E+02  0.00000000000E+00 0.  1.
<mgrwt>
<rscale>  0 0.39700296E+02</rscale>
<asrwt>0</asrwt>
<pdfrwt beam="1">  1        2 0.14042165E+00 0.33873166E+02</pdfrwt>
<pdfrwt beam="2">  1       -2 0.27473591E-02 0.46529853E+02</pdfrwt>
<totfact> 0.12832074E+04</totfact>
</mgrwt>
</event>
<event>
 7    1  0.3113530E-004  0.1417364E+03  0.7546771E-02  0.1348946E+00
         -2   -1    0    0    0  501 -0.00000000000E+00  0.00000000000E+00  0.17614975100E+03  0.17614975100E+03  0.00000000000E+00 0.  1.
          1   -1    0    0  503    0  0.00000000000E+00 -0.00000000000E+00 -0.66232498664E+03  0.66232498664E+03  0.00000000000E+00 0. -1.
         25    2    1    2    0    0  0.94651307294E+02 -0.97452002418E+02 -0.30975015127E+02  0.18718863889E+03  0.12499748886E+03 0.  0.
          4    1    3    3  502    0  0.22065962684E+02 -0.68229149759E+02  0.39497562917E+02  0.81876699753E+02  0.12700000000E+01 0.  1.
         -4    1    3    3    0  502  0.72585344610E+02 -0.29222852659E+02 -0.70472578044E+02  0.10531193914E+03  0.12700000000E+01 0.  1.
          1    1    1    2  503    0 -0.12324962749E+03  0.72435930068E+02 -0.53987231582E+03  0.55847967916E+03  0.00000000000E+00 0. -1.
         -2    1    1    2    0  501  0.28598320198E+02  0.25016072349E+02  0.84672095306E+02  0.92806419592E+02  0.00000000000E+00 0.  1.
<mgrwt>
<rscale>  0 0.73385037E+02</rscale>
<asrwt>0</asrwt>
<pdfrwt beam="2">  1        1 0.10189615E+00 0.14173640E+03</pdfrwt>
<pdfrwt beam="1">  1       -2 0.27099962E-01 0.37995629E+02</pdfrwt>
<totfact> 0.32352792E+02</totfact>
</mgrwt>
</event>
<event>
 7    1  0.3113530E-004  0.5419037E+03  0.7546771E-02  0.1003385E+00
         -1   -1    0    0    0  501 -0.00000000000E+00  0.00000000000E+00  0.33094426665E+02  0.33094426665E+02  0.00000000000E+00 0.  1.
          2   -1    0    0  503    0  0.00000000000E+00 -0.00000000000E+00 -0.22183465292E+04  0.22183465292E+04  0.00000000000E+00 0. -1.
         25    2    1    2    0    0  0.24663238325E+03 -0.17816513478E+02 -0.99598808182E+03  0.10338092079E+04  0.12499703469E+03 0.  0.
          4    1    3    3  502    0  0.12068648987E+03  0.24089682640E+02 -0.68039334538E+03  0.69143492751E+03  0.12700000000E+01 0.  1.
         -4    1    3    3    0  502  0.12594589338E+03 -0.41906196118E+02 -0.31559473645E+03  0.34237428044E+03  0.12700000000E+01 0.  1.
          2    1    1    2  503    0 -0.60653733908E+02  0.98336210385E+01 -0.49672578126E+03  0.50051181535E+03  0.00000000000E+00 0. -1.
         -1    1    1    2    0  501 -0.18597864934E+03  0.79828924395E+01 -0.69253823945E+03  0.71711993257E+03  0.00000000000E+00 0.  1.
<mgrwt>
<rscale>  0 0.54190371E+03</rscale>
<asrwt>0</asrwt>
<pdfrwt beam="2">  1        2 0.34128404E+00 0.54190371E+03</pdfrwt>
<pdfrwt beam="1">  1       -1 0.50914509E-02 0.54190371E+03</pdfrwt>
<totfact> 0.10802234E+03</totfact>
</mgrwt>
</event>
<event>
 7    1  0.3113530E-004  0.1647978E+03  0.7546771E-02  0.1285293E+00
          1   -1    0    0  503    0  0.00000000000E+00  0.00000000000E+00  0.15933523483E+04  0.15933523483E+04  0.00000000000E+00 0. -1.
         -1   -1    0    0    0  501 -0.00000000000E+00 -0.00000000000E+00 -0.39994387621E+03  0.39994387621E+03  0.00000000000E+00 0.  1.
         25    2    1    2    0    0 -0.37459826108E+02 -0.11386177478E+03  0.94087730572E+02  0.19709220527E+03  0.12500037602E+03 0.  0.
          4    1    3    3  502    0  0.23897439237E+01 -0.47321907695E+02  0.10831123181E+03  0.11822863300E+03  0.12700000000E+01 0. -1.
         -4    1    3    3    0  502 -0.39849570032E+02 -0.66539867088E+02 -0.14223501240E+02  0.78863572270E+02  0.12700000000E+01 0. -1.
          1    1    1    2  503    0  0.85429010175E+02  0.14624214149E+03  0.14403627750E+04  0.14502861108E+04  0.00000000000E+00 0. -1.
         -1    1    1    2    0  501 -0.47969184067E+02 -0.32380366705E+02 -0.34104203346E+03  0.34591790841E+03  0.00000000000E+00 0.  1.
<mgrwt>
<rscale>  0 0.97661120E+02</rscale>
<asrwt>0</asrwt>
<pdfrwt beam="1">  1        1 0.24513113E+00 0.16479780E+03</pdfrwt>
<pdfrwt beam="2">  1       -1 0.61529828E-01 0.57875131E+02</pdfrwt>
<totfact> 0.18795216E+01</totfact>
</mgrwt>
</event>
<event>
 7    1  0.3113530E-004  0.9433789E+02  0.7546771E-02  0.1310970E+00
          1   -1    0    0  503    0 -0.00000000000E+00  0.00000000000E+00  0.77368992202E+02  0.77368992202E+02  0.00000000000E+00 0. -1.
          2   -1    0    0  502    0  0.00000000000E+00 -0.00000000000E+00 -0.81783735838E+03  0.81783735838E+03  0.00000000000E+00 0. -1.
         25    2    1    2    0    0  0.15891887960E+03 -0.56618979656E+00 -0.29808406840E+03  0.36018652694E+03  0.12499876596E+03 0.  0.
          4    1    3    3  501    0  0.12281939066E+03 -0.51546751618E+02 -0.24194768976E+03  0.27619190394E+03  0.12700000000E+01 0. -1.
         -4    1    3    3    0  501  0.36099488944E+02  0.50980561821E+02 -0.56136378644E+02  0.83994623000E+02  0.12700000000E+01 0. -1.
          2    1    1    2  502    0 -0.76036894594E+02 -0.24001824558E+02 -0.44142437510E+03  0.44856791666E+03  0.00000000000E+00 0. -1.
          1    1    1    2  503    0 -0.82881985010E+02  0.24568014355E+02 -0.95992267186E+00  0.86451906978E+02  0.00000000000E+00 0. -1.
<mgrwt>
<rscale>  0 0.86729738E+02</rscale>
<asrwt>0</asrwt>
<pdfrwt beam="2">  1        2 0.12582113E+00 0.79735167E+02</pdfrwt>
<pdfrwt beam="1">  1        1 0.11902922E-01 0.94337890E+02</pdfrwt>
<totfact> 0.23550154E+03</totfact>
</mgrwt>
</event>
<event>
 7    1  0.4501557E-004  0.5835039E+02  0.7546771E-02  0.1410154E+00
          2   -1    0    0  503    0  0.00000000000E+00  0.00000000000E+00  0.97577118221E+03  0.97577118221E+03  0.00000000000E+00 0. -1.
         -1   -1    0    0    0  501 -0.00000000000E+00 -0.00000000000E+00 -0.23122529622E+02  0.23122529622E+02  0.00000000000E+00 0.  1.
         25    2    1    2    0    0  0.81736187804E+02 -0.89023681641E+01  0.28940280823E+03  0.32578991188E+03  0.12500009885E+03 0.  0.
          4    1    3    3  502    0  0.66904497653E+02 -0.23581876644E+02  0.53241576996E+02  0.88705102070E+02  0.12700000000E+01 0.  1.
         -4    1    3    3    0  502  0.14831690151E+02  0.14679508479E+02  0.23616123124E+03  0.23708480981E+03  0.12700000000E+01 0.  1.
          2    1    1    2  503    0 -0.37648884505E+02  0.43420697215E+02  0.28507035264E+03  0.29080560759E+03  0.00000000000E+00 0. -1.
         -1    1    1    2    0  501 -0.44087303299E+02 -0.34518329050E+02  0.37817549172E+03  0.38229819237E+03  0.00000000000E+00 0.  1.
<mgrwt>
<rscale>  0 0.57159496E+02</rscale>
<asrwt>0</asrwt>
<pdfrwt beam="1">  1        2 0.15011861E+00 0.58350393E+02</pdfrwt>
<pdfrwt beam="2">  1       -1 0.35573130E-02 0.55992904E+02</pdfrwt>
<totfact> 0.82730042E+03</totfact>
</mgrwt>
</event>
<event>
 7    1  0.3113530E-004  0.5329015E+02  0.7546771E-02  0.1529065E+00
          2   -1    0    0  503    0  0.00000000000E+00  0.00000000000E+00  0.10909726320E+04  0.10909726320E+04  0.00000000000E+00 0. -1.
         -1   -1    0    0    0  501 -0.00000000000E+00 -0.00000000000E+00 -0.19864739762E+02  0.19864739762E+02  0.00000000000E+00 0.  1.
         25    2    1    2    0    0  0.44435809167E+02 -0.25382388718E+02  0.93660089079E+03  0.94629072660E+03  0.12500441528E+03 0.  0.
          4    1    3    3  502    0 -0.24213147867E+02  0.19967489871E+02  0.83193352452E+02  0.88925384303E+02  0.12700000000E+01 0.  1.
         -4    1    3    3    0  502  0.68648957034E+02 -0.45349878589E+02  0.85340753833E+03  0.85736534230E+03  0.12700000000E+01 0.  1.
          2    1    1    2  503    0 -0.59498524069E+02  0.40557353856E+01  0.12156560350E+03  0.13540575804E+03  0.00000000000E+00 0. -1.
         -1    1    1    2    0  501  0.15062714903E+02  0.21326653333E+02  0.12941397996E+02  0.29140887164E+02  0.00000000000E+00 0.  1.
<mgrwt>
<rscale>  0 0.37301272E+02</rscale>
<asrwt>0</asrwt>
<pdfrwt beam="1">  1        2 0.16784190E+00 0.53290151E+02</pdfrwt>
<pdfrwt beam="2">  1       -1 0.30561147E-02 0.26109606E+02</pdfrwt>
<totfact> 0.79452880E+03</totfact>
</mgrwt>
</event>
<event>
 7    1  0.3418016E-004  0.1131198E+03  0.7546771E-02  0.1359653E+00
         -1   -1    0    0    0  501 -0.00000000000E+00  0.00000000000E+00  0.50642950052E+02  0.50642950052E+02  0.00000000000E+00 0.  1.
          2   -1    0    0  503    0  0.00000000000E+00 -0.00000000000E+00 -0.91771619741E+03  0.91771619741E+03  0.00000000000E+00 0. -1.
         25    2    1    2    0    0  0.37650377861E+02  0.13996986218E+03 -0.72471862383E+03  0.74956774042E+03  0.12500240194E+03 0.  0.
          4    1    3    3  502    0  0.52956130007E+02  0.13435555176E+03 -0.41488306710E+03  0.43930096547E+03  0.12700000000E+01 0. -1.
         -4    1    3    3    0  502 -0.15305752145E+02  0.56143104249E+01 -0.30983555672E+03  0.31026677495E+03  0.12700000000E+01 0. -1.
          2    1    1    2  503    0  0.11250132050E+02 -0.41996751528E+02 -0.84307705369E+02  0.94858219437E+02  0.00000000000E+00 0. -1.
         -1    1    1    2    0  501 -0.48900509911E+02 -0.97973110653E+02 -0.58046918156E+02  0.12393318760E+03  0.00000000000E+00 0.  1.
<mgrwt>
<rscale>  0 0.70129623E+02</rscale>
<asrwt>0</asrwt>
<pdfrwt beam="2">  1        2 0.14118711E+00 0.43477495E+02</pdfrwt>
<pdfrwt beam="1">  1       -1 0.77912232E-02 0.11311976E+03</pdfrwt>
<totfact> 0.30921510E+03</totfact>
</mgrwt>
</event>
<event>
 7    1  0.3113530E-004  0.7981208E+02  0.7546771E-02  0.1404074E+00
         -2   -1    0    0    0  501 -0.00000000000E+00  0.00000000000E+00  0.72382721574E+03  0.72382721574E+03  0.00000000000E+00 0.  1.
          2   -1    0    0  503    0  0.00000000000E+00 -0.00000000000E+00 -0.10610335892E+03  0.10610335892E+03  0.00000000000E+00 0. -1.
         25    2    1    2    0    0  0.89213149988E+02 -0.60598298518E+02  0.10704407227E+02  0.16542072586E+03  0.12497316630E+03 0.  0.
          4    1    3    3  502    0 -0.17955935276E+02  0.98047641985E+01  0.29392652649E+02  0.35834200736E+02  0.12700000000E+01 0. -1.
         -4    1    3    3    0  502  0.10716908526E+03 -0.70403062716E+02 -0.18688245422E+02  0.12958652512E+03  0.12700000000E+01 0. -1.
          2    1    1    2  503    0 -0.48654025560E+02  0.46517791498E+02  0.12527245597E+02  0.68469343588E+02  0.00000000000E+00 0. -1.
         -2    1    1    2    0  501 -0.40559124428E+02  0.14080507019E+02  0.59449220400E+03  0.59604050522E+03  0.00000000000E+00 0.  1.
<mgrwt>
<rscale>  0 0.58537411E+02</rscale>
<asrwt>0</asrwt>
<pdfrwt beam="2">  1        2 0.16323594E-01 0.79812079E+02</pdfrwt>
<pdfrwt beam="1">  1       -2 0.11135803E+00 0.42933708E+02</pdfrwt>
<totfact> 0.23750683E+02</totfact>
</mgrwt>
</event>
<event>
 7    1  0.3113530E-004  0.8097922E+02  0.7546771E-02  0.1441617E+00
          1   -1    0    0  503    0  0.00000000000E+00  0.00000000000E+00  0.63562454956E+03  0.63562454956E+03  0.00000000000E+00 0. -1.
         -3   -1    0    0    0  501 -0.00000000000E+00 -0.00000000000E+00 -0.65108638590E+02  0.65108638590E+02  0.00000000000E+00 0.  1.
         25    2    1    2    0    0  0.61174566795E+02 -0.11184566835E+01  0.13918636251E+03  0.19683050958E+03  0.12500330965E+03 0.  0.
          4    1    3    3  502    0  0.57308903342E+02  0.75838753836E+01  0.16203581826E+03  0.17204372952E+03  0.12700000000E+01 0.  1.
         -4    1    3    3    0  502  0.38656634527E+01 -0.87023320671E+01 -0.22849455750E+02  0.24786780053E+02  0.12700000000E+01 0.  1.
          1    1    1    2  503    0  0.23778551151E+02 -0.21022570312E+02  0.41300106654E+03  0.41421884183E+03  0.00000000000E+00 0. -1.
         -3    1    1    2    0  501 -0.84953117946E+02  0.22141026995E+02  0.18328481917E+02  0.89683836752E+02  0.00000000000E+00 0.  1.
<mgrwt>
<rscale>  0 0.50697183E+02</rscale>
<asrwt>0</asrwt>
<pdfrwt beam="1">  1        1 0.97788388E-01 0.31739060E+02</pdfrwt>
<pdfrwt beam="2">  1       -3 0.10016714E-01 0.80979222E+02</pdfrwt>
<totfact> 0.12653549E+03</totfact>
</mgrwt>
</event>
<event>
 7    1  0.3113530E-004  0.2161765E+03  0.7546771E-02  0.1283794E+00
          1   -1    0    0  503    0 -0.00000000000E+00  0.00000000000E+00  0.12020936099E+04  0.12020936099E+04  0.00000000000E+00 0. -1.
          2   -1    0    0  502    0  0.00000000000E+00 -0.00000000000E+00 -0.94059621731E+03  0.94059621731E+03  0.00000000000E+00 0. -1.
         25    2    1    2    0    0  0.22314235856E+03 -0.11658684392E+02  0.35566682135E+03  0.43823323432E+03  0.12498417000E+03 0.  0.
          4    1    3    3  501    0  0.14999476747E+03  0.28268386878E+02  0.30401005006E+03  0.34017827004E+03  0.12700000000E+01 0. -1.
         -4    1    3    3    0  501  0.73147591080E+02 -0.39927071270E+02  0.51656771293E+02  0.98054964288E+02  0.12700000000E+01 0. -1.
          2    1    1    2  502    0 -0.21368671948E+03 -0.32079719673E+02 -0.88569225422E+03  0.91166983699E+03  0.00000000000E+00 0. -1.
          1    1    1    2  503    0 -0.94556390722E+01  0.43738404065E+02  0.79152282544E+03  0.79278675587E+03  0.00000000000E+00 0. -1.
<mgrwt>
<rscale>  0 0.98354673E+02</rscale>
<asrwt>0</asrwt>
<pdfrwt beam="2">  1        2 0.14470711E+00 0.21617645E+03</pdfrwt>
<pdfrwt beam="1">  1        1 0.18493748E+00 0.44748822E+02</pdfrwt>
<totfact> 0.52192502E+01</totfact>
</mgrwt>
</event>
<event>
 7    1  0.3113530E-004  0.5204366E+02  0.7546771E-02  0.1534581E+00
         -1   -1    0    0    0  501 -0.00000000000E+00  0.00000000000E+00  0.81550010547E+01  0.81550010547E+01  0.00000000000E+00 0.  1.
          2   -1    0    0  503    0  0.00000000000E+00 -0.00000000000E+00 -0.16804821994E+04  0.16804821994E+04  0.00000000000E+00 0. -1.
         25    2    1    2    0    0 -0.16791415295E+02 -0.38698843655E+02 -0.72856695791E+03  0.74041535852E+03  0.12500215542E+03 0.  0.
          4    1    3    3  502    0 -0.21440487017E+02  0.43797818638E+02 -0.23971759148E+03  0.24463049680E+03  0.12700000000E+01 0. -1.
         -4    1    3    3    0  502  0.46490717226E+01 -0.82496662293E+02 -0.48884936643E+03  0.49578486172E+03  0.12700000000E+01 0. -1.
          2    1    1    2  503    0 -0.25546708586E+02 -0.34752166701E+01 -0.47014224870E+03  0.47084864390E+03  0.00000000000E+00 0. -1.
         -1    1    1    2    0  501  0.42338123880E+02  0.42174060326E+02 -0.47361799178E+03  0.47737319807E+03  0.00000000000E+00 0.  1.
<mgrwt>
<rscale>  0 0.36630444E+02</rscale>
<asrwt>0</asrwt>
<pdfrwt beam="2">  1        2 0.25853575E+00 0.25781999E+02</pdfrwt>
<pdfrwt beam="1">  1       -1 0.12546154E-02 0.52043656E+02</pdfrwt>
<totfact> 0.16547075E+04</totfact>
</mgrwt>
</event>
<event>
 7    1  0.3113530E-004  0.1322151E+03  0.7546771E-02  0.1299983E+00
          2   -1    0    0  503    0  0.00000000000E+00  0.00000000000E+00  0.10193765440E+04  0.10193765440E+04  0.00000000000E+00 0. -1.
         -2   -1    0    0    0  501 -0.00000000000E+00 -0.00000000000E+00 -0.49070575292E+03  0.49070575292E+03  0.00000000000E+00 0.  1.
         25    2    1    2    0    0  0.29773560527E+02 -0.18539128390E+03 -0.39177805397E+02  0.22894568232E+03  0.12499932785E+03 0.  0.
          4    1    3    3  502    0  0.70734813555E+01 -0.27815040276E+02 -0.61788054374E+02  0.68140202284E+02  0.12700000000E+01 0. -1.
         -4    1    3    3    0  502  0.22700079172E+02 -0.15757624363E+03  0.22610248977E+02  0.16080548003E+03  0.12700000000E+01 0. -1.
          2    1    1    2  503    0 -0.13917520015E+01  0.62886559362E+02  0.91229132932E+03  0.91445728488E+03  0.00000000000E+00 0. -1.
         -2    1    1    2    0  501 -0.28381808526E+02  0.12250472454E+03 -0.34444273287E+03  0.36667932969E+03  0.00000000000E+00 0.  1.
<mgrwt>
<rscale>  0 0.91195334E+02</rscale>
<asrwt>0</asrwt>
<pdfrwt beam="1">  1        2 0.15682716E+00 0.62901958E+02</pdfrwt>
<pdfrwt beam="2">  1       -2 0.75493193E-01 0.13221510E+03</pdfrwt>
<totfact> 0.45857256E+01</totfact>
</mgrwt>
</event>
<event>
 7    1  0.3113530E-004  0.7164298E+02  0.7546771E-02  0.1440991E+00
         -1   -1    0    0    0  501 -0.00000000000E+00  0.00000000000E+00  0.23075699778E+02  0.23075699778E+02  0.00000000000E+00 0.  1.
          1   -1    0    0  503    0  0.00000000000E+00 -0.00000000000E+00 -0.18360773442E+04  0.18360773442E+04  0.00000000000E+00 0. -1.
         25    2    1    2    0    0  0.25009774883E+02  0.32525653619E+02 -0.73373729409E+03  0.74543856952E+03  0.12499934879E+03 0.  0.
          4    1    3    3  502    0  0.53866444879E+02 -0.25501008148E+02 -0.47408595352E+03  0.47781900290E+03  0.12700000000E+01 0. -1.
         -4    1    3    3    0  502 -0.28856669995E+02  0.58026661768E+02 -0.25965134057E+03  0.26761956662E+03  0.12700000000E+01 0. -1.
          1    1    1    2  503    0  0.32096478212E+02  0.16398666242E+02 -0.10125409856E+04  0.10131822875E+04  0.00000000000E+00 0. -1.
         -1    1    1    2    0  501 -0.57106253096E+02 -0.48924319862E+02 -0.66723364742E+02  0.10053218698E+03  0.00000000000E+00 0.  1.
<mgrwt>
<rscale>  0 0.50815649E+02</rscale>
<asrwt>0</asrwt>
<pdfrwt beam="2">  1        1 0.28247347E+00 0.36043032E+02</pdfrwt>
<pdfrwt beam="1">  1       -1 0.35501072E-02 0.71642979E+02</pdfrwt>
<totfact> 0.13987467E+03</totfact>
</mgrwt>
</event>
<event>
 7    1  0.3113530E-004  0.1128209E+03  0.7546771E-02  0.1356905E+00
          2   -1    0    0  503    0  0.00000000000E+00  0.00000000000E+00  0.34872979940E+04  0.34872979940E+04  0.00000000000E+00 0. -1.
         -1   -1    0    0    0  501 -0.00000000000E+00 -0.00000000000E+00 -0.59756608091E+02  0.59756608091E+02  0.00000000000E+00 0.  1.
         25    2    1    2    0    0  0.79301975514E+02 -0.69513956592E+02  0.25677396787E+04  0.25729425137E+04  0.12500051199E+03 0.  0.
          4    1    3    3  502    0 -0.29451338406E+02 -0.26018303445E+02  0.10289615965E+04  0.10297125392E+04  0.12700000000E+01 0.  1.
         -4    1    3    3    0  502  0.10875331392E+03 -0.43495653146E+02  0.15387780822E+04  0.15432299745E+04  0.12700000000E+01 0.  1.
          2    1    1    2  503    0 -0.30478528241E+02 -0.32579643530E+02  0.85978811105E+03  0.86094481226E+03  0.00000000000E+00 0. -1.
         -1    1    1    2    0  501 -0.48823447273E+02  0.10209360012E+03  0.13596151990E-01  0.11316727607E+03  0.00000000000E+00 0.  1.
<mgrwt>
<rscale>  0 0.70946095E+02</rscale>
<asrwt>0</asrwt>
<pdfrwt beam="1">  1        2 0.53650723E+00 0.44613606E+02</pdfrwt>
<pdfrwt beam="2">  1       -1 0.91933270E-02 0.11282093E+03</pdfrwt>
<totfact> 0.10884533E+02</totfact>
</mgrwt>
</event>
<event>
 7    1  0.3113530E-004  0.6192744E+02  0.7546771E-02  0.1486863E+00
          2   -1    0    0  502    0  0.00000000000E+00  0.00000000000E+00  0.10771331930E+04  0.10771331930E+04  0.00000000000E+00 0. -1.
          1   -1    0    0  503    0 -0.00000000000E+00 -0.00000000000E+00 -0.12618873640E+04  0.12618873640E+04  0.00000000000E+00 0. -1.
         25    2    1    2    0    0  0.24139027464E+02 -0.70046158259E+02  0.25138344897E+03  0.29035736833E+03  0.12499842397E+03 0.  0.
          4    1    3    3  501    0  0.63066186147E+01  0.33842746137E+02  0.32259587172E+02  0.47195325711E+02  0.12700000000E+01 0.  1.
         -4    1    3    3    0  501  0.17832408849E+02 -0.10388890440E+03  0.21912386180E+03  0.24316204262E+03  0.12700000000E+01 0.  1.
          2    1    1    2  502    0 -0.28757532387E+02  0.83087217131E+01  0.80521325374E+03  0.80576945495E+03  0.00000000000E+00 0. -1.
          1    1    1    2  503    0  0.46185049229E+01  0.61737436546E+02 -0.12413508737E+04  0.12428937337E+04  0.00000000000E+00 0. -1.
<mgrwt>
<rscale>  0 0.43054869E+02</rscale>
<asrwt>0</asrwt>
<pdfrwt beam="1">  1        2 0.16571280E+00 0.29933769E+02</pdfrwt>
<pdfrwt beam="2">  1        1 0.19413652E+00 0.61927441E+02</pdfrwt>
<totfact> 0.42889431E+01</totfact>
</mgrwt>
</event>
<event>
 7    1  0.3113530E-004  0.6685265E+02  0.7546771E-02  0.1432676E+00
          1   -1    0    0  503    0  0.00000000000E+00  0.00000000000E+00  0.69737717363E+03  0.69737717363E+03  0.00000000000E+00 0. -1.
         -2   -1    0    0    0  501 -0.00000000000E+00 -0.00000000000E+00 -0.31607678852E+02  0.31607678852E+02  0.00000000000E+00 0.  1.
         25    2    1    2    0    0  0.91641002933E+02  0.36431436194E+02  0.26813246274E+03  0.31184151407E+03  0.12499915745E+03 0.  0.
          4    1    3    3  502    0  0.48067948418E+02 -0.36221172120E+02  0.51477931776E+02  0.79209161937E+02  0.12700000000E+01 0. -1.
         -4    1    3    3    0  502  0.43573054515E+02  0.72652608314E+02  0.21665453096E+03  0.23263235213E+03  0.12700000000E+01 0. -1.
          1    1    1    2  503    0 -0.50546407365E+02 -0.37681747569E+02  0.34310469506E+03  0.34884908653E+03  0.00000000000E+00 0. -1.
         -2    1    1    2    0  501 -0.41094595568E+02  0.12503113753E+01  0.54532336977E+02  0.68294251879E+02  0.00000000000E+00 0.  1.
<mgrwt>
<rscale>  0 0.52426651E+02</rscale>
<asrwt>0</asrwt>
<pdfrwt beam="1">  1        1 0.10728878E+00 0.66852646E+02</pdfrwt>
<pdfrwt beam="2">  1       -2 0.48627204E-02 0.41113612E+02</pdfrwt>
<totfact> 0.44846209E+03</totfact>
</mgrwt>
</event>
<event>
 7    1  0.3113530E-004  0.1534640E+03  0.7546771E-02  0.1320113E+00
          1   -1    0    0  503    0  0.00000000000E+00  0.00000000000E+00  0.19061074322E+03  0.19061074322E+03  0.00000000000E+00 0. -1.
          1   -1    0    0  502    0 -0.00000000000E+00 -0.00000000000E+00 -0.10442907669E+04  0.10442907669E+04  0.00000000000E+00 0. -1.
         25    2    1    2    0    0  0.10729226207E+03 -0.52323595437E+02 -0.37481511799E+03  0.41275206525E+03  0.12501402542E+03 0.  0.
          4    1    3    3  501    0  0.21723294184E+02  0.35635023311E+02 -0.15995434393E+03  0.16531412958E+03  0.12700000000E+01 0. -1.
         -4    1    3    3    0  501  0.85568967888E+02 -0.87958618748E+02 -0.21486077407E+03  0.24743793567E+03  0.12700000000E+01 0. -1.
          1    1    1    2  502    0  0.43846240743E+02  0.10749932223E+02 -0.61371596429E+03  0.61537414529E+03  0.00000000000E+00 0. -1.
          1    1    1    2  503    0 -0.15113850281E+03  0.41573663215E+02  0.13485105860E+03  0.20677529957E+03  0.00000000000E+00 0. -1.
<mgrwt>
<rscale>  0 0.83235215E+02</rscale>
<asrwt>0</asrwt>
<pdfrwt beam="1">  1        1 0.29324730E-01 0.15346395E+03</pdfrwt>
<pdfrwt beam="2">  1        1 0.16066012E+00 0.45144810E+02</pdfrwt>
<totfact> 0.30975054E+02</totfact>
</mgrwt>
</event>
<event>
 7    1  0.3113530E-004  0.7482998E+02  0.7546771E-02  0.1371138E+00
          1   -1    0    0  503    0 -0.00000000000E+00  0.00000000000E+00  0.17161550848E+03  0.17161550848E+03  0.00000000000E+00 0. -1.
          2   -1    0    0  502    0  0.00000000000E+00 -0.00000000000E+00 -0.41987013965E+03  0.41987013965E+03  0.00000000000E+00 0. -1.
         25    2    1    2    0    0  0.77317589508E+02  0.78419565188E+00  0.68664562754E+02  0.16222562025E+03  0.12499482021E+03 0.  0.
          4    1    3    3  501    0 -0.15427507616E+02  0.13958044481E+02 -0.23080969127E+02  0.31099502131E+02  0.12700000000E+01 0.  1.
         -4    1    3    3    0  501  0.92745097124E+02 -0.13173848829E+02  0.91745531882E+02  0.13112611812E+03  0.12700000000E+01 0.  1.
          2    1    1    2  502    0 -0.18443788525E+02  0.56805266959E+02 -0.33881774290E+03  0.34404138500E+03  0.00000000000E+00 0. -1.
          1    1    1    2  503    0 -0.58873800983E+02 -0.57589462611E+02  0.21898548982E+02  0.85218642876E+02  0.00000000000E+00 0. -1.
<mgrwt>
<rscale>  0 0.66851929E+02</rscale>
<asrwt>0</asrwt>
<pdfrwt beam="2">  1        2 0.64595406E-01 0.59724465E+02</pdfrwt>
<pdfrwt beam="1">  1        1 0.26402386E-01 0.74829978E+02</pdfrwt>
<totfact> 0.17998919E+03</totfact>
</mgrwt>
</event>
<event>
 7    1  0.3113530E-004  0.1072211E+03  0.7546771E-02  0.1381669E+00
          2   -1    0    0  502    0  0.00000000000E+00  0.00000000000E+00  0.10508636041E+04  0.10508636041E+04  0.00000000000E+00 0. -1.
          1   -1    0    0  503    0 -0.00000000000E+00 -0.00000000000E+00 -0.71141261630E+03  0.71141261630E+03  0.00000000000E+00 0. -1.
         25    2    1    2    0    0  0.95626415894E+02 -0.75500419427E+02  0.89219402143E+03  0.90910969219E+03  0.12500214321E+03 0.  0.
          4    1    3    3  501    0 -0.13439181371E+02 -0.62689606389E+02  0.36630874343E+03  0.37187942503E+03  0.12700000000E+01 0.  1.
         -4    1    3    3    0  501  0.10906559727E+03 -0.12810813038E+02  0.52588527799E+03  0.53723026716E+03  0.12700000000E+01 0.  1.
          2    1    1    2  502    0 -0.35798134045E+02 -0.13428321182E+02  0.14361042365E+03  0.14861285271E+03  0.00000000000E+00 0. -1.
          1    1    1    2  503    0 -0.59828281848E+02  0.88928740610E+02 -0.69635345727E+03  0.70455367551E+03  0.00000000000E+00 0. -1.
<mgrwt>
<rscale>  0 0.64027132E+02</rscale>
<asrwt>0</asrwt>
<pdfrwt beam="1">  1        2 0.16167132E+00 0.38233836E+02</pdfrwt>
<pdfrwt beam="2">  1        1 0.10944809E+00 0.10722109E+03</pdfrwt>
<totfact> 0.10686268E+02</totfact>
</mgrwt>
</event>
<event>
 7    1  0.3113530E-004  0.1071631E+03  0.7546771E-02  0.1416360E+00
         -2   -1    0    0    0  501 -0.00000000000E+00  0.00000000000E+00  0.33438577428E+02  0.33438577428E+02  0.00000000000E+00 0.  1.
          2   -1    0    0  503    0  0.00000000000E+00 -0.00000000000E+00 -0.16868729856E+04  0.16868729856E+04  0.00000000000E+00 0. -1.
         25    2    1    2    0    0 -0.88513969135E+02  0.72073590978E+02 -0.21071645011E+03  0.27028095678E+03  0.12498419101E+03 0.  0.
          4    1    3    3  502    0 -0.64911049252E+02  0.10499148959E+03 -0.18459475819E+03  0.22206641992E+03  0.12700000000E+01 0. -1.
         -4    1    3    3    0  502 -0.23602919883E+02 -0.32917898617E+02 -0.26121691915E+02  0.48214536862E+02  0.12700000000E+01 0. -1.
          2    1    1    2  503    0  0.28789680398E+02 -0.39080358801E+01 -0.84327811324E+03  0.84377846305E+03  0.00000000000E+00 0. -1.
         -2    1    1    2    0  501  0.59724288737E+02 -0.68165555097E+02 -0.59943984484E+03  0.60625214321E+03  0.00000000000E+00 0.  1.
<mgrwt>
<rscale>  0 0.55798612E+02</rscale>
<asrwt>0</asrwt>
<pdfrwt beam="2">  1        2 0.25951889E+00 0.29053716E+02</pdfrwt>
<pdfrwt beam="1">  1       -2 0.51443971E-02 0.10716306E+03</pdfrwt>
<totfact> 0.23228103E+03</totfact>
</mgrwt>
</event>
<event>
 7    1  0.3113530E-004  0.6667492E+02  0.7546771E-02  0.1395327E+00
          1   -1    0    0  503    0  0.00000000000E+00  0.00000000000E+00  0.15864152374E+04  0.15864152374E+04  0.00000000000E+00 0. -1.
         -2   -1    0    0    0  501 -0.00000000000E+00 -0.00000000000E+00 -0.11990120309E+02  0.11990120309E+02  0.00000000000E+00 0.  1.
         25    2    1    2    0    0  0.60991372058E+02 -0.70670640984E+02  0.85286824436E+03  0.86702234003E+03  0.12501683452E+03 0.  0.
          4    1    3    3  502    0  0.62358825891E+02 -0.66322617911E+02  0.85633213847E+03  0.86115832289E+03  0.12700000000E+01 0.  1.
         -4    1    3    3    0  502 -0.13674538327E+01 -0.43480230729E+01 -0.34638941080E+01  0.58640171400E+01  0.12700000000E+01 0.  1.
          1    1    1    2  503    0 -0.56364882068E+02  0.15784884858E+02  0.25751181740E+03  0.26408047755E+03  0.00000000000E+00 0. -1.
         -2    1    1    2    0  501 -0.46264899905E+01  0.54885756126E+02  0.46404505532E+03  0.46730254012E+03  0.00000000000E+00 0.  1.
<mgrwt>
<rscale>  0 0.60601000E+02</rscale>
<asrwt>0</asrwt>
<pdfrwt beam="1">  1        1 0.24406372E+00 0.66674917E+02</pdfrwt>
<pdfrwt beam="2">  1       -2 0.18446351E-02 0.55080402E+02</pdfrwt>
<totfact> 0.44819178E+03</totfact>
</mgrwt>
</event>
<event>
 7    1  0.3113530E-004  0.5208545E+02  0.7546771E-02  0.1514357E+00
          1   -1    0    0  503    0  0.00000000000E+00  0.00000000000E+00  0.11157781689E+03  0.11157781689E+03  0.00000000000E+00 0. -1.
         -3   -1    0    0    0  501 -0.00000000000E+00 -0.00000000000E+00 -0.10388233020E+04  0.10388233020E+04  0.00000000000E+00 0.  1.
         25    2    1    2    0    0  0.49479674111E+01  0.24474316680E+02 -0.11538165033E+03  0.17193411439E+03  0.12499975960E+03 0.  0.
          4    1    3    3  502    0  0.57137554194E+02  0.42736453436E+02 -0.55378808740E+02  0.90330116290E+02  0.12700000000E+01 0.  1.
         -4    1    3    3    0  502 -0.52189586782E+02 -0.18262136756E+02 -0.60002841586E+02  0.81603998100E+02  0.12700000000E+01 0.  1.
          1    1    1    2  503    0  0.18617044032E+02  0.22841664476E+02  0.79888234102E+02  0.85149667718E+02  0.00000000000E+00 0. -1.
         -3    1    1    2    0  501 -0.23565011443E+02 -0.47315981156E+02 -0.89175206886E+03  0.89331733676E+03  0.00000000000E+00 0.  1.
<mgrwt>
<rscale>  0 0.39176907E+02</rscale>
<asrwt>0</asrwt>
<pdfrwt beam="1">  1        1 0.17165818E-01 0.29467541E+02</pdfrwt>
<pdfrwt beam="2">  1       -3 0.15981897E+00 0.52085448E+02</pdfrwt>
<totfact> 0.45188439E+01</totfact>
</mgrwt>
</event>
<event>
 7    1  0.3113530E-004  0.6836016E+02  0.7546771E-02  0.1507706E+00
          2   -1    0    0  503    0  0.00000000000E+00  0.00000000000E+00  0.51426056949E+03  0.51426056949E+03  0.00000000000E+00 0. -1.
          2   -1    0    0  502    0 -0.00000000000E+00 -0.00000000000E+00 -0.12717670349E+04  0.12717670349E+04  0.00000000000E+00 0. -1.
         25    2    1    2    0    0  0.44544538144E+02 -0.27378936987E+02 -0.95701984586E+03  0.96656426098E+03  0.12500265264E+03 0.  0.
          4    1    3    3  501    0 -0.19125009208E+01  0.18961717537E+02 -0.72995513424E+03  0.73020498170E+03  0.12700000000E+01 0. -1.
         -4    1    3    3    0  501  0.46457039065E+02 -0.46340654524E+02 -0.22706471162E+03  0.23635927928E+03  0.12700000000E+01 0. -1.
          2    1    1    2  502    0  0.21480359529E+02  0.94967665252E+01 -0.30722880746E+03  0.30812519298E+03  0.00000000000E+00 0. -1.
          2    1    1    2  503    0 -0.66024897673E+02  0.17882170462E+02  0.50674218788E+03  0.51133815046E+03  0.00000000000E+00 0. -1.
<mgrwt>
<rscale>  0 0.40068814E+02</rscale>
<asrwt>0</asrwt>
<pdfrwt beam="1">  1        2 0.79117010E-01 0.68360156E+02</pdfrwt>
<pdfrwt beam="2">  1        2 0.19565647E+00 0.23486047E+02</pdfrwt>
<totfact> 0.20734755E+02</totfact>
</mgrwt>
</event>
<event>
 7    1  0.3113530E-004  0.1666582E+03  0.7546771E-02  0.1350092E+00
          2   -1    0    0  502    0  0.00000000000E+00  0.00000000000E+00  0.92609134966E+03  0.92609134966E+03  0.00000000000E+00 0. -1.
          1   -1    0    0  503    0 -0.00000000000E+00 -0.00000000000E+00 -0.69457618504E+03  0.69457618504E+03  0.00000000000E+00 0. -1.
         25    2    1    2    0    0 -0.90199269608E+02 -0.12096452788E+03  0.33716476662E+03  0.38996651015E+03  0.12500189577E+03 0.  0.
          4    1    3    3  501    0  0.87067994932E+01 -0.64395740131E+02  0.20704393345E+03  0.21700558284E+03  0.12700000000E+01 0.  1.
         -4    1    3    3    0  501 -0.98906069101E+02 -0.56568787745E+02  0.13012083317E+03  0.17296092731E+03  0.12700000000E+01 0.  1.
          2    1    1    2  502    0  0.14925055071E+02 -0.28305297882E+02  0.55159803743E+03  0.55252542209E+03  0.00000000000E+00 0. -1.
          1    1    1    2  503    0  0.75274214536E+02  0.14926982576E+03 -0.65724763943E+03  0.67817560247E+03  0.00000000000E+00 0. -1.
<mgrwt>
<rscale>  0 0.73026869E+02</rscale>
<asrwt>0</asrwt>
<pdfrwt beam="1">  1        2 0.14247559E+00 0.31999174E+02</pdfrwt>
<pdfrwt beam="2">  1        1 0.10685787E+00 0.16665816E+03</pdfrwt>
<totfact> 0.12879490E+02</totfact>
</mgrwt>
</event>
<event>
 7    1  0.3113530E-004  0.5338580E+02  0.7546771E-02  0.1494610E+00
         -1   -1    0    0    0  501 -0.00000000000E+00  0.00000000000E+00  0.12015086468E+03  0.12015086468E+03  0.00000000000E+00 0.  1.
          2   -1    0    0  503    0  0.00000000000E+00 -0.00000000000E+00 -0.14010540749E+03  0.14010540749E+03  0.00000000000E+00 0. -1.
         25    2    1    2    0    0  0.41437798810E+02 -0.14201416170E+00 -0.77324529564E+02  0.15271193397E+03  0.12499896226E+03 0.  0.
          4    1    3    3  502    0 -0.40301483669E+01 -0.51725250739E+02 -0.64443781110E+02  0.82742718614E+02  0.12700000000E+01 0.  1.
         -4    1    3    3    0  502  0.45467947177E+02  0.51583236578E+02 -0.12880748453E+02  0.69969215353E+02  0.12700000000E+01 0.  1.
          2    1    1    2  503    0  0.35352876960E+01  0.32710100539E+02  0.95355892902E+01  0.34254582168E+02  0.00000000000E+00 0. -1.
         -1    1    1    2    0  501 -0.44973086506E+02 -0.32568086377E+02  0.47834397457E+02  0.73289756039E+02  0.00000000000E+00 0.  1.
<mgrwt>
<rscale>  0 0.41909717E+02</rscale>
<asrwt>0</asrwt>
<pdfrwt beam="2">  1        2 0.21554678E-01 0.32900592E+02</pdfrwt>
<pdfrwt beam="1">  1       -1 0.18484748E-01 0.53385798E+02</pdfrwt>
<totfact> 0.57638924E+03</totfact>
</mgrwt>
</event>
<event>
 7    1  0.3113530E-004  0.4193499E+02  0.7546771E-02  0.1604928E+00
          2   -1    0    0  503    0  0.00000000000E+00  0.00000000000E+00  0.10718816364E+04  0.10718816364E+04  0.00000000000E+00 0. -1.
         -1   -1    0    0    0  501 -0.00000000000E+00 -0.00000000000E+00 -0.16331037865E+02  0.16331037865E+02  0.00000000000E+00 0.  1.
         25    2    1    2    0    0  0.14759615918E+02  0.31859653953E+02  0.27960727571E+03  0.30828152391E+03  0.12499754214E+03 0.  0.
          4    1    3    3  502    0 -0.17781074780E+02  0.56197801860E+02  0.57047557446E+02  0.82038992343E+02  0.12700000000E+01 0. -1.
         -4    1    3    3    0  502  0.32540690698E+02 -0.24338147907E+02  0.22255971827E+03  0.22624253157E+03  0.12700000000E+01 0. -1.
          2    1    1    2  503    0 -0.66000759830E+01  0.19512192933E+02  0.38389752298E+03  0.38444972991E+03  0.00000000000E+00 0. -1.
         -1    1    1    2    0  501 -0.81595399352E+01 -0.51371846886E+02  0.39204579983E+03  0.39548142043E+03  0.00000000000E+00 0.  1.
<mgrwt>
<rscale>  0 0.29390239E+02</rscale>
<asrwt>0</asrwt>
<pdfrwt beam="1">  1        2 0.16490481E+00 0.20598220E+02</pdfrwt>
<pdfrwt beam="2">  1       -1 0.25124682E-02 0.41934990E+02</pdfrwt>
<totfact> 0.12195579E+04</totfact>
</mgrwt>
</event>
<event>
 7    1  0.3113530E-004  0.9303806E+02  0.7546771E-02  0.1345918E+00
          2   -1    0    0  502    0  0.00000000000E+00  0.00000000000E+00  0.32093751513E+03  0.32093751513E+03  0.00000000000E+00 0.  1.
          1   -1    0    0  503    0 -0.00000000000E+00 -0.00000000000E+00 -0.76864972929E+03  0.76864972929E+03  0.00000000000E+00 0. -1.
         25    2    1    2    0    0  0.78458914862E+02  0.44975783587E+02  0.17358856975E+02  0.15525411505E+03  0.12499555149E+03 0.  0.
          4    1    3    3  501    0  0.54233207730E+01  0.73425316896E+02 -0.47960395453E+01  0.73792306271E+02  0.12700000000E+01 0.  1.
         -4    1    3    3    0  501  0.73035594089E+02 -0.28449533309E+02  0.22154896520E+02  0.81461808777E+02  0.12700000000E+01 0.  1.
          2    1    1    2  502    0  0.14485021524E+02 -0.57611559243E+02  0.22765884083E+03  0.23528165125E+03  0.00000000000E+00 0.  1.
          1    1    1    2  503    0 -0.92943936385E+02  0.12635775656E+02 -0.69272991196E+03  0.69905147812E+03  0.00000000000E+00 0. -1.
<mgrwt>
<rscale>  0 0.74343052E+02</rscale>
<asrwt>0</asrwt>
<pdfrwt beam="1">  1        2 0.49375003E-01 0.59404609E+02</pdfrwt>
<pdfrwt beam="2">  1        1 0.11825380E+00 0.93038056E+02</pdfrwt>
<totfact> 0.35534464E+02</totfact>
</mgrwt>
</event>
<event>
 7    1  0.3113530E-004  0.1581024E+03  0.7546771E-02  0.1250209E+00
          2   -1    0    0  502    0  0.00000000000E+00  0.00000000000E+00  0.49954458961E+03  0.49954458961E+03  0.00000000000E+00 0. -1.
          1   -1    0    0  503    0 -0.00000000000E+00 -0.00000000000E+00 -0.19666462345E+04  0.19666462345E+04  0.00000000000E+00 0. -1.
         25    2    1    2    0    0 -0.36112407222E+02  0.10961935339E+03 -0.26343625534E+02  0.17214775438E+03  0.12498141517E+03 0.  0.
          4    1    3    3  501    0 -0.28101009351E+02  0.92546891141E+02  0.38873652352E+02  0.10424666677E+03  0.12700000000E+01 0. -1.
         -4    1    3    3    0  501 -0.80113978710E+01  0.17072462248E+02 -0.65217277886E+02  0.67901087605E+02  0.12700000000E+01 0. -1.
          2    1    1    2  502    0  0.12069677833E+03 -0.11567300400E+03  0.40925721528E+03  0.44208531350E+03  0.00000000000E+00 0. -1.
          1    1    1    2  503    0 -0.84584371107E+02  0.60536506126E+01 -0.18500152347E+04  0.18519577563E+04  0.00000000000E+00 0. -1.
<mgrwt>
<rscale>  0 0.11578945E+03</rscale>
<asrwt>0</asrwt>
<pdfrwt beam="1">  1        2 0.76853014E-01 0.15810238E+03</pdfrwt>
<pdfrwt beam="2">  1        1 0.30256096E+00 0.84800722E+02</pdfrwt>
<totfact> 0.34983733E+01</totfact>
</mgrwt>
</event>
<event>
 7    1  0.3113530E-004  0.7850867E+02  0.7546771E-02  0.1435246E+00
          2   -1    0    0  503    0  0.00000000000E+00  0.00000000000E+00  0.99990805707E+03  0.99990805707E+03  0.00000000000E+00 0. -1.
         -1   -1    0    0    0  501 -0.00000000000E+00 -0.00000000000E+00 -0.20865109617E+03  0.20865109617E+03  0.00000000000E+00 0. -1.
         25    2    1    2    0    0 -0.59891117638E+01  0.64069752641E+02  0.42530723976E+02  0.14688422846E+03  0.12500124570E+03 0.  0.
          4    1    3    3  502    0  0.42733954770E+02  0.14353114022E+02 -0.23565956867E+02  0.50883887386E+02  0.12700000000E+01 0. -1.
         -4    1    3    3    0  502 -0.48723066534E+02  0.49716638619E+02  0.66096680844E+02  0.96000341075E+02  0.12700000000E+01 0. -1.
          2    1    1    2  503    0 -0.26715914248E+02 -0.74532403384E+02  0.90156064079E+03  0.90503061178E+03  0.00000000000E+00 0. -1.
         -1    1    1    2    0  501  0.32705026012E+02  0.10462650743E+02 -0.15283440387E+03  0.15664431299E+03  0.00000000000E+00 0. -1.
<mgrwt>
<rscale>  0 0.51921253E+02</rscale>
<asrwt>0</asrwt>
<pdfrwt beam="1">  1        2 0.15383201E+00 0.78508670E+02</pdfrwt>
<pdfrwt beam="2">  1       -1 0.32100169E-01 0.34337819E+02</pdfrwt>
<totfact> 0.28220191E+02</totfact>
</mgrwt>
</event>
<event>
 7    1  0.3113530E-004  0.4254066E+02  0.7546771E-02  0.1549390E+00
          1   -1    0    0  503    0  0.00000000000E+00  0.00000000000E+00  0.16034097069E+03  0.16034097069E+03  0.00000000000E+00 0. -1.
         -2   -1    0    0    0  501 -0.00000000000E+00 -0.00000000000E+00 -0.99871321130E+02  0.99871321130E+02  0.00000000000E+00 0.  1.
         25    2    1    2    0    0 -0.91556661760E+01  0.26877971041E+02 -0.29464688440E+02  0.13153114957E+03  0.12500409550E+03 0.  0.
          4    1    3    3  502    0  0.50434223296E-01 -0.49248042199E+02  0.30312798799E+00  0.49265373140E+02  0.12700000000E+01 0.  1.
         -4    1    3    3    0  502 -0.92061003993E+01  0.76126013240E+02 -0.29767816428E+02  0.82265776428E+02  0.12700000000E+01 0.  1.
          1    1    1    2  503    0 -0.29455611990E+01  0.28498404657E+02  0.55227104327E+02  0.62216303740E+02  0.00000000000E+00 0. -1.
         -2    1    1    2    0  501  0.12101227375E+02 -0.55376375698E+02  0.34707233674E+02  0.66464838514E+02  0.00000000000E+00 0.  1.
<mgrwt>
<rscale>  0 0.34911309E+02</rscale>
<asrwt>0</asrwt>
<pdfrwt beam="1">  1        1 0.24667842E-01 0.28650225E+02</pdfrwt>
<pdfrwt beam="2">  1       -2 0.15364819E-01 0.42540661E+02</pdfrwt>
<totfact> 0.47866309E+03</totfact>
</mgrwt>
</event>
<event>
 7    1  0.3113530E-004  0.9835008E+02  0.7546771E-02  0.1370803E+00
         -1   -1    0    0    0  501 -0.00000000000E+00  0.00000000000E+00  0.18733708807E+03  0.18733708807E+03  0.00000000000E+00 0.  1.
          2   -1    0    0  503    0  0.00000000000E+00 -0.00000000000E+00 -0.90817903464E+03  0.90817903464E+03  0.00000000000E+00 0. -1.
         25    2    1    2    0    0 -0.76720307277E+02 -0.56118351866E+02 -0.70002923501E+02  0.17192956925E+03  0.12499637002E+03 0.  0.
          4    1    3    3  502    0 -0.64465111733E+02 -0.79419625916E+01  0.20959406603E+02  0.68262251836E+02  0.12700000000E+01 0. -1.
         -4    1    3    3    0  502 -0.12255195544E+02 -0.48176389274E+02 -0.90962330103E+02  0.10366731741E+03  0.12700000000E+01 0. -1.
          2    1    1    2  503    0  0.97896515322E+02  0.15770265328E+02 -0.78017860932E+03  0.78645476121E+03  0.00000000000E+00 0. -1.
         -1    1    1    2    0  501 -0.21176208045E+02  0.40348086538E+02  0.12933958626E+03  0.13713179226E+03  0.00000000000E+00 0.  1.
<mgrwt>
<rscale>  0 0.66944532E+02</rscale>
<asrwt>0</asrwt>
<pdfrwt beam="2">  1        2 0.13971985E+00 0.98350081E+02</pdfrwt>
<pdfrwt beam="1">  1       -1 0.28821091E-01 0.45567531E+02</pdfrwt>
<totfact> 0.38052278E+02</totfact>
</mgrwt>
</event>
<event>
 7    1  0.3113530E-004  0.1893263E+03  0.7546771E-02  0.1219670E+00
          1   -1    0    0  503    0 -0.00000000000E+00  0.00000000000E+00  0.11800917245E+04  0.11800917245E+04  0.00000000000E+00 0. -1.
          2   -1    0    0  502    0  0.00000000000E+00 -0.00000000000E+00 -0.21394622129E+03  0.21394622129E+03  0.00000000000E+00 0. -1.
         25    2    1    2    0    0 -0.96009051082E+02  0.11249604494E+03  0.82118672746E+02  0.21033958236E+03  0.12500466182E+03 0.  0.
          4    1    3    3  501    0  0.26362651023E+02  0.15617176806E+02  0.36609321681E+02  0.47757103286E+02  0.12700000000E+01 0.  1.
         -4    1    3    3    0  501 -0.12237170210E+03  0.96878868136E+02  0.45509351064E+02  0.16258247907E+03  0.12700000000E+01 0.  1.
          2    1    1    2  502    0  0.19193227061E+03 -0.99351977044E+02 -0.68149421020E+02  0.22661234615E+03  0.00000000000E+00 0. -1.
          1    1    1    2  503    0 -0.95923219528E+02 -0.13144067898E+02  0.95217625152E+03  0.95708601731E+03  0.00000000000E+00 0. -1.
<mgrwt>
<rscale>  0 0.13539017E+03</rscale>
<asrwt>0</asrwt>
<pdfrwt beam="2">  1        2 0.32914804E-01 0.18932635E+03</pdfrwt>
<pdfrwt beam="1">  1        1 0.18155257E+00 0.96819577E+02</pdfrwt>
<totfact> 0.27402287E+02</totfact>
</mgrwt>
</event>
<event>
 7    1  0.3113530E-004  0.4284390E+02  0.7546771E-02  0.1493426E+00
         -1   -1    0    0    0  501  0.00000000000E+00  0.00000000000E+00  0.38702866553E+03  0.38702866553E+03  0.00000000000E+00 0.  1.
         -1   -1    0    0    0  502 -0.00000000000E+00 -0.00000000000E+00 -0.18414839959E+04  0.18414839959E+04  0.00000000000E+00 0.  1.
         25    2    1    2    0    0 -0.41739493768E+02 -0.46557806801E+02 -0.12005761660E+04  0.12086847638E+04  0.12500365175E+03 0.  0.
          4    1    3    3  503    0 -0.30560574892E+02  0.38988020265E+02 -0.30962479792E+03  0.31356521307E+03  0.12700000000E+01 0. -1.
         -4    1    3    3    0  503 -0.11178918876E+02 -0.85545827066E+02 -0.89095136812E+03  0.89511955068E+03  0.12700000000E+01 0. -1.
         -1    1    1    2    0  502  0.41165790577E+02  0.37220174366E+01 -0.63498147498E+03  0.63632534862E+03  0.00000000000E+00 0.  1.
         -1    1    1    2    0  501  0.57370319145E+00  0.42835789364E+02  0.38110231063E+03  0.38350254908E+03  0.00000000000E+00 0.  1.
<mgrwt>
<rscale>  0 0.42082034E+02</rscale>
<asrwt>0</asrwt>
<pdfrwt beam="1">  1       -1 0.59542872E-01 0.42843903E+02</pdfrwt>
<pdfrwt beam="2">  1       -1 0.28330523E+00 0.41333712E+02</pdfrwt>
<totfact> 0.15923029E+00</totfact>
</mgrwt>
</event>
<event>
 7    1  0.3113530E-004  0.4330651E+02  0.7546771E-02  0.1515447E+00
         -2   -1    0    0    0  501 -0.00000000000E+00  0.00000000000E+00  0.77576971061E+03  0.77576971061E+03  0.00000000000E+00 0.  1.
          2   -1    0    0  503    0  0.00000000000E+00 -0.00000000000E+00 -0.39258719991E+03  0.39258719991E+03  0.00000000000E+00 0. -1.
         25    2    1    2    0    0  0.44322241724E+02  0.53442421123E+02 -0.14385163411E+03  0.20282738544E+03  0.12500040865E+03 0.  0.
          4    1    3    3  502    0 -0.40820389709E+02 -0.27505415774E+01 -0.39220743669E+02  0.56689940280E+02  0.12700000000E+01 0. -1.
         -4    1    3    3    0  502  0.85142631433E+02  0.56192962700E+02 -0.10463089044E+03  0.14613744516E+03  0.12700000000E+01 0. -1.
          2    1    1    2  503    0 -0.33191979450E+02 -0.11664726962E+02 -0.21720487239E+03  0.22003574697E+03  0.00000000000E+00 0. -1.
         -2    1    1    2    0  501 -0.11130262274E+02 -0.41777694161E+02  0.74423901720E+03  0.74549377811E+03  0.00000000000E+00 0.  1.
<mgrwt>
<rscale>  0 0.39033446E+02</rscale>
<asrwt>0</asrwt>
<pdfrwt beam="2">  1        2 0.60398031E-01 0.35182003E+02</pdfrwt>
<pdfrwt beam="1">  1       -2 0.11934919E+00 0.43306513E+02</pdfrwt>
<totfact> 0.49788377E+01</totfact>
</mgrwt>
</event>
<event>
 7    1  0.3113530E-004  0.1134495E+03  0.7546771E-02  0.1316338E+00
         -3   -1    0    0    0  501 -0.00000000000E+00  0.00000000000E+00  0.93622488536E+02  0.93622488536E+02  0.00000000000E+00 0.  1.
          3   -1    0    0  503    0  0.00000000000E+00 -0.00000000000E+00 -0.50529236373E+03  0.50529236373E+03  0.00000000000E+00 0. -1.
         25    2    1    2    0    0  0.12862603120E+03 -0.59941058908E+02 -0.43841173112E+02  0.19412320461E+03  0.12499673462E+03 0.  0.
          4    1    3    3  502    0  0.14384752777E+02  0.36689690716E+02 -0.74275217294E+01  0.40122755343E+02  0.12700000000E+01 0. -1.
         -4    1    3    3    0  502  0.11424127842E+03 -0.96630749624E+02 -0.36413651382E+02  0.15400044927E+03  0.12700000000E+01 0. -1.
          3    1    1    2  503    0 -0.62951963632E+02  0.52262138826E+01 -0.25798935472E+03  0.26561018464E+03  0.00000000000E+00 0. -1.
         -3    1    1    2    0  501 -0.65674067565E+02  0.54714845026E+02 -0.10983934736E+03  0.13918146301E+03  0.00000000000E+00 0.  1.
<mgrwt>
<rscale>  0 0.84654826E+02</rscale>
<asrwt>0</asrwt>
<pdfrwt beam="2">  1        3 0.77737287E-01 0.63168529E+02</pdfrwt>
<pdfrwt beam="1">  1       -3 0.14403460E-01 0.11344952E+03</pdfrwt>
<totfact> 0.14225861E+02</totfact>
</mgrwt>
</event>
<event>
 7    1  0.3113530E-004  0.5435592E+02  0.7546771E-02  0.1481086E+00
          1   -1    0    0  503    0  0.00000000000E+00  0.00000000000E+00  0.24493043256E+03  0.24493043256E+03  0.00000000000E+00 0. -1.
         -2   -1    0    0    0  501 -0.00000000000E+00 -0.00000000000E+00 -0.76635010783E+02  0.76635010783E+02  0.00000000000E+00 0.  1.
         25    2    1    2    0    0  0.69105825238E+02 -0.30237774209E+02  0.14841909690E+03  0.20818536321E+03  0.12499191597E+03 0.  0.
          4    1    3    3  502    0  0.26193258806E+02  0.41087573945E+02  0.10156725851E+03  0.11265787341E+03  0.12700000000E+01 0. -1.
         -4    1    3    3    0  502  0.42912566432E+02 -0.71325348154E+02  0.46851838396E+02  0.95527489804E+02  0.12700000000E+01 0. -1.
          1    1    1    2  503    0 -0.33865287608E+02  0.34652247242E+02  0.47905251833E+02  0.68136253910E+02  0.00000000000E+00 0. -1.
         -2    1    1    2    0  501 -0.35240537630E+02 -0.44144730328E+01 -0.28028926961E+02  0.45243826222E+02  0.00000000000E+00 0.  1.
<mgrwt>
<rscale>  0 0.43937483E+02</rscale>
<asrwt>0</asrwt>
<pdfrwt beam="1">  1        1 0.37681605E-01 0.54355920E+02</pdfrwt>
<pdfrwt beam="2">  1       -2 0.11790002E-01 0.35515955E+02</pdfrwt>
<totfact> 0.43873363E+03</totfact>
</mgrwt>
</event>
<event>
 7    1  0.3113530E-004  0.1910017E+03  0.7546771E-02  0.1218424E+00
          1   -1    0    0  503    0  0.00000000000E+00  0.00000000000E+00  0.21695609917E+04  0.21695609917E+04  0.00000000000E+00 0. -1.
          1   -1    0    0  502    0 -0.00000000000E+00 -0.00000000000E+00 -0.55961488495E+03  0.55961488495E+03  0.00000000000E+00 0. -1.
         25    2    1    2    0    0  0.14027044883E+03  0.67946222104E+02 -0.99274455921E+02  0.22309564760E+03  0.12499504977E+03 0.  0.
          4    1    3    3  501    0  0.72166963004E+02 -0.13524915738E+02  0.58522250185E+01  0.73667193055E+02  0.12700000000E+01 0. -1.
         -4    1    3    3    0  501  0.68103485828E+02  0.81471137842E+02 -0.10512668094E+03  0.14942845455E+03  0.12700000000E+01 0. -1.
          1    1    1    2  502    0 -0.21218549502E+03 -0.25005891899E+01 -0.36895821421E+03  0.42562789039E+03  0.00000000000E+00 0. -1.
          1    1    1    2  503    0  0.71915046188E+02 -0.65445632914E+02  0.20781787769E+04  0.20804523387E+04  0.00000000000E+00 0. -1.
<mgrwt>
<rscale>  0 0.13628026E+03</rscale>
<asrwt>0</asrwt>
<pdfrwt beam="1">  1        1 0.33377861E+00 0.97236334E+02</pdfrwt>
<pdfrwt beam="2">  1        1 0.86094599E-01 0.19100175E+03</pdfrwt>
<totfact> 0.14065190E+01</totfact>
</mgrwt>
</event>
<event>
 7    1  0.3113530E-004  0.6218560E+02  0.7546771E-02  0.1485794E+00
          1   -1    0    0  503    0  0.00000000000E+00  0.00000000000E+00  0.16302364942E+04  0.16302364942E+04  0.00000000000E+00 0. -1.
         -1   -1    0    0    0  501 -0.00000000000E+00 -0.00000000000E+00 -0.98226741333E+01  0.98226741333E+01  0.00000000000E+00 0.  1.
         25    2    1    2    0    0 -0.33231625989E+02  0.15606703068E+02  0.12484067060E+04  0.12551891594E+04  0.12503044517E+03 0.  0.
          4    1    3    3  502    0 -0.38526412289E+02  0.60806747401E+02  0.10040220452E+04  0.10066000324E+04  0.12700000000E+01 0. -1.
         -4    1    3    3    0  502  0.52947863003E+01 -0.45200044333E+02  0.24438466079E+03  0.24858912707E+03  0.12700000000E+01 0. -1.
          1    1    1    2  503    0 -0.27409027654E+02  0.12278464261E+02  0.15292609213E+03  0.15584737770E+03  0.00000000000E+00 0. -1.
         -1    1    1    2    0  501  0.60640653642E+02 -0.27885167329E+02  0.21908102196E+03  0.22902263122E+03  0.00000000000E+00 0.  1.
<mgrwt>
<rscale>  0 0.43216383E+02</rscale>
<asrwt>0</asrwt>
<pdfrwt beam="1">  1        1 0.25080540E+00 0.30033573E+02</pdfrwt>
<pdfrwt beam="2">  1       -1 0.15111819E-02 0.62185601E+02</pdfrwt>
<totfact> 0.62701117E+03</totfact>
</mgrwt>
</event>
<event>
 7    1  0.3113530E-004  0.8236333E+02  0.7546771E-02  0.1501977E+00
          1   -1    0    0  503    0 -0.00000000000E+00  0.00000000000E+00  0.10116487514E+04  0.10116487514E+04  0.00000000000E+00 0. -1.
          2   -1    0    0  502    0  0.00000000000E+00 -0.00000000000E+00 -0.14513528129E+04  0.14513528129E+04  0.00000000000E+00 0. -1.
         25    2    1    2    0    0 -0.55649728202E+02 -0.77381586571E+02 -0.24088594742E+03  0.28763684378E+03  0.12499644812E+03 0.  0.
          4    1    3    3  501    0 -0.57072723834E+02  0.83033055202E+01 -0.42882298900E+02  0.71880074759E+02  0.12700000000E+01 0. -1.
         -4    1    3    3    0  501  0.14229956324E+01 -0.85684892091E+02 -0.19800364852E+03  0.21575676902E+03  0.12700000000E+01 0. -1.
          2    1    1    2  502    0  0.20014744191E+02  0.32088494513E+01 -0.11852916608E+04  0.11854649754E+04  0.00000000000E+00 0. -1.
          1    1    1    2  503    0  0.35634984011E+02  0.74172737120E+02  0.98647354677E+03  0.98989974518E+03  0.00000000000E+00 0. -1.
<mgrwt>
<rscale>  0 0.40859915E+02</rscale>
<asrwt>0</asrwt>
<pdfrwt beam="2">  1        2 0.22328505E+00 0.20270340E+02</pdfrwt>
<pdfrwt beam="1">  1        1 0.15563827E+00 0.82363327E+02</pdfrwt>
<totfact> 0.41691231E+01</totfact>
</mgrwt>
</event>
<event>
 7    1  0.3113530E-004  0.2445078E+03  0.7546771E-02  0.1200648E+00
         -3   -1    0    0    0  501 -0.00000000000E+00  0.00000000000E+00  0.40664953642E+03  0.40664953642E+03  0.00000000000E+00 0.  1.
          2   -1    0    0  503    0  0.00000000000E+00 -0.00000000000E+00 -0.26148850455E+04  0.26148850455E+04  0.00000000000E+00 0. -1.
         25    2    1    2    0    0  0.17761891230E+02  0.16295711734E+03 -0.15427759974E+03  0.25748063714E+03  0.12499677536E+03 0.  0.
          4    1    3    3  502    0  0.26968009271E+02  0.92709882504E+01  0.11911831678E+02  0.30931042354E+02  0.12700000000E+01 0.  1.
         -4    1    3    3    0  502 -0.92061180411E+01  0.15368612909E+03 -0.16618943141E+03  0.22654959479E+03  0.12700000000E+01 0.  1.
          2    1    1    2  503    0 -0.13994795382E+02 -0.25472641298E+03 -0.23961795620E+04  0.24097215385E+04  0.00000000000E+00 0. -1.
         -3    1    1    2    0  501 -0.37670958483E+01  0.91769295636E+02  0.34222165262E+03  0.35433240630E+03  0.00000000000E+00 0.  1.
<mgrwt>
<rscale>  0 0.14985729E+03</rscale>
<asrwt>0</asrwt>
<pdfrwt beam="2">  1        2 0.40229002E+00 0.24450780E+03</pdfrwt>
<pdfrwt beam="1">  1       -3 0.62561466E-01 0.91846582E+02</pdfrwt>
<totfact> 0.53512439E+00</totfact>
</mgrwt>
</event>
<event>
 7    1  0.3113530E-004  0.4188318E+02  0.7546771E-02  0.1552399E+00
         -1   -1    0    0    0  501 -0.00000000000E+00  0.00000000000E+00  0.42080889130E+01  0.42080889130E+01  0.00000000000E+00 0.  1.
          1   -1    0    0  503    0  0.00000000000E+00 -0.00000000000E+00 -0.28415788506E+04  0.28415788506E+04  0.00000000000E+00 0. -1.
         25    2    1    2    0    0 -0.93210201400E+01  0.64552163801E+01 -0.16522971041E+04  0.16570563638E+04  0.12498608558E+03 0.  0.
          4    1    3    3  502    0  0.52025681661E+02  0.18616829791E+02 -0.49632458237E+03  0.49939259292E+03  0.12700000000E+01 0. -1.
         -4    1    3    3    0  502 -0.61346701801E+02 -0.12161613411E+02 -0.11559725217E+04  0.11576637709E+04  0.12700000000E+01 0. -1.
          1    1    1    2  503    0 -0.19377583813E+02 -0.37130987553E+02 -0.33323264511E+03  0.33585442793E+03  0.00000000000E+00 0. -1.
         -1    1    1    2    0  501  0.28698603953E+02  0.30675771173E+02 -0.85184101254E+03  0.85287614778E+03  0.00000000000E+00 0.  1.
<mgrwt>
<rscale>  0 0.34575972E+02</rscale>
<asrwt>0</asrwt>
<pdfrwt beam="2">  1        1 0.43716590E+00 0.41883183E+02</pdfrwt>
<pdfrwt beam="1">  1       -1 0.64739841E-03 0.28543624E+02</pdfrwt>
<totfact> 0.29570538E+03</totfact>
</mgrwt>
</event>
<event>
 7    1  0.3113530E-004  0.1073689E+03  0.7546771E-02  0.1329973E+00
          2   -1    0    0  502    0  0.00000000000E+00  0.00000000000E+00  0.15429388454E+04  0.15429388454E+04  0.00000000000E+00 0. -1.
          3   -1    0    0  503    0 -0.00000000000E+00 -0.00000000000E+00 -0.33468164125E+03  0.33468164125E+03  0.00000000000E+00 0. -1.
         25    2    1    2    0    0  0.11132679791E+03 -0.71709169724E+01  0.76768241476E+03  0.78575186241E+03  0.12499848542E+03 0.  0.
          4    1    3    3  501    0  0.10149048830E+03  0.19634807491E+01  0.76536802036E+03  0.77207123633E+03  0.12700000000E+01 0. -1.
         -4    1    3    3    0  501  0.98363096102E+01 -0.91343977216E+01  0.23143944000E+01  0.13680626079E+02  0.12700000000E+01 0. -1.
          2    1    1    2  502    0 -0.16022802000E+02  0.56913552600E+02  0.75616363935E+03  0.75847170819E+03  0.00000000000E+00 0. -1.
          3    1    1    2  503    0 -0.95303995906E+02 -0.49742635627E+02 -0.31558884994E+03  0.33339691607E+03  0.00000000000E+00 0. -1.
<mgrwt>
<rscale>  0 0.79676158E+02</rscale>
<asrwt>0</asrwt>
<pdfrwt beam="1">  1        2 0.23737520E+00 0.59125990E+02</pdfrwt>
<pdfrwt beam="2">  1        3 0.51489484E-01 0.10736886E+03</pdfrwt>
<totfact> 0.33373000E+01</totfact>
</mgrwt>
</event>
<event>
 7    1  0.3113530E-004  0.4766009E+02  0.7546771E-02  0.1572484E+00
          1   -1    0    0  503    0  0.00000000000E+00  0.00000000000E+00  0.60515725158E+03  0.60515725158E+03  0.00000000000E+00 0. -1.
         -1   -1    0    0    0  501 -0.00000000000E+00 -0.00000000000E+00 -0.57622772862E+02  0.57622772862E+02  0.00000000000E+00 0.  1.
         25    2    1    2    0    0 -0.34764256398E+02  0.16880902723E+02  0.36771190058E+03  0.39029579559E+03  0.12500099130E+03 0.  0.
          4    1    3    3  502    0  0.12478608061E+02  0.62439545380E+02  0.15159719398E+03  0.16443154992E+03  0.12700000000E+01 0. -1.
         -4    1    3    3    0  502 -0.47242864459E+02 -0.45558642657E+02  0.21611470660E+03  0.22586424567E+03  0.12700000000E+01 0. -1.
          1    1    1    2  503    0  0.56092213149E+01  0.21370383222E+02  0.21294407883E+03  0.21408721903E+03  0.00000000000E+00 0. -1.
         -1    1    1    2    0  501  0.29155035083E+02 -0.38251285944E+02 -0.33121500698E+02  0.58397009817E+02  0.00000000000E+00 0.  1.
<mgrwt>
<rscale>  0 0.32450188E+02</rscale>
<asrwt>0</asrwt>
<pdfrwt beam="1">  1        1 0.93101111E-01 0.22094267E+02</pdfrwt>
<pdfrwt beam="2">  1       -1 0.88650424E-02 0.47660086E+02</pdfrwt>
<totfact> 0.24565239E+03</totfact>
</mgrwt>
</event>
<event>
 7    1  0.3113530E-004  0.8976466E+02  0.7546771E-02  0.1320638E+00
          1   -1    0    0  503    0  0.00000000000E+00  0.00000000000E+00  0.27185328088E+04  0.27185328088E+04  0.00000000000E+00 0. -1.
         -3   -1    0    0    0  501 -0.00000000000E+00 -0.00000000000E+00 -0.15894413986E+03  0.15894413986E+03  0.00000000000E+00 0.  1.
         25    2    1    2    0    0  0.76160771166E+01 -0.69778709834E+01  0.31446882946E+02  0.12930917629E+03  0.12500104525E+03 0.  0.
          4    1    3    3  502    0 -0.11989054427E+01  0.58738299872E+02  0.19569152807E+02  0.61936983198E+02  0.12700000000E+01 0. -1.
         -4    1    3    3    0  502  0.88149825593E+01 -0.65716170855E+02  0.11877730139E+02  0.67372193096E+02  0.12700000000E+01 0. -1.
          1    1    1    2  503    0  0.84760890866E+02  0.29551395826E+02  0.26166903958E+04  0.26182296158E+04  0.00000000000E+00 0. -1.
         -3    1    1    2    0  501 -0.92376967983E+02 -0.22573524842E+02 -0.88548609790E+02  0.12993815657E+03  0.00000000000E+00 0.  1.
<mgrwt>
<rscale>  0 0.83040492E+02</rscale>
<asrwt>0</asrwt>
<pdfrwt beam="1">  1        1 0.41823578E+00 0.89764657E+02</pdfrwt>
<pdfrwt beam="2">  1       -3 0.24452947E-01 0.76820026E+02</pdfrwt>
<totfact> 0.10574704E+01</totfact>
</mgrwt>
</event>
<event>
 7    1  0.3113530E-004  0.4688946E+02  0.7546771E-02  0.1492231E+00
          1   -1    0    0  503    0 -0.00000000000E+00  0.00000000000E+00  0.12108778903E+04  0.12108778903E+04  0.00000000000E+00 0. -1.
          2   -1    0    0  502    0  0.00000000000E+00 -0.00000000000E+00 -0.75053815195E+03  0.75053815195E+03  0.00000000000E+00 0. -1.
         25    2    1    2    0    0  0.14724276591E+02 -0.69426966677E+01  0.38053430317E+03  0.40086860292E+03  0.12499710218E+03 0.  0.
          4    1    3    3  501    0  0.44670393516E+02 -0.42025252410E+01  0.43542318135E+02  0.62535203237E+02  0.12700000000E+01 0. -1.
         -4    1    3    3    0  501 -0.29946116925E+02 -0.27401714267E+01  0.33699198504E+03  0.33833339968E+03  0.12700000000E+01 0. -1.
          2    1    1    2  502    0 -0.13412300188E+02  0.45001988071E+02 -0.73918352412E+03  0.74067357929E+03  0.00000000000E+00 0. -1.
          1    1    1    2  503    0 -0.13119764029E+01 -0.38059291403E+02  0.81898895927E+03  0.81987386002E+03  0.00000000000E+00 0. -1.
<mgrwt>
<rscale>  0 0.42256829E+02</rscale>
<asrwt>0</asrwt>
<pdfrwt beam="2">  1        2 0.11546741E+00 0.46889459E+02</pdfrwt>
<pdfrwt beam="1">  1        1 0.18628891E+00 0.38081898E+02</pdfrwt>
<totfact> 0.73664953E+01</totfact>
</mgrwt>
</event>
<event>
 7    1  0.3113530E-004  0.2039762E+03  0.7546771E-02  0.1305447E+00
          1   -1    0    0  503    0 -0.00000000000E+00  0.00000000000E+00  0.76580571670E+03  0.76580571670E+03  0.00000000000E+00 0. -1.
          2   -1    0    0  502    0  0.00000000000E+00 -0.00000000000E+00 -0.50929510062E+03  0.50929510062E+03  0.00000000000E+00 0. -1.
         25    2    1    2    0    0  0.16808588992E+03  0.11825565545E+03  0.24874110163E+03  0.34602569502E+03  0.12499751813E+03 0.  0.
          4    1    3    3  501    0 -0.19656442041E+02  0.22069308429E+02  0.29479907855E+02  0.41762518548E+02  0.12700000000E+01 0.  1.
         -4    1    3    3    0  501  0.18774233196E+03  0.96186347017E+02  0.21926119378E+03  0.30426317647E+03  0.12700000000E+01 0.  1.
          2    1    1    2  502    0  0.18262604223E+02 -0.34208019705E+02 -0.43745074600E+03  0.43916610354E+03  0.00000000000E+00 0. -1.
          1    1    1    2  503    0 -0.18634849414E+03 -0.84047635741E+02  0.44522026045E+03  0.48990901875E+03  0.00000000000E+00 0. -1.
<mgrwt>
<rscale>  0 0.88936671E+02</rscale>
<asrwt>0</asrwt>
<pdfrwt beam="2">  1        2 0.78353092E-01 0.38777717E+02</pdfrwt>
<pdfrwt beam="1">  1        1 0.11781626E+00 0.20397620E+03</pdfrwt>
<totfact> 0.21441486E+02</totfact>
</mgrwt>
</event>
<event>
 7    1  0.3113530E-004  0.3727188E+02  0.7546771E-02  0.1537804E+00
          1   -1    0    0  503    0  0.00000000000E+00  0.00000000000E+00  0.44420258074E+02  0.44420258074E+02  0.00000000000E+00 0. -1.
         -1   -1    0    0    0  501 -0.00000000000E+00 -0.00000000000E+00 -0.28424283289E+03  0.28424283289E+03  0.00000000000E+00 0.  1.
         25    2    1    2    0    0  0.88431616147E+01  0.49357159487E+01 -0.18043681694E+03  0.21973960574E+03  0.12500194648E+03 0.  0.
          4    1    3    3  502    0  0.31087270448E-01 -0.48421476162E+02 -0.15009288976E+03  0.15771534096E+03  0.12700000000E+01 0. -1.
         -4    1    3    3    0  502  0.88120743442E+01  0.53357192110E+02 -0.30343927189E+02  0.62024264779E+02  0.12700000000E+01 0. -1.
          1    1    1    2  503    0 -0.42860854938E+02  0.10295480706E+02 -0.56329298939E+02  0.71526496684E+02  0.00000000000E+00 0. -1.
         -1    1    1    2    0  501  0.34017693323E+02 -0.15231196655E+02 -0.30564589338E+01  0.37396988539E+02  0.00000000000E+00 0.  1.
<mgrwt>
<rscale>  0 0.36246208E+02</rscale>
<asrwt>0</asrwt>
<pdfrwt beam="1">  1        1 0.68338856E-02 0.35248763E+02</pdfrwt>
<pdfrwt beam="2">  1       -1 0.43729668E-01 0.37271877E+02</pdfrwt>
<totfact> 0.47918782E+03</totfact>
</mgrwt>
</event>
<event>
 7    1  0.3113530E-004  0.7588357E+02  0.7546771E-02  0.1512651E+00
          2   -1    0    0  502    0  0.00000000000E+00  0.00000000000E+00  0.17086760674E+04  0.17086760674E+04  0.00000000000E+00 0. -1.
          3   -1    0    0  503    0 -0.00000000000E+00 -0.00000000000E+00 -0.19774941969E+02  0.19774941969E+02  0.00000000000E+00 0. -1.
         25    2    1    2    0    0  0.50261301146E+02  0.78936552676E+02  0.38849661113E+03  0.41870188260E+03  0.12499788756E+03 0.  0.
          4    1    3    3  501    0 -0.39022571503E+02  0.34657614705E+02  0.18314817675E+03  0.19044363705E+03  0.12700000000E+01 0.  1.
         -4    1    3    3    0  501  0.89283872649E+02  0.44278937972E+02  0.20534843438E+03  0.22825824556E+03  0.12700000000E+01 0.  1.
          2    1    1    2  502    0 -0.34105102232E+02 -0.66382665005E+02  0.12747594475E+04  0.12769422325E+04  0.00000000000E+00 0. -1.
          3    1    1    2  503    0 -0.16156198914E+02 -0.12553887671E+02  0.25645066827E+02  0.32806894268E+02  0.00000000000E+00 0. -1.
<mgrwt>
<rscale>  0 0.39403029E+02</rscale>
<asrwt>0</asrwt>
<pdfrwt beam="1">  1        2 0.26287312E+00 0.75883569E+02</pdfrwt>
<pdfrwt beam="2">  1        3 0.30423001E-02 0.20460275E+02</pdfrwt>
<totfact> 0.23513125E+03</totfact>
</mgrwt>
</event>
<event>
 7    1  0.3113530E-004  0.6584426E+02  0.7546771E-02  0.1445828E+00
         -2   -1    0    0    0  501  0.00000000000E+00  0.00000000000E+00  0.14508061702E+04  0.14508061702E+04  0.00000000000E+00 0.  1.
         -2   -1    0    0    0  502 -0.00000000000E+00 -0.00000000000E+00 -0.74206954854E+02  0.74206954854E+02  0.00000000000E+00 0.  1.
         25    2    1    2    0    0  0.29221524122E+02  0.31730635263E+02  0.12308277267E+04  0.12379104650E+04  0.12499878367E+03 0.  0.
          4    1    3    3  503    0  0.57538608217E+02  0.55562819855E+02  0.51987353743E+03  0.52599242029E+03  0.12700000000E+01 0.  1.
         -4    1    3    3    0  503 -0.28317084094E+02 -0.23832184592E+02  0.71095418924E+03  0.71191804470E+03  0.12700000000E+01 0.  1.
         -2    1    1    2    0  501  0.34807336856E+02 -0.14821909356E+02  0.19873539588E+03  0.20230421961E+03  0.00000000000E+00 0.  1.
         -2    1    1    2    0  502 -0.64028860978E+02 -0.16908725907E+02 -0.52963907156E+02  0.84798440500E+02  0.00000000000E+00 0.  1.
<mgrwt>
<rscale>  0 0.49909943E+02</rscale>
<asrwt>0</asrwt>
<pdfrwt beam="1">  1       -2 0.22320093E+00 0.37831729E+02</pdfrwt>
<pdfrwt beam="2">  1       -2 0.11416456E-01 0.65844265E+02</pdfrwt>
<totfact> 0.38856004E+01</totfact>
</mgrwt>
</event>
<event>
 7    1  0.3113530E-004  0.9560505E+02  0.7546771E-02  0.1298534E+00
          2   -1    0    0  503    0  0.00000000000E+00  0.00000000000E+00  0.16399675521E+04  0.16399675521E+04  0.00000000000E+00 0. -1.
         -2   -1    0    0    0  501 -0.00000000000E+00 -0.00000000000E+00 -0.12986805321E+03  0.12986805321E+03  0.00000000000E+00 0.  1.
         25    2    1    2    0    0 -0.12199795409E+02 -0.34106145449E+02  0.17795805704E+03  0.22046558750E+03  0.12499576410E+03 0.  0.
          4    1    3    3  502    0 -0.30607375207E+02 -0.20020773033E+02 -0.41985086823E+01  0.36835894791E+02  0.12700000000E+01 0. -1.
         -4    1    3    3    0  502  0.18407579798E+02 -0.14085372416E+02  0.18215656572E+03  0.18362969271E+03  0.12700000000E+01 0. -1.
          2    1    1    2  503    0 -0.88114515024E+02  0.28315872260E+01  0.14136437051E+04  0.14163900277E+04  0.00000000000E+00 0. -1.
         -2    1    1    2    0  501  0.10031431043E+03  0.31274558223E+02 -0.81502263204E+02  0.13297999014E+03  0.00000000000E+00 0.  1.
<mgrwt>
<rscale>  0 0.91807089E+02</rscale>
<asrwt>0</asrwt>
<pdfrwt beam="1">  1        2 0.25230269E+00 0.88160000E+02</pdfrwt>
<pdfrwt beam="2">  1       -2 0.19979702E-01 0.95605054E+02</pdfrwt>
<totfact> 0.25931639E+02</totfact>
</mgrwt>
</event>
<event>
 7    1  0.3113530E-004  0.9749201E+02  0.7546771E-02  0.1432063E+00
          2   -1    0    0  503    0  0.00000000000E+00  0.00000000000E+00  0.22708981602E+03  0.22708981602E+03  0.00000000000E+00 0. -1.
         -1   -1    0    0    0  501 -0.00000000000E+00 -0.00000000000E+00 -0.11068417163E+03  0.11068417163E+03  0.00000000000E+00 0.  1.
         25    2    1    2    0    0 -0.98187859853E+01 -0.11700627616E+03  0.86867844244E+02  0.19224533217E+03  0.12500147263E+03 0.  0.
          4    1    3    3  502    0 -0.45685591512E+02 -0.12361287285E+03  0.82521533540E+02  0.15549511891E+03  0.12700000000E+01 0.  1.
         -4    1    3    3    0  502  0.35866805527E+02  0.66065966859E+01  0.43463107038E+01  0.36750213268E+02  0.12700000000E+01 0.  1.
          2    1    1    2  503    0  0.13277113730E+02  0.25018730411E+02  0.44019065889E+02  0.52344023366E+02  0.00000000000E+00 0. -1.
         -1    1    1    2    0  501 -0.34583277451E+01  0.91987545751E+02 -0.14481265744E+02  0.93184632111E+02  0.00000000000E+00 0.  1.
<mgrwt>
<rscale>  0 0.52548183E+02</rscale>
<asrwt>0</asrwt>
<pdfrwt beam="1">  1        2 0.34936895E-01 0.28323464E+02</pdfrwt>
<pdfrwt beam="2">  1       -1 0.17028334E-01 0.97492013E+02</pdfrwt>
<totfact> 0.40601224E+03</totfact>
</mgrwt>
</event>
<event>
 7    1  0.3113530E-004  0.8630452E+02  0.7546771E-02  0.1368931E+00
         -2   -1    0    0    0  501  0.00000000000E+00  0.00000000000E+00  0.13947104048E+03  0.13947104048E+03  0.00000000000E+00 0.  1.
         -2   -1    0    0    0  502 -0.00000000000E+00 -0.00000000000E+00 -0.37820346491E+03  0.37820346491E+03  0.00000000000E+00 0.  1.
         25    2    1    2    0    0 -0.46397838777E+01 -0.48483908583E+02  0.71116888277E+01  0.13433250048E+03  0.12498970990E+03 0.  0.
          4    1    3    3  503    0  0.44675055548E+02 -0.65207984123E+02  0.18093983615E+02  0.81098378064E+02  0.12700000000E+01 0. -1.
         -4    1    3    3    0  503 -0.49314839425E+02  0.16724075539E+02 -0.10982294787E+02  0.53234122412E+02  0.12700000000E+01 0. -1.
         -2    1    1    2    0  502 -0.34873915343E+02  0.83412256444E+02 -0.29664486822E+03  0.31011606268E+03  0.00000000000E+00 0.  1.
         -2    1    1    2    0  501  0.39513699220E+02 -0.34928347861E+02  0.50800754956E+02  0.73225942223E+02  0.00000000000E+00 0.  1.
<mgrwt>
<rscale>  0 0.67465167E+02</rscale>
<asrwt>0</asrwt>
<pdfrwt beam="1">  1       -2 0.21457083E-01 0.52738240E+02</pdfrwt>
<pdfrwt beam="2">  1       -2 0.58185148E-01 0.86304525E+02</pdfrwt>
<totfact> 0.32631821E+02</totfact>
</mgrwt>
</event>
<event>
 7    1  0.3113530E-004  0.9073278E+02  0.7546771E-02  0.1387038E+00
          1   -1    0    0  502    0  0.00000000000E+00  0.00000000000E+00  0.92059335615E+03  0.92059335615E+03  0.00000000000E+00 0. -1.
          3   -1    0    0  503    0 -0.00000000000E+00 -0.00000000000E+00 -0.21660595326E+03  0.21660595326E+03  0.00000000000E+00 0. -1.
         25    2    1    2    0    0  0.73908264098E+01 -0.90769201557E+02  0.81319747925E+02  0.17473118377E+03  0.12499765164E+03 0.  0.
          4    1    3    3  501    0  0.66789208287E+01  0.12920009392E+02 -0.23254861226E+02  0.27457896802E+02  0.12700000000E+01 0.  1.
         -4    1    3    3    0  501  0.71190558118E+00 -0.10368921095E+03  0.10457460915E+03  0.14727328697E+03  0.12700000000E+01 0.  1.
          1    1    1    2  502    0  0.35355960623E+02  0.84136346318E+02  0.78713447198E+03  0.79240749978E+03  0.00000000000E+00 0. -1.
          3    1    1    2  503    0 -0.42746787033E+02  0.66328552393E+01 -0.16446681701E+03  0.17006062586E+03  0.00000000000E+00 0. -1.
<mgrwt>
<rscale>  0 0.62649404E+02</rscale>
<asrwt>0</asrwt>
<pdfrwt beam="1">  1        1 0.14162974E+00 0.90732777E+02</pdfrwt>
<pdfrwt beam="2">  1        3 0.33323993E-01 0.43258324E+02</pdfrwt>
<totfact> 0.84011795E+01</totfact>
</mgrwt>
</event>
<event>
 7    1  0.3113530E-004  0.1294336E+03  0.7546771E-02  0.1321110E+00
         -1   -1    0    0    0  501 -0.00000000000E+00  0.00000000000E+00  0.28244251519E+02  0.28244251519E+02  0.00000000000E+00 0.  1.
          1   -1    0    0  503    0  0.00000000000E+00 -0.00000000000E+00 -0.33316384236E+04  0.33316384236E+04  0.00000000000E+00 0. -1.
         25    2    1    2    0    0  0.10897445071E+03 -0.54551484956E+02 -0.44922905353E+03  0.48195826366E+03  0.12500291977E+03 0.  0.
          4    1    3    3  502    0 -0.81184256625E+01  0.76240890822E+01  0.22340323755E+01  0.11429758100E+02  0.12700000000E+01 0.  1.
         -4    1    3    3    0  502  0.11709287638E+03 -0.62175574038E+02 -0.45146308591E+03  0.47052850556E+03  0.12700000000E+01 0.  1.
          1    1    1    2  503    0  0.31420548121E+02  0.42746486909E+02 -0.24376207915E+04  0.24381980306E+04  0.00000000000E+00 0. -1.
         -1    1    1    2    0  501 -0.14039499883E+03  0.11804998047E+02 -0.41654432700E+03  0.43972638087E+03  0.00000000000E+00 0.  1.
<mgrwt>
<rscale>  0 0.82865624E+02</rscale>
<asrwt>0</asrwt>
<pdfrwt beam="2">  1        1 0.51255933E+00 0.53051984E+02</pdfrwt>
<pdfrwt beam="1">  1       -1 0.43452731E-02 0.12943365E+03</pdfrwt>
<totfact> 0.11528828E+02</totfact>
</mgrwt>
</event>
<event>
 7    1  0.3113530E-004  0.9335416E+02  0.7546771E-02  0.1428739E+00
          2   -1    0    0  503    0  0.00000000000E+00  0.00000000000E+00  0.22856330641E+04  0.22856330641E+04  0.00000000000E+00 0. -1.
         -1   -1    0    0    0  501 -0.00000000000E+00 -0.00000000000E+00 -0.18791455571E+03  0.18791455571E+03  0.00000000000E+00 0.  1.
         25    2    1    2    0    0  0.10307287554E+03 -0.60898963967E+02  0.64299714878E+03  0.66588525376E+03  0.12500054541E+03 0.  0.
          4    1    3    3  502    0  0.63337848301E+02 -0.95150924834E+02  0.51529328582E+03  0.52782020124E+03  0.12700000000E+01 0.  1.
         -4    1    3    3    0  502  0.39735027238E+02  0.34251960867E+02  0.12770386296E+03  0.13806505252E+03  0.12700000000E+01 0.  1.
          2    1    1    2  503    0 -0.74082982658E+02  0.51972102462E+02  0.16286229042E+04  0.16311351728E+04  0.00000000000E+00 0. -1.
         -1    1    1    2    0  501 -0.28989892881E+02  0.89268615043E+01 -0.17390154460E+03  0.17652719326E+03  0.00000000000E+00 0.  1.
<mgrwt>
<rscale>  0 0.53214002E+02</rscale>
<asrwt>0</asrwt>
<pdfrwt beam="1">  1        2 0.35163584E+00 0.93354162E+02</pdfrwt>
<pdfrwt beam="2">  1       -1 0.28909933E-01 0.30333195E+02</pdfrwt>
<totfact> 0.70944716E+01</totfact>
</mgrwt>
</event>
<event>
 7    1  0.3113530E-004  0.8767417E+02  0.7546771E-02  0.1421770E+00
          1   -1    0    0  503    0  0.00000000000E+00  0.00000000000E+00  0.18708684481E+04  0.18708684481E+04  0.00000000000E+00 0. -1.
         -1   -1    0    0    0  501 -0.00000000000E+00 -0.00000000000E+00 -0.72077311975E+02  0.72077311975E+02  0.00000000000E+00 0.  1.
         25    2    1    2    0    0  0.56612268640E+02  0.42452012079E+02  0.10196398122E+03  0.17615599184E+03  0.12500863052E+03 0.  0.
          4    1    3    3  502    0  0.57419484106E+02 -0.12228805385E+02 -0.19175596194E+01  0.58752283114E+02  0.12700000000E+01 0. -1.
         -4    1    3    3    0  502 -0.80721546624E+00  0.54680817464E+02  0.10388154084E+03  0.11740370873E+03  0.12700000000E+01 0. -1.
          1    1    1    2  503    0  0.33360520228E+02 -0.68808860710E+01  0.16644035095E+04  0.16647520275E+04  0.00000000000E+00 0. -1.
         -1    1    1    2    0  501 -0.89972788868E+02 -0.35571126008E+02  0.32423645448E+02  0.10203774070E+03  0.00000000000E+00 0.  1.
<mgrwt>
<rscale>  0 0.54648177E+02</rscale>
<asrwt>0</asrwt>
<pdfrwt beam="1">  1        1 0.28782588E+00 0.34062749E+02</pdfrwt>
<pdfrwt beam="2">  1       -1 0.11088819E-01 0.87674170E+02</pdfrwt>
<totfact> 0.25560525E+02</totfact>
</mgrwt>
</event>
<event>
 7    1  0.3113530E-004  0.1043335E+03  0.7546771E-02  0.1353900E+00
          2   -1    0    0  502    0  0.00000000000E+00  0.00000000000E+00  0.22687142368E+03  0.22687142368E+03  0.00000000000E+00 0. -1.
          3   -1    0    0  503    0 -0.00000000000E+00 -0.00000000000E+00 -0.12546944741E+03  0.12546944741E+03  0.00000000000E+00 0. -1.
         25    2    1    2    0    0 -0.68613993573E+02 -0.52629786087E+02  0.29999289901E+02  0.15494946277E+03  0.12502641369E+03 0.  0.
          4    1    3    3  501    0 -0.90252999437E+02 -0.76103861604E+02  0.13055068752E+02  0.11878320327E+03  0.12700000000E+01 0. -1.
         -4    1    3    3    0  501  0.21639005863E+02  0.23474075518E+02  0.16944221148E+02  0.36166259503E+02  0.12700000000E+01 0. -1.
          2    1    1    2  502    0 -0.46104488237E+02  0.17976837846E+02  0.58861285024E+02  0.76898903823E+02  0.00000000000E+00 0. -1.
          3    1    1    2  503    0  0.11471848181E+03  0.34652948241E+02  0.12541401345E+02  0.12049250449E+03  0.00000000000E+00 0. -1.
<mgrwt>
<rscale>  0 0.71853823E+02</rscale>
<asrwt>0</asrwt>
<pdfrwt beam="1">  1        2 0.34903296E-01 0.49485256E+02</pdfrwt>
<pdfrwt beam="2">  1        3 0.19302992E-01 0.10433354E+03</pdfrwt>
<totfact> 0.20049823E+03</totfact>
</mgrwt>
</event>
<event>
 7    1  0.3420793E-004  0.6686117E+02  0.7546771E-02  0.1427045E+00
         -1   -1    0    0    0  501 -0.00000000000E+00  0.00000000000E+00  0.23564824820E+02  0.23564824820E+02  0.00000000000E+00 0.  1.
          2   -1    0    0  503    0  0.00000000000E+00 -0.00000000000E+00 -0.84657992528E+03  0.84657992528E+03  0.00000000000E+00 0. -1.
         25    2    1    2    0    0  0.14660632481E+02  0.83426316016E+02 -0.32178773295E+03  0.35545032064E+03  0.12499080375E+03 0.  0.
          4    1    3    3  502    0  0.37402555761E+01  0.10798232240E+03 -0.17098462241E+03  0.20226597703E+03  0.12700000000E+01 0.  1.
         -4    1    3    3    0  502  0.10920376905E+02 -0.24556006382E+02 -0.15080311054E+03  0.15318434362E+03  0.12700000000E+01 0.  1.
          2    1    1    2  503    0  0.22266430646E+02 -0.61587539317E+02 -0.39037059368E+03  0.39582574366E+03  0.00000000000E+00 0. -1.
         -1    1    1    2    0  501 -0.36927063126E+02 -0.21838776699E+02 -0.11085677383E+03  0.11886868580E+03  0.00000000000E+00 0.  1.
<mgrwt>
<rscale>  0 0.53557873E+02</rscale>
<asrwt>0</asrwt>
<pdfrwt beam="2">  1        2 0.13024306E+00 0.66861172E+02</pdfrwt>
<pdfrwt beam="1">  1       -1 0.36253579E-02 0.42901517E+02</pdfrwt>
<totfact> 0.92552417E+03</totfact>
</mgrwt>
</event>
<event>
 7    1  0.3113530E-004  0.9571692E+02  0.7546771E-02  0.1355536E+00
         -3   -1    0    0    0  501 -0.00000000000E+00  0.00000000000E+00  0.23939726205E+03  0.23939726205E+03  0.00000000000E+00 0.  1.
          2   -1    0    0  503    0  0.00000000000E+00 -0.00000000000E+00 -0.52827163612E+03  0.52827163612E+03  0.00000000000E+00 0. -1.
         25    2    1    2    0    0  0.64271193825E+02 -0.96353319368E+02  0.70871511405E+02  0.18454895242E+03  0.12498318367E+03 0.  0.
          4    1    3    3  502    0  0.54794653310E+02 -0.75649411964E+02  0.10686428433E+03  0.14193969046E+03  0.12700000000E+01 0.  1.
         -4    1    3    3    0  502  0.94765405152E+01 -0.20703907403E+02 -0.35992772925E+02  0.42609261960E+02  0.12700000000E+01 0.  1.
          2    1    1    2  503    0  0.15558489179E+02  0.50871633596E+02 -0.45070505093E+03  0.45383370592E+03  0.00000000000E+00 0. -1.
         -3    1    1    2    0  501 -0.79829683005E+02  0.45481685771E+02  0.90959165455E+02  0.12928623983E+03  0.00000000000E+00 0.  1.
<mgrwt>
<rscale>  0 0.71357655E+02</rscale>
<asrwt>0</asrwt>
<pdfrwt beam="2">  1        2 0.81272560E-01 0.53197647E+02</pdfrwt>
<pdfrwt beam="1">  1       -3 0.36830348E-01 0.95716921E+02</pdfrwt>
<totfact> 0.25868579E+02</totfact>
</mgrwt>
</event>
<event>
 7    1  0.3113530E-004  0.8685810E+02  0.7546771E-02  0.1441151E+00
          1   -1    0    0  503    0 -0.00000000000E+00  0.00000000000E+00  0.94850394337E+02  0.94850394337E+02  0.00000000000E+00 0. -1.
          2   -1    0    0  502    0  0.00000000000E+00 -0.00000000000E+00 -0.16641591227E+04  0.16641591227E+04  0.00000000000E+00 0.  1.
         25    2    1    2    0    0  0.72760799646E+02  0.76357011844E+02 -0.69749081070E+02  0.17780225857E+03  0.12499672644E+03 0.  0.
          4    1    3    3  501    0  0.32565763396E+02  0.10014312320E+03 -0.77080751679E+02  0.13050758311E+03  0.12700000000E+01 0.  1.
         -4    1    3    3    0  501  0.40195036250E+02 -0.23786111361E+02  0.73316706087E+01  0.47294675459E+02  0.12700000000E+01 0.  1.
          2    1    1    2  502    0 -0.28511188816E+02 -0.82971699836E+01 -0.14997332761E+04  0.15000272099E+04  0.00000000000E+00 0.  1.
          1    1    1    2  503    0 -0.44249610830E+02 -0.68059841860E+02  0.17362886711E+00  0.81180048532E+02  0.00000000000E+00 0. -1.
<mgrwt>
<rscale>  0 0.50785435E+02</rscale>
<asrwt>0</asrwt>
<pdfrwt beam="2">  1        2 0.25602448E+00 0.29693954E+02</pdfrwt>
<pdfrwt beam="1">  1        1 0.14592368E-01 0.86858097E+02</pdfrwt>
<totfact> 0.68483862E+02</totfact>
</mgrwt>
</event>
<event>
 7    1  0.3113530E-004  0.7630152E+02  0.7546771E-02  0.1352614E+00
          1   -1    0    0  502    0  0.00000000000E+00  0.00000000000E+00  0.42606468750E+03  0.42606468750E+03  0.00000000000E+00 0.  1.
          1   -1    0    0  503    0 -0.00000000000E+00 -0.00000000000E+00 -0.68531841639E+03  0.68531841639E+03  0.00000000000E+00 0. -1.
         25    2    1    2    0    0 -0.15045913900E+02 -0.77016809091E+01  0.62484841174E+02  0.14076944229E+03  0.12500394031E+03 0.  0.
          4    1    3    3  501    0  0.45432296170E+02 -0.28078433331E+01 -0.96012830836E+01  0.46537888396E+02  0.12700000000E+01 0. -1.
         -4    1    3    3    0  501 -0.60478210071E+02 -0.48938375760E+01  0.72086124258E+02  0.94231553898E+02  0.12700000000E+01 0. -1.
          1    1    1    2  502    0  0.65391672252E+02  0.54015918813E+02  0.31703659417E+03  0.32818591122E+03  0.00000000000E+00 0.  1.
          1    1    1    2  503    0 -0.50345758352E+02 -0.46314237904E+02 -0.63877516423E+03  0.64242775038E+03  0.00000000000E+00 0. -1.
<mgrwt>
<rscale>  0 0.72247228E+02</rscale>
<asrwt>0</asrwt>
<pdfrwt beam="1">  1        1 0.65548414E-01 0.76301520E+02</pdfrwt>
<pdfrwt beam="2">  1        1 0.10543360E+00 0.68408362E+02</pdfrwt>
<totfact> 0.21047791E+02</totfact>
</mgrwt>
</event>
<event>
 7    1  0.3113530E-004  0.1468843E+03  0.7546771E-02  0.1421733E+00
          1   -1    0    0  503    0 -0.00000000000E+00  0.00000000000E+00  0.81376739258E+03  0.81376739258E+03  0.00000000000E+00 0. -1.
          2   -1    0    0  502    0  0.00000000000E+00 -0.00000000000E+00 -0.75114912946E+03  0.75114912946E+03  0.00000000000E+00 0. -1.
         25    2    1    2    0    0  0.10505588191E+03  0.79068985244E+02  0.18114432445E+01  0.18142932355E+03  0.12499870146E+03 0.  0.
          4    1    3    3  501    0  0.10776628678E+03  0.47735946179E+02 -0.44025497379E+02  0.12582587351E+03  0.12700000000E+01 0. -1.
         -4    1    3    3    0  501 -0.27104048685E+01  0.31333039065E+02  0.45836940624E+02  0.55603450049E+02  0.12700000000E+01 0. -1.
          2    1    1    2  502    0  0.20337514545E+02 -0.31837762639E-01 -0.65357442666E+03  0.65389077582E+03  0.00000000000E+00 0. -1.
          1    1    1    2  503    0 -0.12539339646E+03 -0.79037147482E+02  0.71438124654E+03  0.72959642267E+03  0.00000000000E+00 0. -1.
<mgrwt>
<rscale>  0 0.54655872E+02</rscale>
<asrwt>0</asrwt>
<pdfrwt beam="2">  1        2 0.11556140E+00 0.20337539E+02</pdfrwt>
<pdfrwt beam="1">  1        1 0.12519498E+00 0.14688425E+03</pdfrwt>
<totfact> 0.13314573E+02</totfact>
</mgrwt>
</event>
<event>
 7    1  0.3113530E-004  0.1442654E+03  0.7546771E-02  0.1254480E+00
          1   -1    0    0  502    0  0.00000000000E+00  0.00000000000E+00  0.11690997332E+04  0.11690997332E+04  0.00000000000E+00 0. -1.
          3   -1    0    0  503    0 -0.00000000000E+00 -0.00000000000E+00 -0.83274376669E+02  0.83274376669E+02  0.00000000000E+00 0. -1.
         25    2    1    2    0    0  0.62730697558E+02 -0.51780426210E+02  0.13130645003E+03  0.19870813315E+03  0.12500874132E+03 0.  0.
          4    1    3    3  501    0 -0.28296209982E+02 -0.50557850782E+02  0.46798077425E+02  0.74487883079E+02  0.12700000000E+01 0.  1.
         -4    1    3    3    0  501  0.91026907539E+02 -0.12225754289E+01  0.84508372610E+02  0.12422025007E+03  0.12700000000E+01 0.  1.
          1    1    1    2  502    0 -0.71419583485E+02  0.14042302314E+03  0.95159792029E+03  0.96455066442E+03  0.00000000000E+00 0. -1.
          3    1    1    2  503    0  0.86888859276E+01 -0.88642596931E+02  0.29209862277E+01  0.89115312320E+02  0.00000000000E+00 0. -1.
<mgrwt>
<rscale>  0 0.11335497E+03</rscale>
<asrwt>0</asrwt>
<pdfrwt beam="1">  1        1 0.17986149E+00 0.14426542E+03</pdfrwt>
<pdfrwt beam="2">  1        3 0.12811443E-01 0.89067428E+02</pdfrwt>
<totfact> 0.30768414E+02</totfact>
</mgrwt>
</event>
<event>
 7    1  0.3113530E-004  0.3696623E+02  0.7546771E-02  0.1556458E+00
         -1   -1    0    0    0  501 -0.00000000000E+00  0.00000000000E+00  0.14997976603E+02  0.14997976603E+02  0.00000000000E+00 0.  1.
          2   -1    0    0  503    0  0.00000000000E+00 -0.00000000000E+00 -0.27790090274E+04  0.27790090274E+04  0.00000000000E+00 0. -1.
         25    2    1    2    0    0  0.32032822426E+02 -0.11417169531E+02 -0.31270259566E+03  0.33847386320E+03  0.12500075706E+03 0.  0.
          4    1    3    3  502    0  0.48044453648E+01  0.25058218873E+02 -0.28290394479E+03  0.28405501564E+03  0.12700000000E+01 0. -1.
         -4    1    3    3    0  502  0.27228377062E+02 -0.36475388404E+02 -0.29798650864E+02  0.54418847562E+02  0.12700000000E+01 0. -1.
          2    1    1    2  503    0 -0.13315378963E+02 -0.28561363759E+02 -0.22097300759E+04  0.22099547640E+04  0.00000000000E+00 0. -1.
         -1    1    1    2    0  501 -0.18717443464E+02  0.39978533290E+02 -0.24157837931E+03  0.24557837682E+03  0.00000000000E+00 0.  1.
<mgrwt>
<rscale>  0 0.34130721E+02</rscale>
<asrwt>0</asrwt>
<pdfrwt beam="2">  1        2 0.42754043E+00 0.31512709E+02</pdfrwt>
<pdfrwt beam="1">  1       -1 0.23073779E-02 0.36966232E+02</pdfrwt>
<totfact> 0.19092180E+03</totfact>
</mgrwt>
</event>
<event>
 7    1  0.3113530E-004  0.6185447E+02  0.7546771E-02  0.1506084E+00
          1   -1    0    0  503    0  0.00000000000E+00  0.00000000000E+00  0.73397093954E+03  0.73397093954E+03  0.00000000000E+00 0. -1.
         -2   -1    0    0    0  501 -0.00000000000E+00 -0.00000000000E+00 -0.25236701283E+02  0.25236701283E+02  0.00000000000E+00 0.  1.
         25    2    1    2    0    0 -0.80331653643E+02 -0.12634046549E+02  0.48894876934E+03  0.51118922721E+03  0.12502293095E+03 0.  0.
          4    1    3    3  502    0 -0.29778012733E+02  0.42683990347E+02  0.34491795509E+03  0.34882468623E+03  0.12700000000E+01 0.  1.
         -4    1    3    3    0  502 -0.50553640910E+02 -0.55318036896E+02  0.14403081425E+03  0.16236454098E+03  0.12700000000E+01 0.  1.
          1    1    1    2  503    0  0.20985407482E+02  0.15759954047E+02  0.16537323808E+03  0.16744274052E+03  0.00000000000E+00 0. -1.
         -2    1    1    2    0  501  0.59346246161E+02 -0.31259074982E+01  0.54412230838E+02  0.80575673102E+02  0.00000000000E+00 0.  1.
<mgrwt>
<rscale>  0 0.40290540E+02</rscale>
<asrwt>0</asrwt>
<pdfrwt beam="1">  1        1 0.11291859E+00 0.26244304E+02</pdfrwt>
<pdfrwt beam="2">  1       -2 0.38825700E-02 0.61854475E+02</pdfrwt>
<totfact> 0.63451610E+03</totfact>
</mgrwt>
</event>
<event>
 7    1  0.3113530E-004  0.1563560E+03  0.7546771E-02  0.1289812E+00
          2   -1    0    0  502    0  0.00000000000E+00  0.00000000000E+00  0.17704318365E+04  0.17704318365E+04  0.00000000000E+00 0. -1.
          1   -1    0    0  503    0 -0.00000000000E+00 -0.00000000000E+00 -0.97445779679E+02  0.97445779679E+02  0.00000000000E+00 0. -1.
         25    2    1    2    0    0 -0.54453981967E+02  0.13497077677E+03  0.82914104765E+03  0.85104684778E+03  0.12499405377E+03 0.  0.
          4    1    3    3  501    0  0.35856223211E+02  0.70423691619E+02  0.28879533118E+03  0.29941529903E+03  0.12700000000E+01 0.  1.
         -4    1    3    3    0  501 -0.90310205178E+02  0.64547085155E+02  0.54034571647E+03  0.55163154875E+03  0.12700000000E+01 0.  1.
          2    1    1    2  502    0  0.59588818280E+01 -0.16762174440E+03  0.91185160594E+03  0.92714934542E+03  0.00000000000E+00 0. -1.
          1    1    1    2  503    0  0.48495100139E+02  0.32650967625E+02 -0.68006596764E+02  0.89681422980E+02  0.00000000000E+00 0. -1.
<mgrwt>
<rscale>  0 0.95608348E+02</rscale>
<asrwt>0</asrwt>
<pdfrwt beam="1">  1        2 0.27237410E+00 0.15635597E+03</pdfrwt>
<pdfrwt beam="2">  1        1 0.14991660E-01 0.58462470E+02</pdfrwt>
<totfact> 0.48875465E+02</totfact>
</mgrwt>
</event>
<event>
 7    1  0.3113530E-004  0.3474752E+02  0.7546771E-02  0.1566717E+00
          1   -1    0    0  503    0  0.00000000000E+00  0.00000000000E+00  0.50445133844E+02  0.50445133844E+02  0.00000000000E+00 0. -1.
         -2   -1    0    0    0  501 -0.00000000000E+00 -0.00000000000E+00 -0.33230337883E+03  0.33230337883E+03  0.00000000000E+00 0.  1.
         25    2    1    2    0    0 -0.20709658231E+02  0.58587845293E+02 -0.92838549110E+02  0.16764788440E+03  0.12500156553E+03 0.  0.
          4    1    3    3  502    0  0.39635826260E+02  0.16351699675E+02 -0.82862261003E+02  0.93306720038E+02  0.12700000000E+01 0. -1.
         -4    1    3    3    0  502 -0.60345484490E+02  0.42236145618E+02 -0.99762881062E+01  0.74341164367E+02  0.12700000000E+01 0. -1.
          1    1    1    2  503    0  0.19126564653E+02 -0.24925842297E+02 -0.10051310077E+02  0.32987147860E+02  0.00000000000E+00 0. -1.
         -2    1    1    2    0  501  0.15830935772E+01 -0.33662002996E+02 -0.17896838580E+03  0.18211348041E+03  0.00000000000E+00 0.  1.
<mgrwt>
<rscale>  0 0.33041120E+02</rscale>
<asrwt>0</asrwt>
<pdfrwt beam="1">  1        1 0.77607895E-02 0.31418515E+02</pdfrwt>
<pdfrwt beam="2">  1       -2 0.51123599E-01 0.34747524E+02</pdfrwt>
<totfact> 0.24711940E+03</totfact>
</mgrwt>
</event>
<event>
 7    1  0.3113530E-004  0.4191195E+02  0.7546771E-02  0.1504424E+00
         -2   -1    0    0    0  501 -0.00000000000E+00  0.00000000000E+00  0.19477578626E+03  0.19477578626E+03  0.00000000000E+00 0. -1.
          2   -1    0    0  503    0  0.00000000000E+00 -0.00000000000E+00 -0.61217900042E+02  0.61217900042E+02  0.00000000000E+00 0.  1.
         25    2    1    2    0    0  0.15905257396E+02  0.11095950942E+01  0.72106494930E+02  0.14517735132E+03  0.12499163296E+03 0.  0.
          4    1    3    3  502    0  0.55148976588E+02 -0.16206028714E+02  0.82938926432E+02  0.10091839972E+03  0.12700000000E+01 0. -1.
         -4    1    3    3    0  502 -0.39243719192E+02  0.17315623808E+02 -0.10832431502E+02  0.44258951593E+02  0.12700000000E+01 0. -1.
          2    1    1    2  503    0  0.33339234880E+02 -0.20567431637E+02  0.28623508762E+02  0.48516276448E+02  0.00000000000E+00 0. -1.
         -2    1    1    2    0  501 -0.49244492275E+02  0.19457836542E+02  0.32827882527E+02  0.62300058536E+02  0.00000000000E+00 0.  1.
<mgrwt>
<rscale>  0 0.40519336E+02</rscale>
<asrwt>0</asrwt>
<pdfrwt beam="2">  1        2 0.94181386E-02 0.39172999E+02</pdfrwt>
<pdfrwt beam="1">  1       -2 0.29965505E-01 0.41911945E+02</pdfrwt>
<totfact> 0.59548881E+03</totfact>
</mgrwt>
</event>
<event>
 7    1  0.3113530E-004  0.6596406E+02  0.7546771E-02  0.1510603E+00
          1   -1    0    0  503    0  0.00000000000E+00  0.00000000000E+00  0.83101581562E+02  0.83101581562E+02  0.00000000000E+00 0. -1.
         -2   -1    0    0    0  501 -0.00000000000E+00 -0.00000000000E+00 -0.19445200993E+03  0.19445200993E+03  0.00000000000E+00 0.  1.
         25    2    1    2    0    0 -0.16187499396E+02  0.66641592126E+02 -0.32062886822E+02  0.14613453739E+03  0.12499654943E+03 0.  0.
          4    1    3    3  502    0  0.21164639300E+02 -0.25584015734E+02 -0.32703263442E+02  0.46621884964E+02  0.12700000000E+01 0.  1.
         -4    1    3    3    0  502 -0.37352138696E+02  0.92225607860E+02  0.64037662041E+00  0.99512652425E+02  0.12700000000E+01 0.  1.
          1    1    1    2  503    0 -0.76555523695E+01 -0.65610920835E+02 -0.22437246900E+02  0.69762672421E+02  0.00000000000E+00 0. -1.
         -2    1    1    2    0  501  0.23843051765E+02 -0.10306712915E+01 -0.56850294641E+02  0.61656381678E+02  0.00000000000E+00 0.  1.
<mgrwt>
<rscale>  0 0.39676862E+02</rscale>
<asrwt>0</asrwt>
<pdfrwt beam="1">  1        1 0.12784859E-01 0.65964065E+02</pdfrwt>
<pdfrwt beam="2">  1       -2 0.29915694E-01 0.23865318E+02</pdfrwt>
<totfact> 0.36293181E+03</totfact>
</mgrwt>
</event>
<event>
 7    1  0.3113530E-004  0.7211072E+02  0.7546771E-02  0.1420573E+00
          3   -1    0    0  503    0 -0.00000000000E+00  0.00000000000E+00  0.23072892560E+02  0.23072892560E+02  0.00000000000E+00 0. -1.
          1   -1    0    0  502    0  0.00000000000E+00 -0.00000000000E+00 -0.19934907108E+04  0.19934907108E+04  0.00000000000E+00 0. -1.
         25    2    1    2    0    0  0.39475705854E+02 -0.18414858312E+02 -0.69224103153E+03  0.70478342539E+03  0.12499837047E+03 0.  0.
          4    1    3    3  501    0  0.53022435620E+02 -0.85427289145E+01 -0.68391961965E+03  0.68602625019E+03  0.12700000000E+01 0.  1.
         -4    1    3    3    0  501 -0.13546729766E+02 -0.98721293980E+01 -0.83214118720E+01  0.18757175207E+02  0.12700000000E+01 0.  1.
          1    1    1    2  502    0 -0.78171627843E+02  0.26163343678E+01 -0.12657652926E+04  0.12681795711E+04  0.00000000000E+00 0. -1.
          3    1    1    2  503    0  0.38695921989E+02  0.15798523945E+02 -0.12411494186E+02  0.43600606938E+02  0.00000000000E+00 0. -1.
<mgrwt>
<rscale>  0 0.54899849E+02</rscale>
<asrwt>0</asrwt>
<pdfrwt beam="2">  1        1 0.30669099E+00 0.72110723E+02</pdfrwt>
<pdfrwt beam="1">  1        3 0.35496745E-02 0.41796743E+02</pdfrwt>
<totfact> 0.65741632E+02</totfact>
</mgrwt>
</event>
<event>
 7    1  0.3113530E-004  0.2010085E+03  0.7546771E-02  0.1288145E+00
          2   -1    0    0  503    0  0.00000000000E+00  0.00000000000E+00  0.58810861109E+03  0.58810861109E+03  0.00000000000E+00 0. -1.
         -1   -1    0    0    0  501 -0.00000000000E+00 -0.00000000000E+00 -0.22181121458E+03  0.22181121458E+03  0.00000000000E+00 0.  1.
         25    2    1    2    0    0  0.20512643070E+03  0.56759217759E+02  0.19843910536E+03  0.31670377415E+03  0.12499896262E+03 0.  0.
          4    1    3    3  502    0  0.38911931695E+02 -0.78725813425E+01  0.11137090759E+03  0.11824215797E+03  0.12700000000E+01 0. -1.
         -4    1    3    3    0  502  0.16621449900E+03  0.64631799102E+02  0.87068197774E+02  0.19846161618E+03  0.12700000000E+01 0. -1.
          2    1    1    2  503    0 -0.17425198896E+03 -0.91117263610E+02  0.29692478975E+03  0.35613261878E+03  0.00000000000E+00 0. -1.
         -1    1    1    2    0  501 -0.30874441736E+02  0.34358045851E+02 -0.12906649861E+03  0.13708343273E+03  0.00000000000E+00 0.  1.
<mgrwt>
<rscale>  0 0.96358688E+02</rscale>
<asrwt>0</asrwt>
<pdfrwt beam="1">  1        2 0.90478247E-01 0.20100850E+03</pdfrwt>
<pdfrwt beam="2">  1       -1 0.34124802E-01 0.46192061E+02</pdfrwt>
<totfact> 0.47721940E+02</totfact>
</mgrwt>
</event>
<event>
 7    1  0.3113530E-004  0.5696606E+02  0.7546771E-02  0.1544871E+00
          2   -1    0    0  502    0  0.00000000000E+00  0.00000000000E+00  0.78709026224E+03  0.78709026224E+03  0.00000000000E+00 0.  1.
          3   -1    0    0  503    0 -0.00000000000E+00 -0.00000000000E+00 -0.84475997213E+02  0.84475997213E+02  0.00000000000E+00 0. -1.
         25    2    1    2    0    0  0.49315407159E+02  0.93483501160E+01  0.14401285492E+03  0.19719338010E+03  0.12500450287E+03 0.  0.
          4    1    3    3  501    0 -0.39526658743E+02 -0.94605546229E+01  0.25941290309E+02  0.48232999990E+02  0.12700000000E+01 0.  1.
         -4    1    3    3    0  501  0.88842065901E+02  0.18808904739E+02  0.11807156462E+03  0.14896038011E+03  0.12700000000E+01 0.  1.
          2    1    1    2  502    0 -0.72431870952E+00  0.22015695352E+02  0.60178948935E+03  0.60219249827E+03  0.00000000000E+00 0.  1.
          3    1    1    2  503    0 -0.48591088449E+02 -0.31364045468E+02 -0.43188079247E+02  0.72180381087E+02  0.00000000000E+00 0. -1.
<mgrwt>
<rscale>  0 0.35423523E+02</rscale>
<asrwt>0</asrwt>
<pdfrwt beam="1">  1        2 0.12109080E+00 0.22027607E+02</pdfrwt>
<pdfrwt beam="2">  1        3 0.12996308E-01 0.56966060E+02</pdfrwt>
<totfact> 0.10168146E+03</totfact>
</mgrwt>
</event>
<event>
 7    1  0.3113530E-004  0.6235185E+02  0.7546771E-02  0.1438439E+00
         -1   -1    0    0    0  501  0.00000000000E+00  0.00000000000E+00  0.86675446678E+03  0.86675446678E+03  0.00000000000E+00 0.  1.
         -1   -1    0    0    0  502 -0.00000000000E+00 -0.00000000000E+00 -0.44226071457E+03  0.44226071457E+03  0.00000000000E+00 0. -1.
         25    2    1    2    0    0  0.57205512988E+02  0.35284631622E+02  0.38164932832E+03  0.40718393053E+03  0.12500027014E+03 0.  0.
          4    1    3    3  503    0  0.91152459664E+02  0.42090357229E+02  0.21951599980E+03  0.24139025694E+03  0.12700000000E+01 0.  1.
         -4    1    3    3    0  503 -0.33946946676E+02 -0.68057256067E+01  0.16213332851E+03  0.16579367360E+03  0.12700000000E+01 0.  1.
         -1    1    1    2    0  502 -0.62049431705E+02  0.66481502348E+01 -0.42627394058E+03  0.43081759748E+03  0.00000000000E+00 0. -1.
         -1    1    1    2    0  501  0.48439187170E+01 -0.41932781857E+02  0.46911836448E+03  0.47101365334E+03  0.00000000000E+00 0.  1.
<mgrwt>
<rscale>  0 0.51302759E+02</rscale>
<asrwt>0</asrwt>
<pdfrwt beam="1">  1       -1 0.13334684E+00 0.42211630E+02</pdfrwt>
<pdfrwt beam="2">  1       -1 0.68040110E-01 0.62351845E+02</pdfrwt>
<totfact> 0.11420361E+01</totfact>
</mgrwt>
</event>
<event>
 7    1  0.3113530E-004  0.5233693E+02  0.7546771E-02  0.1484289E+00
         -2   -1    0    0    0  501 -0.00000000000E+00  0.00000000000E+00  0.14327024475E+03  0.14327024475E+03  0.00000000000E+00 0.  1.
          2   -1    0    0  503    0  0.00000000000E+00 -0.00000000000E+00 -0.55786227252E+03  0.55786227252E+03  0.00000000000E+00 0. -1.
         25    2    1    2    0    0  0.57090463196E+02  0.11412354311E+02 -0.34862176100E+02  0.14223550395E+03  0.12500401771E+03 0.  0.
          4    1    3    3  502    0  0.63797782587E+02 -0.81359510429E+00  0.33762684696E+02  0.72196611956E+02  0.12700000000E+01 0. -1.
         -4    1    3    3    0  502 -0.67073193912E+01  0.12225949416E+02 -0.68624860795E+02  0.70038891994E+02  0.12700000000E+01 0. -1.
          2    1    1    2  503    0 -0.34528002335E+02 -0.39546574917E+02 -0.46414310160E+03  0.46710270101E+03  0.00000000000E+00 0. -1.
         -2    1    1    2    0  501 -0.22562460861E+02  0.28134220605E+02  0.84413249931E+02  0.91794312313E+02  0.00000000000E+00 0.  1.
<mgrwt>
<rscale>  0 0.43445019E+02</rscale>
<asrwt>0</asrwt>
<pdfrwt beam="2">  1        2 0.85824964E-01 0.52336933E+02</pdfrwt>
<pdfrwt beam="1">  1       -2 0.22041576E-01 0.36063819E+02</pdfrwt>
<totfact> 0.93909973E+02</totfact>
</mgrwt>
</event>
<event>
 7    1  0.3113530E-004  0.1090742E+03  0.7546771E-02  0.1326436E+00
          1   -1    0    0  503    0  0.00000000000E+00  0.00000000000E+00  0.19850277980E+04  0.19850277980E+04  0.00000000000E+00 0. -1.
         -2   -1    0    0    0  501 -0.00000000000E+00 -0.00000000000E+00 -0.10527964517E+03  0.10527964517E+03  0.00000000000E+00 0.  1.
         25    2    1    2    0    0  0.22558798310E+01 -0.11236810247E+03  0.88646643965E+03  0.90226348537E+03  0.12499987585E+03 0.  0.
          4    1    3    3  502    0  0.55420114609E+02 -0.81444093817E+02  0.40148665517E+03  0.41339772218E+03  0.12700000000E+01 0. -1.
         -4    1    3    3    0  502 -0.53164234778E+02 -0.30924008650E+02  0.48497978448E+03  0.48886576320E+03  0.12700000000E+01 0. -1.
          1    1    1    2  503    0  0.55879468663E+02  0.97340998786E+02  0.10782080279E+04  0.10840342875E+04  0.00000000000E+00 0. -1.
         -2    1    1    2    0  501 -0.58135348494E+02  0.15027103682E+02 -0.84926314701E+02  0.10400967031E+03  0.00000000000E+00 0.  1.
<mgrwt>
<rscale>  0 0.80928868E+02</rscale>
<asrwt>0</asrwt>
<pdfrwt beam="1">  1        1 0.30538886E+00 0.10907425E+03</pdfrwt>
<pdfrwt beam="2">  1       -2 0.16196870E-01 0.60046087E+02</pdfrwt>
<totfact> 0.95383359E+01</totfact>
</mgrwt>
</event>
<event>
 7    1  0.3113530E-004  0.3900886E+02  0.7546771E-02  0.1525909E+00
          2   -1    0    0  502    0  0.00000000000E+00  0.00000000000E+00  0.87912368108E+03  0.87912368108E+03  0.00000000000E+00 0. -1.
          1   -1    0    0  503    0 -0.00000000000E+00 -0.00000000000E+00 -0.14576988593E+04  0.14576988593E+04  0.00000000000E+00 0. -1.
         25    2    1    2    0    0 -0.11195747182E+02 -0.20003345189E+02  0.14074459938E+03  0.18962367122E+03  0.12499046307E+03 0.  0.
          4    1    3    3  501    0 -0.65166356962E+02 -0.28487877162E+02  0.92792534335E+02  0.11691997500E+03  0.12700000000E+01 0. -1.
         -4    1    3    3    0  501  0.53970609780E+02  0.84845319726E+01  0.47952065048E+02  0.72703696228E+02  0.12700000000E+01 0. -1.
          2    1    1    2  502    0 -0.23108858025E+02  0.32239619978E+02  0.71315693285E+03  0.71425921295E+03  0.00000000000E+00 0. -1.
          1    1    1    2  503    0  0.34304605207E+02 -0.12236274789E+02 -0.14324767105E+04  0.14329396562E+04  0.00000000000E+00 0. -1.
<mgrwt>
<rscale>  0 0.37693036E+02</rscale>
<asrwt>0</asrwt>
<pdfrwt beam="1">  1        2 0.13524980E+00 0.39008865E+02</pdfrwt>
<pdfrwt beam="2">  1        1 0.22426136E+00 0.36421592E+02</pdfrwt>
<totfact> 0.43241401E+01</totfact>
</mgrwt>
</event>
<event>
 7    1  0.3113530E-004  0.8510308E+02  0.7546771E-02  0.1365834E+00
          2   -1    0    0  503    0  0.00000000000E+00  0.00000000000E+00  0.31583557468E+03  0.31583557468E+03  0.00000000000E+00 0. -1.
          2   -1    0    0  502    0 -0.00000000000E+00 -0.00000000000E+00 -0.55367805675E+03  0.55367805675E+03  0.00000000000E+00 0. -1.
         25    2    1    2    0    0  0.46855746033E+02 -0.39442400955E+02 -0.40740815215E+03  0.43053125117E+03  0.12499836744E+03 0.  0.
          4    1    3    3  501    0  0.17414092605E+02  0.12550627076E+02 -0.33905257354E+03  0.33973376250E+03  0.12700000000E+01 0.  1.
         -4    1    3    3    0  501  0.29441653427E+02 -0.51993028031E+02 -0.68355578613E+02  0.90797488665E+02  0.12700000000E+01 0.  1.
          2    1    1    2  502    0 -0.31622488262E+02 -0.44850242725E+02 -0.12270532256E+03  0.13441771543E+03  0.00000000000E+00 0. -1.
          2    1    1    2  503    0 -0.15233257771E+02  0.84292643680E+02  0.29227099265E+03  0.30456466483E+03  0.00000000000E+00 0. -1.
<mgrwt>
<rscale>  0 0.68339107E+02</rscale>
<asrwt>0</asrwt>
<pdfrwt beam="1">  1        2 0.48590088E-01 0.85103083E+02</pdfrwt>
<pdfrwt beam="2">  1        2 0.85181239E-01 0.54877373E+02</pdfrwt>
<totfact> 0.91094411E+02</totfact>
</mgrwt>
</event>
<event>
 7    1  0.3113530E-004  0.1356773E+03  0.7546771E-02  0.1365254E+00
          1   -1    0    0  502    0  0.00000000000E+00  0.00000000000E+00  0.66632394610E+03  0.66632394610E+03  0.00000000000E+00 0. -1.
          1   -1    0    0  503    0 -0.00000000000E+00 -0.00000000000E+00 -0.21866299552E+03  0.21866299552E+03  0.00000000000E+00 0. -1.
         25    2    1    2    0    0  0.99073997096E+02  0.30436542687E+02 -0.68243282366E+02  0.17614556941E+03  0.12501230340E+03 0.  0.
          4    1    3    3  501    0  0.69454344249E+02 -0.17241648555E+02  0.17475999390E+02  0.73676345150E+02  0.12700000000E+01 0.  1.
         -4    1    3    3    0  501  0.29619652848E+02  0.47678191242E+02 -0.85719281756E+02  0.10246922426E+03  0.12700000000E+01 0.  1.
          1    1    1    2  502    0 -0.12949850240E+03 -0.46889906028E+02  0.60121342434E+03  0.61678692189E+03  0.00000000000E+00 0. -1.
          1    1    1    2  503    0  0.30424505308E+02  0.16453363342E+02 -0.85309191394E+02  0.92054450326E+02  0.00000000000E+00 0. -1.
<mgrwt>
<rscale>  0 0.68504545E+02</rscale>
<asrwt>0</asrwt>
<pdfrwt beam="1">  1        1 0.10251138E+00 0.13567729E+03</pdfrwt>
<pdfrwt beam="2">  1        1 0.33640461E-01 0.34588491E+02</pdfrwt>
<totfact> 0.47325705E+02</totfact>
</mgrwt>
</event>
<event>
 7    1  0.3113530E-004  0.5433059E+02  0.7546771E-02  0.1462174E+00
         -2   -1    0    0    0  501 -0.00000000000E+00  0.00000000000E+00  0.15744542733E+02  0.15744542733E+02  0.00000000000E+00 0.  1.
          2   -1    0    0  503    0  0.00000000000E+00 -0.00000000000E+00 -0.11278029551E+04  0.11278029551E+04  0.00000000000E+00 0. -1.
         25    2    1    2    0    0  0.14215096266E+02 -0.13009073308E+02 -0.80609278076E+03  0.81595679888E+03  0.12501448515E+03 0.  0.
          4    1    3    3  502    0 -0.40602638851E+02  0.10240227618E+02 -0.59918702703E+03  0.60064976717E+03  0.12700000000E+01 0. -1.
         -4    1    3    3    0  502  0.54817735117E+02 -0.23249300926E+02 -0.20690575373E+03  0.21530703171E+03  0.12700000000E+01 0. -1.
          2    1    1    2  503    0  0.14804370520E+02 -0.37884907712E+02 -0.21891391180E+03  0.22266058564E+03  0.00000000000E+00 0. -1.
         -2    1    1    2    0  501 -0.29019466786E+02  0.50893981020E+02 -0.87051719780E+02  0.10493011328E+03  0.00000000000E+00 0.  1.
<mgrwt>
<rscale>  0 0.47009395E+02</rscale>
<asrwt>0</asrwt>
<pdfrwt beam="2">  1        2 0.17350820E+00 0.40674754E+02</pdfrwt>
<pdfrwt beam="1">  1       -2 0.24222366E-02 0.54330586E+02</pdfrwt>
<totfact> 0.11805035E+04</totfact>
</mgrwt>
</event>
<event>
 7    1  0.3113530E-004  0.1176020E+03  0.7546771E-02  0.1311433E+00
          2   -1    0    0  502    0  0.00000000000E+00  0.00000000000E+00  0.52753118400E+03  0.52753118400E+03  0.00000000000E+00 0. -1.
          1   -1    0    0  503    0 -0.00000000000E+00 -0.00000000000E+00 -0.80772474836E+03  0.80772474836E+03  0.00000000000E+00 0. -1.
         25    2    1    2    0    0 -0.12069060193E+03 -0.61384664533E+02 -0.10345535077E+02  0.18456877833E+03  0.12499722159E+03 0.  0.
          4    1    3    3  501    0 -0.97111389774E+02 -0.56660058017E+01  0.40645599537E+02  0.10543435544E+03  0.12700000000E+01 0.  1.
         -4    1    3    3    0  501 -0.23579212154E+02 -0.55718658731E+02 -0.50991134614E+02  0.79134422888E+02  0.12700000000E+01 0.  1.
          2    1    1    2  502    0  0.67304536460E+02  0.96125183604E+02  0.43113355255E+03  0.44681773878E+03  0.00000000000E+00 0. -1.
          1    1    1    2  503    0  0.53386065467E+02 -0.34740519072E+02 -0.70098158184E+03  0.70386941526E+03  0.00000000000E+00 0. -1.
<mgrwt>
<rscale>  0 0.86548197E+02</rscale>
<asrwt>0</asrwt>
<pdfrwt beam="1">  1        2 0.81158643E-01 0.11760204E+03</pdfrwt>
<pdfrwt beam="2">  1        1 0.12426535E+00 0.63694393E+02</pdfrwt>
<totfact> 0.19849306E+02</totfact>
</mgrwt>
</event>
<event>
 7    1  0.3113530E-004  0.6952514E+02  0.7546771E-02  0.1479203E+00
         -1   -1    0    0    0  501 -0.00000000000E+00  0.00000000000E+00  0.66105740163E+02  0.66105740163E+02  0.00000000000E+00 0.  1.
          2   -1    0    0  503    0  0.00000000000E+00 -0.00000000000E+00 -0.96064416216E+03  0.96064416216E+03  0.00000000000E+00 0. -1.
         25    2    1    2    0    0  0.23904201372E+01  0.89048735680E+02 -0.10854932467E+03  0.18799897950E+03  0.12500107588E+03 0.  0.
          4    1    3    3  502    0 -0.59229998254E+02  0.61923693041E+02 -0.67945795825E+02  0.10936626776E+03  0.12700000000E+01 0. -1.
         -4    1    3    3    0  502  0.61620418391E+02  0.27125042639E+02 -0.40603528846E+02  0.78632711741E+02  0.12700000000E+01 0. -1.
          2    1    1    2  503    0  0.15310523072E+02 -0.67175138197E+02 -0.80294698626E+03  0.80589749600E+03  0.00000000000E+00 0. -1.
         -1    1    1    2    0  501 -0.17700943209E+02 -0.21873597483E+02  0.16957888934E+02  0.32853426830E+02  0.00000000000E+00 0.  1.
<mgrwt>
<rscale>  0 0.44230490E+02</rscale>
<asrwt>0</asrwt>
<pdfrwt beam="2">  1        2 0.14779141E+00 0.69525142E+02</pdfrwt>
<pdfrwt beam="1">  1       -1 0.10170114E-01 0.28138544E+02</pdfrwt>
<totfact> 0.17123179E+03</totfact>
</mgrwt>
</event>
<event>
 7    1  0.3113530E-004  0.9052123E+02  0.7546771E-02  0.1404736E+00
          2   -1    0    0  502    0  0.00000000000E+00  0.00000000000E+00  0.71539565584E+03  0.71539565584E+03  0.00000000000E+00 0. -1.
          2   -1    0    0  503    0 -0.00000000000E+00 -0.00000000000E+00 -0.10502536330E+04  0.10502536330E+04  0.00000000000E+00 0. -1.
         25    2    1    2    0    0 -0.81281362206E+02 -0.94387845592E+01  0.29447461561E+03  0.33019729120E+03  0.12497680337E+03 0.  0.
          4    1    3    3  501    0 -0.59946642748E+01 -0.21386869258E+02 -0.35914284950E+01  0.22535426223E+02  0.12700000000E+01 0.  1.
         -4    1    3    3    0  501 -0.75286697931E+02  0.11948084698E+02  0.29806604410E+03  0.30766186498E+03  0.12700000000E+01 0.  1.
          2    1    1    2  502    0  0.90962933345E+02 -0.26953281352E+02  0.39712688691E+03  0.40830197027E+03  0.00000000000E+00 0. -1.
          2    1    1    2  503    0 -0.96815711395E+01  0.36392065911E+02 -0.10264594797E+04  0.10271500274E+04  0.00000000000E+00 0. -1.
<mgrwt>
<rscale>  0 0.58385245E+02</rscale>
<asrwt>0</asrwt>
<pdfrwt beam="1">  1        2 0.11006087E+00 0.90521228E+02</pdfrwt>
<pdfrwt beam="2">  1        2 0.16157748E+00 0.37657871E+02</pdfrwt>
<totfact> 0.17966461E+02</totfact>
</mgrwt>
</event>
<event>
 7    1  0.3118832E-004  0.1295858E+03  0.7546771E-02  0.1419161E+00
         -2   -1    0    0    0  501 -0.00000000000E+00  0.00000000000E+00  0.26286024810E+03  0.26286024810E+03  0.00000000000E+00 0.  1.
          1   -1    0    0  503    0  0.00000000000E+00 -0.00000000000E+00 -0.10719827191E+03  0.10719827191E+03  0.00000000000E+00 0. -1.
         25    2    1    2    0    0  0.80844121357E+02  0.10279040398E+03  0.10279092648E+03  0.20806718805E+03  0.12499736425E+03 0.  0.
          4    1    3    3  502    0  0.73691960359E+02  0.79131844027E+01  0.93665921817E+01  0.74715925063E+02  0.12700000000E+01 0. -1.
         -4    1    3    3    0  502  0.71521609977E+01  0.94877219574E+02  0.93424334296E+02  0.13335126298E+03  0.12700000000E+01 0. -1.
          1    1    1    2  503    0  0.16230383918E+02 -0.17012470623E+02  0.64365908393E+01  0.24377842817E+02  0.00000000000E+00 0. -1.
         -2    1    1    2    0  501 -0.97074505274E+02 -0.85777933354E+02  0.46434458872E+02  0.13761348915E+03  0.00000000000E+00 0.  1.
<mgrwt>
<rscale>  0 0.55198905E+02</rscale>
<asrwt>0</asrwt>
<pdfrwt beam="2">  1        1 0.16492042E-01 0.23512752E+02</pdfrwt>
<pdfrwt beam="1">  1       -2 0.40440038E-01 0.12958581E+03</pdfrwt>
<totfact> 0.14959621E+03</totfact>
</mgrwt>
</event>
<event>
 7    1  0.3113530E-004  0.6673644E+02  0.7546771E-02  0.1371901E+00
          1   -1    0    0  502    0  0.00000000000E+00  0.00000000000E+00  0.38456593895E+03  0.38456593895E+03  0.00000000000E+00 0. -1.
          1   -1    0    0  503    0 -0.00000000000E+00 -0.00000000000E+00 -0.26290220226E+03  0.26290220226E+03  0.00000000000E+00 0. -1.
         25    2    1    2    0    0 -0.22952368165E+01 -0.14313622814E+02  0.42326561984E+01  0.12590762914E+03  0.12499867114E+03 0.  0.
          4    1    3    3  501    0 -0.25603444026E+02 -0.93254346475E+01  0.59637279315E+02  0.65579860182E+02  0.12700000000E+01 0. -1.
         -4    1    3    3    0  501  0.23308207210E+02 -0.49881881664E+01 -0.55404623116E+02  0.60327768956E+02  0.12700000000E+01 0. -1.
          1    1    1    2  502    0  0.69031410399E+02  0.14502785979E+02  0.30991216368E+03  0.31783834825E+03  0.00000000000E+00 0. -1.
          1    1    1    2  503    0 -0.66736173582E+02 -0.18916316533E+00 -0.19248108319E+03  0.20372216382E+03  0.00000000000E+00 0. -1.
<mgrwt>
<rscale>  0 0.66641604E+02</rscale>
<asrwt>0</asrwt>
<pdfrwt beam="1">  1        1 0.59163991E-01 0.66546902E+02</pdfrwt>
<pdfrwt beam="2">  1        1 0.40446493E-01 0.66736442E+02</pdfrwt>
<totfact> 0.79679056E+02</totfact>
</mgrwt>
</event>
<event>
 7    1  0.3113530E-004  0.4453708E+02  0.7546771E-02  0.1515230E+00
          2   -1    0    0  503    0  0.00000000000E+00  0.00000000000E+00  0.42407661783E+03  0.42407661783E+03  0.00000000000E+00 0. -1.
         -1   -1    0    0    0  501 -0.00000000000E+00 -0.00000000000E+00 -0.32211072441E+02  0.32211072441E+02  0.00000000000E+00 0.  1.
         25    2    1    2    0    0 -0.36460544085E+02 -0.41485494638E+02  0.24770845031E+03  0.28290761491E+03  0.12500729851E+03 0.  0.
          4    1    3    3  502    0  0.10385807671E+02 -0.45316463127E+02  0.22667598189E+03  0.23139805638E+03  0.12700000000E+01 0. -1.
         -4    1    3    3    0  502 -0.46846351755E+02  0.38309684883E+01  0.21032468423E+02  0.51509558533E+02  0.12700000000E+01 0. -1.
          2    1    1    2  503    0  0.43580260545E+02  0.79734879615E+01  0.12809806206E+03  0.13554308955E+03  0.00000000000E+00 0. -1.
         -1    1    1    2    0  501 -0.71197164604E+01  0.33512006677E+02  0.16059033015E+02  0.37836985812E+02  0.00000000000E+00 0.  1.
<mgrwt>
<rscale>  0 0.39061987E+02</rscale>
<asrwt>0</asrwt>
<pdfrwt beam="1">  1        2 0.65242552E-01 0.44537085E+02</pdfrwt>
<pdfrwt beam="2">  1       -1 0.49555499E-02 0.34259961E+02</pdfrwt>
<totfact> 0.12498662E+04</totfact>
</mgrwt>
</event>
<event>
 7    1  0.3113530E-004  0.4764358E+02  0.7546771E-02  0.1484737E+00
          1   -1    0    0  503    0  0.00000000000E+00  0.00000000000E+00  0.22218409620E+03  0.22218409620E+03  0.00000000000E+00 0. -1.
         -2   -1    0    0    0  501 -0.00000000000E+00 -0.00000000000E+00 -0.63626256110E+02  0.63626256110E+02  0.00000000000E+00 0.  1.
         25    2    1    2    0    0  0.27357900496E+02 -0.52622383586E+02  0.99421469871E+02  0.17036652717E+03  0.12499021935E+03 0.  0.
          4    1    3    3  502    0  0.56929105110E+02  0.17764517667E+02  0.28319437109E+02  0.66031087487E+02  0.12700000000E+01 0.  1.
         -4    1    3    3    0  502 -0.29571204614E+02 -0.70386901252E+02  0.71102032762E+02  0.10433543968E+03  0.12700000000E+01 0.  1.
          1    1    1    2  503    0 -0.42761055346E+02  0.16258037433E+02  0.17490887619E+01  0.45780901552E+02  0.00000000000E+00 0. -1.
         -2    1    1    2    0  501  0.15403154849E+02  0.36364346152E+02  0.57387281458E+02  0.69662923593E+02  0.00000000000E+00 0.  1.
<mgrwt>
<rscale>  0 0.43376757E+02</rscale>
<asrwt>0</asrwt>
<pdfrwt beam="1">  1        1 0.34182168E-01 0.47643578E+02</pdfrwt>
<pdfrwt beam="2">  1       -2 0.97886549E-02 0.39492061E+02</pdfrwt>
<totfact> 0.65921441E+03</totfact>
</mgrwt>
</event>
<event>
 7    1  0.3113530E-004  0.1017034E+03  0.7546771E-02  0.1439000E+00
          2   -1    0    0  503    0  0.00000000000E+00  0.00000000000E+00  0.14341758913E+03  0.14341758913E+03  0.00000000000E+00 0. -1.
          2   -1    0    0  502    0 -0.00000000000E+00 -0.00000000000E+00 -0.26347050013E+04  0.26347050013E+04  0.00000000000E+00 0. -1.
         25    2    1    2    0    0 -0.29166760718E+00  0.11325126456E+03 -0.15179301681E+04  0.15272733791E+04  0.12500418065E+03 0.  0.
          4    1    3    3  501    0 -0.33746338714E+02  0.85612849785E+02 -0.13704366920E+04  0.13735234672E+04  0.12700000000E+01 0. -1.
         -4    1    3    3    0  501  0.33454671107E+02  0.27638414776E+02 -0.14749347619E+03  0.15374991190E+03  0.12700000000E+01 0. -1.
          2    1    1    2  502    0 -0.18244149141E+02 -0.95347563925E+02 -0.11087671794E+04  0.11130088342E+04  0.00000000000E+00 0. -1.
          2    1    1    2  503    0  0.18535816748E+02 -0.17903700636E+02  0.13540993530E+03  0.13784037717E+03  0.00000000000E+00 0. -1.
<mgrwt>
<rscale>  0 0.51195204E+02</rscale>
<asrwt>0</asrwt>
<pdfrwt beam="1">  1        2 0.22064246E-01 0.25770506E+02</pdfrwt>
<pdfrwt beam="2">  1        2 0.40533920E+00 0.10170343E+03</pdfrwt>
<totfact> 0.13596049E+02</totfact>
</mgrwt>
</event>
<event>
 7    1  0.3113530E-004  0.5332396E+02  0.7546771E-02  0.1483417E+00
          2   -1    0    0  502    0  0.00000000000E+00  0.00000000000E+00  0.65921767945E+02  0.65921767945E+02  0.00000000000E+00 0. -1.
          1   -1    0    0  503    0 -0.00000000000E+00 -0.00000000000E+00 -0.14792435864E+04  0.14792435864E+04  0.00000000000E+00 0. -1.
         25    2    1    2    0    0  0.35875421991E+02  0.28577061020E+02 -0.12679676541E+03  0.18386705407E+03  0.12500391808E+03 0.  0.
          4    1    3    3  501    0  0.34859930947E+02  0.77007237694E+02 -0.76278995040E+02  0.11386583082E+03  0.12700000000E+01 0.  1.
         -4    1    3    3    0  501  0.10154910443E+01 -0.48430176674E+02 -0.50517770367E+02  0.70001223258E+02  0.12700000000E+01 0.  1.
          2    1    1    2  502    0 -0.55599337628E+02  0.10761979410E+01  0.16329002252E+02  0.57957578117E+02  0.00000000000E+00 0. -1.
          1    1    1    2  503    0  0.19723915637E+02 -0.29653258961E+02 -0.13028540553E+04  0.13033407222E+04  0.00000000000E+00 0. -1.
<mgrwt>
<rscale>  0 0.43578357E+02</rscale>
<asrwt>0</asrwt>
<pdfrwt beam="1">  1        2 0.10141810E-01 0.53323960E+02</pdfrwt>
<pdfrwt beam="2">  1        1 0.22757594E+00 0.35613882E+02</pdfrwt>
<totfact> 0.69535323E+02</totfact>
</mgrwt>
</event>
<event>
 7    1  0.3113530E-004  0.4560077E+02  0.7546771E-02  0.1537955E+00
         -1   -1    0    0    0  501 -0.00000000000E+00  0.00000000000E+00  0.30149818440E+03  0.30149818440E+03  0.00000000000E+00 0.  1.
          2   -1    0    0  503    0  0.00000000000E+00 -0.00000000000E+00 -0.42750422373E+02  0.42750422373E+02  0.00000000000E+00 0. -1.
         25    2    1    2    0    0  0.43926786511E+02  0.19203563247E+02  0.17793240793E+03  0.22266677223E+03  0.12498884050E+03 0.  0.
          4    1    3    3  502    0 -0.25332903331E+02  0.43372631212E+02  0.32681730659E+02  0.59938714937E+02  0.12700000000E+01 0. -1.
         -4    1    3    3    0  502  0.69259689842E+02 -0.24169067964E+02  0.14525067727E+03  0.16272805729E+03  0.12700000000E+01 0. -1.
          2    1    1    2  503    0 -0.45447005149E+02  0.95386391742E+01  0.13481973264E+02  0.48354725906E+02  0.00000000000E+00 0. -1.
         -1    1    1    2    0  501  0.15202186385E+01 -0.28742202422E+02  0.67333380838E+02  0.73227108641E+02  0.00000000000E+00 0.  1.
<mgrwt>
<rscale>  0 0.36228422E+02</rscale>
<asrwt>0</asrwt>
<pdfrwt beam="2">  1        2 0.65769883E-02 0.45600770E+02</pdfrwt>
<pdfrwt beam="1">  1       -1 0.46384335E-01 0.28782378E+02</pdfrwt>
<totfact> 0.51136317E+03</totfact>
</mgrwt>
</event>
<event>
 7    1  0.3113530E-004  0.7421918E+02  0.7546771E-02  0.1375805E+00
          2   -1    0    0  502    0  0.00000000000E+00  0.00000000000E+00  0.37973488346E+03  0.37973488346E+03  0.00000000000E+00 0. -1.
          2   -1    0    0  503    0 -0.00000000000E+00 -0.00000000000E+00 -0.70596741895E+03  0.70596741895E+03  0.00000000000E+00 0. -1.
         25    2    1    2    0    0 -0.91078449229E+01  0.23143142831E+02 -0.21747461598E+01  0.12747061185E+03  0.12500187784E+03 0.  0.
          4    1    3    3  501    0 -0.36152169094E+02 -0.26900612998E+02 -0.39072048234E+02  0.59656182941E+02  0.12700000000E+01 0. -1.
         -4    1    3    3    0  501  0.27044324171E+02  0.50043755830E+02  0.36897302074E+02  0.67814428905E+02  0.12700000000E+01 0. -1.
          2    1    1    2  502    0  0.61116093504E+02 -0.48693201826E+02  0.31093334681E+03  0.32060216928E+03  0.00000000000E+00 0. -1.
          2    1    1    2  503    0 -0.52008248581E+02  0.25550058995E+02 -0.63499113614E+03  0.63762952128E+03  0.00000000000E+00 0. -1.
<mgrwt>
<rscale>  0 0.65579389E+02</rscale>
<asrwt>0</asrwt>
<pdfrwt beam="1">  1        2 0.58420751E-01 0.74219181E+02</pdfrwt>
<pdfrwt beam="2">  1        2 0.10861037E+00 0.57945349E+02</pdfrwt>
<totfact> 0.57364091E+02</totfact>
</mgrwt>
</event>
<event>
 7    1  0.3113530E-004  0.1712166E+03  0.7546771E-02  0.1356087E+00
          2   -1    0    0  502    0  0.00000000000E+00  0.00000000000E+00  0.66758562272E+03  0.66758562272E+03  0.00000000000E+00 0. -1.
          2   -1    0    0  503    0 -0.00000000000E+00 -0.00000000000E+00 -0.10030299948E+04  0.10030299948E+04  0.00000000000E+00 0. -1.
         25    2    1    2    0    0  0.13550557188E+03 -0.14003886244E+03  0.18784023496E+02  0.23227178051E+03  0.12499878991E+03 0.  0.
          4    1    3    3  501    0  0.61309849743E+01  0.71741984668E+00 -0.33483020578E+02  0.34070944146E+02  0.12700000000E+01 0. -1.
         -4    1    3    3    0  501  0.12937458690E+03 -0.14075628228E+03  0.52267044074E+02  0.19820083636E+03  0.12700000000E+01 0. -1.
          2    1    1    2  502    0 -0.74132071861E+01  0.28658039390E+02  0.53360695927E+03  0.53442738126E+03  0.00000000000E+00 0. -1.
          2    1    1    2  503    0 -0.12809236469E+03  0.11138082305E+03 -0.88783535487E+03  0.90391645576E+03  0.00000000000E+00 0. -1.
<mgrwt>
<rscale>  0 0.71191579E+02</rscale>
<asrwt>0</asrwt>
<pdfrwt beam="1">  1        2 0.10270548E+00 0.29601332E+02</pdfrwt>
<pdfrwt beam="2">  1        2 0.15431231E+00 0.17121665E+03</pdfrwt>
<totfact> 0.19705512E+02</totfact>
</mgrwt>
</event>
<event>
 7    1  0.3113530E-004  0.1611047E+03  0.7546771E-02  0.1383698E+00
         -1   -1    0    0    0  501 -0.00000000000E+00  0.00000000000E+00  0.88732861583E+02  0.88732861583E+02  0.00000000000E+00 0.  1.
          2   -1    0    0  503    0  0.00000000000E+00 -0.00000000000E+00 -0.89308740783E+03  0.89308740783E+03  0.00000000000E+00 0. -1.
         25    2    1    2    0    0  0.79190564817E+02  0.13596992301E+03 -0.63901956884E+03  0.66987419858E+03  0.12500586805E+03 0.  0.
          4    1    3    3  502    0  0.54606344792E+02  0.72704875892E+02 -0.55233653663E+03  0.55977237737E+03  0.12700000000E+01 0.  1.
         -4    1    3    3    0  502  0.24584220025E+02  0.63265047113E+02 -0.86683032201E+02  0.11010182120E+03  0.12700000000E+01 0.  1.
          2    1    1    2  503    0  0.22811210079E+02 -0.10302895924E+02 -0.14693313087E+03  0.14904981018E+03  0.00000000000E+00 0. -1.
         -1    1    1    2    0  501 -0.10200177490E+03 -0.12566702708E+03 -0.18401846543E+02  0.16289626065E+03  0.00000000000E+00 0.  1.
<mgrwt>
<rscale>  0 0.63501577E+02</rscale>
<asrwt>0</asrwt>
<pdfrwt beam="2">  1        2 0.13739807E+00 0.25030001E+02</pdfrwt>
<pdfrwt beam="1">  1       -1 0.13651209E-01 0.16110468E+03</pdfrwt>
<totfact> 0.14203028E+03</totfact>
</mgrwt>
</event>
<event>
 7    1  0.3113530E-004  0.6712945E+02  0.7546771E-02  0.1383420E+00
          3   -1    0    0  503    0 -0.00000000000E+00  0.00000000000E+00  0.16553839057E+03  0.16553839057E+03  0.00000000000E+00 0. -1.
          1   -1    0    0  502    0  0.00000000000E+00 -0.00000000000E+00 -0.47261562274E+03  0.47261562274E+03  0.00000000000E+00 0. -1.
         25    2    1    2    0    0  0.20950141892E+02  0.10842405171E+02  0.16279203727E+01  0.12721366024E+03  0.12499679609E+03 0.  0.
          4    1    3    3  501    0  0.66469385847E+02  0.46840731715E+01  0.30129863427E+02  0.73140558970E+02  0.12700000000E+01 0.  1.
         -4    1    3    3    0  501 -0.45519243955E+02  0.61583319994E+01 -0.28501943054E+02  0.54073101271E+02  0.12700000000E+01 0.  1.
          1    1    1    2  502    0  0.19210851409E+02  0.57058292837E+02 -0.39177866037E+03  0.39637762843E+03  0.00000000000E+00 0. -1.
          3    1    1    2  503    0 -0.40160993301E+02 -0.67900698008E+02  0.83073507829E+02  0.11456272464E+03  0.00000000000E+00 0. -1.
<mgrwt>
<rscale>  0 0.63573298E+02</rscale>
<asrwt>0</asrwt>
<pdfrwt beam="2">  1        1 0.72710096E-01 0.60205528E+02</pdfrwt>
<pdfrwt beam="1">  1        3 0.25467445E-01 0.67129455E+02</pdfrwt>
<totfact> 0.36346854E+02</totfact>
</mgrwt>
</event>
<event>
 7    1  0.3113530E-004  0.4249687E+02  0.7546771E-02  0.1505253E+00
          2   -1    0    0  503    0  0.00000000000E+00  0.00000000000E+00  0.36751002300E+04  0.36751002300E+04  0.00000000000E+00 0. -1.
         -2   -1    0    0    0  501 -0.00000000000E+00 -0.00000000000E+00 -0.15855140986E+02  0.15855140986E+02  0.00000000000E+00 0.  1.
         25    2    1    2    0    0  0.35450195764E+02  0.41919235209E+02  0.14298278385E+04  0.14363309897E+04  0.12500050213E+03 0.  0.
          4    1    3    3  502    0  0.58683896040E+02  0.11257628030E+02  0.12876122940E+04  0.12889986681E+04  0.12700000000E+01 0.  1.
         -4    1    3    3    0  502 -0.23233700276E+02  0.30661607179E+02  0.14221554454E+03  0.14733232162E+03  0.12700000000E+01 0.  1.
          2    1    1    2  503    0  0.29607440849E+01 -0.42527585624E+02  0.22120576677E+04  0.22124684148E+04  0.00000000000E+00 0. -1.
         -2    1    1    2    0  501 -0.38410939849E+02  0.60835041587E+00  0.17359582812E+02  0.42155966431E+02  0.00000000000E+00 0.  1.
<mgrwt>
<rscale>  0 0.40404817E+02</rscale>
<asrwt>0</asrwt>
<pdfrwt beam="1">  1        2 0.56539936E+00 0.42496866E+02</pdfrwt>
<pdfrwt beam="2">  1       -2 0.24392554E-02 0.38415757E+02</pdfrwt>
<totfact> 0.50257216E+02</totfact>
</mgrwt>
</event>
<event>
 7    1  0.3113530E-004  0.1235816E+03  0.7546771E-02  0.1308769E+00
          1   -1    0    0  503    0  0.00000000000E+00  0.00000000000E+00  0.14727677431E+04  0.14727677431E+04  0.00000000000E+00 0. -1.
         -1   -1    0    0    0  501 -0.00000000000E+00 -0.00000000000E+00 -0.36469178204E+03  0.36469178204E+03  0.00000000000E+00 0.  1.
         25    2    1    2    0    0  0.16781479566E+03 -0.47071604682E+02 -0.16108217537E+03  0.26823329779E+03  0.12499637278E+03 0.  0.
          4    1    3    3  502    0  0.79570600378E+01 -0.14542942799E+02 -0.87853900367E+02  0.89413269146E+02  0.12700000000E+01 0.  1.
         -4    1    3    3    0  502  0.15985773563E+03 -0.32528661884E+02 -0.73228275008E+02  0.17882002864E+03  0.12700000000E+01 0.  1.
          1    1    1    2  503    0 -0.12293998270E+03  0.41525517902E+01  0.14099727069E+04  0.14153284132E+04  0.00000000000E+00 0. -1.
         -1    1    1    2    0  501 -0.44874812962E+02  0.42919052892E+02 -0.14081457047E+03  0.15389781414E+03  0.00000000000E+00 0.  1.
<mgrwt>
<rscale>  0 0.87600252E+02</rscale>
<asrwt>0</asrwt>
<pdfrwt beam="1">  1        1 0.22657965E+00 0.12358160E+03</pdfrwt>
<pdfrwt beam="2">  1       -1 0.56106429E-01 0.62095040E+02</pdfrwt>
<totfact> 0.27388507E+01</totfact>
</mgrwt>
</event>
<event>
 7    1  0.3113530E-004  0.1138521E+03  0.7546771E-02  0.1434804E+00
          2   -1    0    0  503    0  0.00000000000E+00  0.00000000000E+00  0.13753247792E+03  0.13753247792E+03  0.00000000000E+00 0. -1.
          2   -1    0    0  502    0 -0.00000000000E+00 -0.00000000000E+00 -0.11045685767E+04  0.11045685767E+04  0.00000000000E+00 0. -1.
         25    2    1    2    0    0  0.37633739083E+02 -0.13013158176E+03 -0.53147359000E+03  0.56252934552E+03  0.12499824326E+03 0.  0.
          4    1    3    3  501    0 -0.46248631730E+01 -0.14061261865E+03 -0.41237875402E+03  0.43571911543E+03  0.12700000000E+01 0. -1.
         -4    1    3    3    0  501  0.42258602256E+02  0.10481036894E+02 -0.11909483598E+03  0.12681023009E+03  0.12700000000E+01 0. -1.
          2    1    1    2  502    0 -0.17242920032E-01  0.23757124677E+02 -0.53115854168E+03  0.53168956889E+03  0.00000000000E+00 0. -1.
          2    1    1    2  503    0 -0.37616496163E+02  0.10637445708E+03  0.95596032858E+02  0.14788214024E+03  0.00000000000E+00 0. -1.
<mgrwt>
<rscale>  0 0.52007687E+02</rscale>
<asrwt>0</asrwt>
<pdfrwt beam="1">  1        2 0.21158843E-01 0.11385211E+03</pdfrwt>
<pdfrwt beam="2">  1        2 0.16993363E+00 0.23757131E+02</pdfrwt>
<totfact> 0.10275402E+03</totfact>
</mgrwt>
</event>
<event>
 7    1  0.3113530E-004  0.4364847E+02  0.7546771E-02  0.1491155E+00
          1   -1    0    0  503    0 -0.00000000000E+00  0.00000000000E+00  0.35539585040E+03  0.35539585040E+03  0.00000000000E+00 0. -1.
          2   -1    0    0  502    0  0.00000000000E+00 -0.00000000000E+00 -0.17303584852E+04  0.17303584852E+04  0.00000000000E+00 0. -1.
         25    2    1    2    0    0  0.26875469280E+02 -0.22183744117E+02 -0.22463832229E+03  0.25942614171E+03  0.12500055123E+03 0.  0.
          4    1    3    3  501    0  0.34300826709E+02  0.33965145263E+02 -0.18260961524E+03  0.18888637401E+03  0.12700000000E+01 0.  1.
         -4    1    3    3    0  501 -0.74253574294E+01 -0.56148889380E+02 -0.42028707043E+02  0.70539767701E+02  0.12700000000E+01 0.  1.
          2    1    1    2  502    0 -0.35616343806E+02 -0.20743574035E+02 -0.14866199355E+04  0.14871911956E+04  0.00000000000E+00 0. -1.
          1    1    1    2  503    0  0.87408745266E+01  0.42927318152E+02  0.33629562299E+03  0.33913699824E+03  0.00000000000E+00 0. -1.
<mgrwt>
<rscale>  0 0.42415184E+02</rscale>
<asrwt>0</asrwt>
<pdfrwt beam="2">  1        2 0.26620900E+00 0.41216742E+02</pdfrwt>
<pdfrwt beam="1">  1        1 0.54676284E-01 0.43648473E+02</pdfrwt>
<totfact> 0.12045472E+02</totfact>
</mgrwt>
</event>
<event>
 7    1  0.3113530E-004  0.5448777E+02  0.7546771E-02  0.1520858E+00
          2   -1    0    0  503    0  0.00000000000E+00  0.00000000000E+00  0.38025961119E+03  0.38025961119E+03  0.00000000000E+00 0. -1.
         -3   -1    0    0    0  501 -0.00000000000E+00 -0.00000000000E+00 -0.61800555400E+02  0.61800555400E+02  0.00000000000E+00 0.  1.
         25    2    1    2    0    0 -0.84989598684E+01 -0.62513750583E+02  0.31285390001E+03  0.34275873818E+03  0.12500315404E+03 0.  0.
          4    1    3    3  502    0  0.19138398209E+02 -0.93082089221E+02  0.17853531885E+03  0.20225485556E+03  0.12700000000E+01 0. -1.
         -4    1    3    3    0  502 -0.27637358077E+02  0.30568338637E+02  0.13431858116E+03  0.14050388263E+03  0.12700000000E+01 0. -1.
          2    1    1    2  503    0  0.25941156895E+02  0.41947817147E+02  0.34183390777E+02  0.60008892587E+02  0.00000000000E+00 0. -1.
         -3    1    1    2    0  501 -0.17442197027E+02  0.20565933436E+02 -0.28578234999E+02  0.39292535817E+02  0.00000000000E+00 0.  1.
<mgrwt>
<rscale>  0 0.38331974E+02</rscale>
<asrwt>0</asrwt>
<pdfrwt beam="1">  1        2 0.58501477E-01 0.54487773E+02</pdfrwt>
<pdfrwt beam="2">  1       -3 0.95077780E-02 0.26966421E+02</pdfrwt>
<totfact> 0.31721790E+03</totfact>
</mgrwt>
</event>
<event>
 7    1  0.3113530E-004  0.4942581E+02  0.7546771E-02  0.1523315E+00
         -2   -1    0    0    0  501 -0.00000000000E+00  0.00000000000E+00  0.24903035766E+02  0.24903035766E+02  0.00000000000E+00 0.  1.
          1   -1    0    0  503    0  0.00000000000E+00 -0.00000000000E+00 -0.71310038227E+03  0.71310038227E+03  0.00000000000E+00 0. -1.
         25    2    1    2    0    0 -0.38969735962E+02 -0.24060418931E+02 -0.19431200034E+03  0.23554038378E+03  0.12499829933E+03 0.  0.
          4    1    3    3  502    0 -0.24517941255E+02 -0.73285935574E+02 -0.14529911856E+03  0.16457643984E+03  0.12700000000E+01 0.  1.
         -4    1    3    3    0  502 -0.14451794707E+02  0.49225516643E+02 -0.49012881771E+02  0.70963943933E+02  0.12700000000E+01 0.  1.
          1    1    1    2  503    0  0.12338462701E+02 -0.26514943243E+02 -0.26242587341E+03  0.26405040979E+03  0.00000000000E+00 0. -1.
         -2    1    1    2    0  501  0.26631273261E+02  0.50575362174E+02 -0.23145947276E+03  0.23841262447E+03  0.00000000000E+00 0.  1.
<mgrwt>
<rscale>  0 0.38019285E+02</rscale>
<asrwt>0</asrwt>
<pdfrwt beam="2">  1        1 0.10970775E+00 0.29245168E+02</pdfrwt>
<pdfrwt beam="1">  1       -2 0.38312364E-02 0.49425807E+02</pdfrwt>
<totfact> 0.65089470E+03</totfact>
</mgrwt>
</event>
<event>
 7    1  0.3113530E-004  0.2431650E+03  0.7546771E-02  0.1239250E+00
         -3   -1    0    0    0  501 -0.00000000000E+00  0.00000000000E+00  0.14696790646E+03  0.14696790646E+03  0.00000000000E+00 0.  1.
          1   -1    0    0  503    0  0.00000000000E+00 -0.00000000000E+00 -0.10278965227E+04  0.10278965227E+04  0.00000000000E+00 0. -1.
         25    2    1    2    0    0 -0.86202259576E+02  0.19334633962E+03 -0.39043758755E+03  0.46138854886E+03  0.12499698655E+03 0.  0.
          4    1    3    3  502    0  0.67944954776E+01  0.43104554493E+02 -0.14508784379E+02  0.46003103276E+02  0.12700000000E+01 0. -1.
         -4    1    3    3    0  502 -0.92996755054E+02  0.15024178512E+03 -0.37592880317E+03  0.41538544558E+03  0.12700000000E+01 0. -1.
          1    1    1    2  503    0  0.12708742545E+03 -0.23938647135E+03 -0.55907538140E+03  0.62130699212E+03  0.00000000000E+00 0. -1.
         -3    1    1    2    0  501 -0.40885165872E+02  0.46040131735E+02  0.68584352688E+02  0.92168888201E+02  0.00000000000E+00 0.  1.
<mgrwt>
<rscale>  0 0.12236222E+03</rscale>
<asrwt>0</asrwt>
<pdfrwt beam="2">  1        1 0.15813793E+00 0.24316504E+03</pdfrwt>
<pdfrwt beam="1">  1       -3 0.22610447E-01 0.61573456E+02</pdfrwt>
<totfact> 0.13653739E+02</totfact>
</mgrwt>
</event>
<event>
 7    1  0.3113530E-004  0.1086964E+03  0.7546771E-02  0.1378673E+00
          1   -1    0    0  503    0 -0.00000000000E+00  0.00000000000E+00  0.14406214965E+04  0.14406214965E+04  0.00000000000E+00 0. -1.
          2   -1    0    0  502    0  0.00000000000E+00 -0.00000000000E+00 -0.19948744412E+03  0.19948744412E+03  0.00000000000E+00 0. -1.
         25    2    1    2    0    0 -0.13195969839E+03  0.10441588904E+01  0.20840852191E+02  0.18294493887E+03  0.12498022752E+03 0.  0.
          4    1    3    3  501    0 -0.59291714928E+02 -0.40927498063E+02 -0.37014894377E+02  0.81007918518E+02  0.12700000000E+01 0.  1.
         -4    1    3    3    0  501 -0.72667983463E+02  0.41971656954E+02  0.57855746568E+02  0.10193702036E+03  0.12700000000E+01 0.  1.
          2    1    1    2  502    0  0.10116609765E+03 -0.24397752920E+02 -0.95236503740E+02  0.14106672643E+03  0.00000000000E+00 0. -1.
          1    1    1    2  503    0  0.30793600744E+02  0.23353594030E+02  0.13155297039E+04  0.13160972753E+04  0.00000000000E+00 0. -1.
<mgrwt>
<rscale>  0 0.64813984E+02</rscale>
<asrwt>0</asrwt>
<pdfrwt beam="2">  1        2 0.30690377E-01 0.10869637E+03</pdfrwt>
<pdfrwt beam="1">  1        1 0.22163407E+00 0.38647590E+02</pdfrwt>
<totfact> 0.21559928E+02</totfact>
</mgrwt>
</event>
<event>
 7    1  0.3113530E-004  0.5685108E+02  0.7546771E-02  0.1418616E+00
          2   -1    0    0  503    0  0.00000000000E+00  0.00000000000E+00  0.11747193688E+04  0.11747193688E+04  0.00000000000E+00 0. -1.
         -1   -1    0    0    0  501 -0.00000000000E+00 -0.00000000000E+00 -0.15877150004E+03  0.15877150004E+03  0.00000000000E+00 0.  1.
         25    2    1    2    0    0 -0.15773649485E+02  0.58030440944E+02  0.93150839821E+02  0.16708956993E+03  0.12500202129E+03 0.  0.
          4    1    3    3  502    0 -0.66009596189E+02  0.58832428409E+02  0.60916882070E+02  0.10738249784E+03  0.12700000000E+01 0. -1.
         -4    1    3    3    0  502  0.50235946704E+02 -0.80198746487E+00  0.32233957751E+02  0.59707072089E+02  0.12700000000E+01 0. -1.
          2    1    1    2  503    0  0.53747606773E+02 -0.19891419694E+02  0.10378244212E+04  0.10394056008E+04  0.00000000000E+00 0. -1.
         -1    1    1    2    0  501 -0.37973957289E+02 -0.38139021250E+02 -0.11502739223E+03  0.12699569810E+03  0.00000000000E+00 0.  1.
<mgrwt>
<rscale>  0 0.55314847E+02</rscale>
<asrwt>0</asrwt>
<pdfrwt beam="1">  1        2 0.18072605E+00 0.56851077E+02</pdfrwt>
<pdfrwt beam="2">  1       -1 0.24426385E-01 0.53820130E+02</pdfrwt>
<totfact> 0.36211321E+02</totfact>
</mgrwt>
</event>
<event>
 7    1  0.3113530E-004  0.1369163E+03  0.7546771E-02  0.1292872E+00
          2   -1    0    0  502    0  0.00000000000E+00  0.00000000000E+00  0.13881166320E+04  0.13881166320E+04  0.00000000000E+00 0.  1.
          1   -1    0    0  503    0 -0.00000000000E+00 -0.00000000000E+00 -0.10145288423E+03  0.10145288423E+03  0.00000000000E+00 0. -1.
         25    2    1    2    0    0 -0.43750729188E+02 -0.84587253090E+02  0.16278805515E+03  0.22626137661E+03  0.12500051984E+03 0.  0.
          4    1    3    3  501    0  0.27799315526E+02 -0.33000299295E+02  0.12134514076E+03  0.12879471178E+03  0.12700000000E+01 0.  1.
         -4    1    3    3    0  501 -0.71550044714E+02 -0.51586953796E+02  0.41442914388E+02  0.97466664832E+02  0.12700000000E+01 0.  1.
          2    1    1    2  502    0  0.14917904508E+02  0.14270946755E+03  0.11731156176E+04  0.11818581930E+04  0.00000000000E+00 0.  1.
          1    1    1    2  503    0  0.28832824680E+02 -0.58122214464E+02 -0.49239925004E+02  0.81449946640E+02  0.00000000000E+00 0. -1.
<mgrwt>
<rscale>  0 0.94250951E+02</rscale>
<asrwt>0</asrwt>
<pdfrwt beam="1">  1        2 0.21355639E+00 0.13691625E+03</pdfrwt>
<pdfrwt beam="2">  1        1 0.15608137E-01 0.64880841E+02</pdfrwt>
<totfact> 0.74598031E+02</totfact>
</mgrwt>
</event>
<event>
 7    1  0.3113530E-004  0.1100135E+03  0.7546771E-02  0.1348931E+00
         -2   -1    0    0    0  501 -0.00000000000E+00  0.00000000000E+00  0.50103619565E+03  0.50103619565E+03  0.00000000000E+00 0.  1.
          1   -1    0    0  503    0  0.00000000000E+00 -0.00000000000E+00 -0.14229980154E+03  0.14229980154E+03  0.00000000000E+00 0. -1.
         25    2    1    2    0    0  0.62424571591E+02 -0.74392996402E+02  0.15599667375E+03  0.22223590601E+03  0.12499076226E+03 0.  0.
          4    1    3    3  502    0  0.50776338545E+02 -0.67882390275E+01  0.14365629939E+03  0.15252233279E+03  0.12700000000E+01 0.  1.
         -4    1    3    3    0  502  0.11648233046E+02 -0.67604757374E+02  0.12340374360E+02  0.69713573227E+02  0.12700000000E+01 0.  1.
          1    1    1    2  503    0  0.42717735374E+02  0.23918933899E+02 -0.91949216450E+02  0.10417091110E+03  0.00000000000E+00 0. -1.
         -2    1    1    2    0  501 -0.10514230696E+03  0.50474062503E+02  0.29468893682E+03  0.31692918007E+03  0.00000000000E+00 0.  1.
<mgrwt>
<rscale>  0 0.73389907E+02</rscale>
<asrwt>0</asrwt>
<pdfrwt beam="2">  1        1 0.21892277E-01 0.48958353E+02</pdfrwt>
<pdfrwt beam="1">  1       -2 0.77082491E-01 0.11001347E+03</pdfrwt>
<totfact> 0.29953965E+02</totfact>
</mgrwt>
</event>
<event>
 7    1  0.3113530E-004  0.2597390E+02  0.7546771E-02  0.1648512E+00
          2   -1    0    0  502    0  0.00000000000E+00  0.00000000000E+00  0.10438838285E+04  0.10438838285E+04  0.00000000000E+00 0. -1.
          1   -1    0    0  503    0 -0.00000000000E+00 -0.00000000000E+00 -0.97568542604E+03  0.97568542604E+03  0.00000000000E+00 0. -1.
         25    2    1    2    0    0  0.39760978996E+02 -0.30523965457E+02  0.61079268599E+03  0.62546421718E+03  0.12500053519E+03 0.  0.
          4    1    3    3  501    0  0.10158158618E+02  0.42222627984E+02  0.10538954882E+03  0.11399345771E+03  0.12700000000E+01 0. -1.
         -4    1    3    3    0  501  0.29602820378E+02 -0.72746593441E+02  0.50540313717E+03  0.51147075947E+03  0.12700000000E+01 0. -1.
          2    1    1    2  502    0 -0.15866347209E+02  0.20357361629E+02  0.42518989275E+03  0.42597254376E+03  0.00000000000E+00 0. -1.
          1    1    1    2  503    0 -0.23894631787E+02  0.10166603828E+02 -0.96778417629E+03  0.96813249359E+03  0.00000000000E+00 0. -1.
<mgrwt>
<rscale>  0 0.25891889E+02</rscale>
<asrwt>0</asrwt>
<pdfrwt beam="1">  1        2 0.16059751E+00 0.25810137E+02</pdfrwt>
<pdfrwt beam="2">  1        1 0.15010545E+00 0.25973900E+02</pdfrwt>
<totfact> 0.74798930E+01</totfact>
</mgrwt>
</event>
<event>
 7    1  0.3113530E-004  0.6851392E+02  0.7546771E-02  0.1445453E+00
          2   -1    0    0  503    0  0.00000000000E+00  0.00000000000E+00  0.25347725509E+02  0.25347725509E+02  0.00000000000E+00 0. -1.
          2   -1    0    0  502    0 -0.00000000000E+00 -0.00000000000E+00 -0.17769897134E+04  0.17769897134E+04  0.00000000000E+00 0. -1.
         25    2    1    2    0    0 -0.76724011156E+02  0.56468489824E+02 -0.10362413250E+04  0.10480963569E+04  0.12503849648E+03 0.  0.
          4    1    3    3  501    0 -0.82901044863E+02  0.24982833193E+02 -0.33147593825E+03  0.34259981864E+03  0.12700000000E+01 0. -1.
         -4    1    3    3    0  501  0.61770337079E+01  0.31485656631E+02 -0.70476538674E+03  0.70549653831E+03  0.12700000000E+01 0. -1.
          2    1    1    2  502    0  0.36354961907E+02 -0.27494542216E+01 -0.67468969563E+03  0.67567405466E+03  0.00000000000E+00 0. -1.
          2    1    1    2  503    0  0.40369049248E+02 -0.53719035602E+02 -0.40710967283E+02  0.78567027310E+02  0.00000000000E+00 0. -1.
<mgrwt>
<rscale>  0 0.49979338E+02</rscale>
<asrwt>0</asrwt>
<pdfrwt beam="1">  1        2 0.38996484E-02 0.68513924E+02</pdfrwt>
<pdfrwt beam="2">  1        2 0.27338315E+00 0.36458782E+02</pdfrwt>
<totfact> 0.35184534E+03</totfact>
</mgrwt>
</event>
<event>
 7    1  0.3113530E-004  0.1720324E+03  0.7546771E-02  0.1196124E+00
          2   -1    0    0  503    0  0.00000000000E+00  0.00000000000E+00  0.14250762375E+04  0.14250762375E+04  0.00000000000E+00 0. -1.
         -2   -1    0    0    0  501 -0.00000000000E+00 -0.00000000000E+00 -0.14401848391E+03  0.14401848391E+03  0.00000000000E+00 0.  1.
         25    2    1    2    0    0 -0.10796774932E+03 -0.61586222984E+02  0.22979509753E+03  0.28962078155E+03  0.12499804999E+03 0.  0.
          4    1    3    3  502    0 -0.11986460485E+03 -0.84209376482E+02  0.16897511221E+03  0.22363573961E+03  0.12700000000E+01 0.  1.
         -4    1    3    3    0  502  0.11896855533E+02  0.22623153498E+02  0.60819985318E+02  0.65985041940E+02  0.12700000000E+01 0.  1.
          2    1    1    2  503    0 -0.84794733772E+02  0.10777501076E+03  0.10714861053E+04  0.10802259364E+04  0.00000000000E+00 0. -1.
         -2    1    1    2    0  501  0.19276248309E+03 -0.46188787775E+02 -0.20223449202E+02  0.19924800350E+03  0.00000000000E+00 0.  1.
<mgrwt>
<rscale>  0 0.15359494E+03</rscale>
<asrwt>0</asrwt>
<pdfrwt beam="1">  1        2 0.21924249E+00 0.13713351E+03</pdfrwt>
<pdfrwt beam="2">  1       -2 0.22156691E-01 0.17203240E+03</pdfrwt>
<totfact> 0.27575564E+02</totfact>
</mgrwt>
</event>
<event>
 7    1  0.3113530E-004  0.1125731E+03  0.7546771E-02  0.1329307E+00
          1   -1    0    0  503    0  0.00000000000E+00  0.00000000000E+00  0.32080200627E+03  0.32080200627E+03  0.00000000000E+00 0. -1.
         -1   -1    0    0    0  501 -0.00000000000E+00 -0.00000000000E+00 -0.24521316829E+03  0.24521316829E+03  0.00000000000E+00 0.  1.
         25    2    1    2    0    0  0.13878567320E+03  0.28479288653E+02  0.13866609498E+03  0.23436417254E+03  0.12500298598E+03 0.  0.
          4    1    3    3  502    0  0.12565178364E+02  0.57729393345E+02  0.49357805610E+02  0.76995924814E+02  0.12700000000E+01 0. -1.
         -4    1    3    3    0  502  0.12622049483E+03 -0.29250104692E+02  0.89308289371E+02  0.15736824772E+03  0.12700000000E+01 0. -1.
          1    1    1    2  503    0 -0.10147452941E+03  0.14246644785E+02  0.10951360031E+03  0.14997758386E+03  0.00000000000E+00 0. -1.
         -1    1    1    2    0  501 -0.37311143783E+02 -0.42725933438E+02 -0.17259085732E+03  0.18167341816E+03  0.00000000000E+00 0.  1.
<mgrwt>
<rscale>  0 0.79910033E+02</rscale>
<asrwt>0</asrwt>
<pdfrwt beam="1">  1        1 0.49354155E-01 0.11257314E+03</pdfrwt>
<pdfrwt beam="2">  1       -1 0.37725103E-01 0.56724129E+02</pdfrwt>
<totfact> 0.55113354E+02</totfact>
</mgrwt>
</event>
<event>
 7    1  0.3113530E-004  0.5515786E+02  0.7546771E-02  0.1475689E+00
          2   -1    0    0  502    0  0.00000000000E+00  0.00000000000E+00  0.54651602325E+03  0.54651602325E+03  0.00000000000E+00 0. -1.
          1   -1    0    0  503    0 -0.00000000000E+00 -0.00000000000E+00 -0.25296065732E+03  0.25296065732E+03  0.00000000000E+00 0. -1.
         25    2    1    2    0    0 -0.34003731262E+02  0.16047145803E+02  0.93921334544E+02  0.16079208727E+03  0.12497645225E+03 0.  0.
          4    1    3    3  501    0  0.37786361545E+02  0.81123336395E+01 -0.42563396030E+01  0.38901778914E+02  0.12700000000E+01 0. -1.
         -4    1    3    3    0  501 -0.71790092807E+02  0.79348121633E+01  0.98177674147E+02  0.12189030835E+03  0.12700000000E+01 0. -1.
          2    1    1    2  502    0 -0.20029251204E+02 -0.30349223962E+02  0.41479316356E+03  0.41638397524E+03  0.00000000000E+00 0. -1.
          1    1    1    2  503    0  0.54032982466E+02  0.14302078160E+02 -0.21515913218E+03  0.22230061807E+03  0.00000000000E+00 0. -1.
<mgrwt>
<rscale>  0 0.44784918E+02</rscale>
<asrwt>0</asrwt>
<pdfrwt beam="1">  1        2 0.84079388E-01 0.36362705E+02</pdfrwt>
<pdfrwt beam="2">  1        1 0.38917024E-01 0.55157857E+02</pdfrwt>
<totfact> 0.85342915E+02</totfact>
</mgrwt>
</event>
<event>
 7    1  0.3113530E-004  0.6518215E+02  0.7546771E-02  0.1390197E+00
          2   -1    0    0  502    0  0.00000000000E+00  0.00000000000E+00  0.84357935186E+02  0.84357935186E+02  0.00000000000E+00 0.  1.
          1   -1    0    0  503    0 -0.00000000000E+00 -0.00000000000E+00 -0.11655970246E+04  0.11655970246E+04  0.00000000000E+00 0. -1.
         25    2    1    2    0    0  0.57277046695E+02  0.75480160585E+02 -0.32941684768E+03  0.36485184402E+03  0.12499397517E+03 0.  0.
          4    1    3    3  501    0  0.79395913993E+02  0.32828716225E+02 -0.29070572024E+03  0.30313835858E+03  0.12700000000E+01 0.  1.
         -4    1    3    3    0  501 -0.22118867299E+02  0.42651444361E+02 -0.38711127449E+02  0.61713485439E+02  0.12700000000E+01 0.  1.
          2    1    1    2  502    0  0.42269953336E+00 -0.64673233195E+02  0.49618306717E+02  0.81515533050E+02  0.00000000000E+00 0.  1.
          1    1    1    2  503    0 -0.57699746228E+02 -0.10806927390E+02 -0.80144054842E+03  0.80358758269E+03  0.00000000000E+00 0. -1.
<mgrwt>
<rscale>  0 0.61857840E+02</rscale>
<asrwt>0</asrwt>
<pdfrwt beam="1">  1        2 0.12978144E-01 0.65182152E+02</pdfrwt>
<pdfrwt beam="2">  1        1 0.17932262E+00 0.58703070E+02</pdfrwt>
<totfact> 0.79716946E+02</totfact>
</mgrwt>
</event>
<event>
 7    1  0.3113530E-004  0.3477492E+02  0.7546771E-02  0.1567002E+00
         -2   -1    0    0    0  501 -0.00000000000E+00  0.00000000000E+00  0.10993257301E+03  0.10993257301E+03  0.00000000000E+00 0.  1.
          1   -1    0    0  503    0  0.00000000000E+00 -0.00000000000E+00 -0.99876120320E+02  0.99876120320E+02  0.00000000000E+00 0. -1.
         25    2    1    2    0    0 -0.21596103752E+00  0.87344954272E+01 -0.12541903175E+02  0.12593146061E+03  0.12500038155E+03 0.  0.
          4    1    3    3  502    0  0.46936174625E+02 -0.28948174541E+02 -0.30387152815E+02  0.62976132414E+02  0.12700000000E+01 0. -1.
         -4    1    3    3    0  502 -0.47152135662E+02  0.37682669968E+02  0.17845249640E+02  0.62955328195E+02  0.12700000000E+01 0. -1.
          1    1    1    2  503    0 -0.21813900323E+02  0.22498953107E+02 -0.10773104741E+02  0.33137726596E+02  0.00000000000E+00 0. -1.
         -2    1    1    2    0  501  0.22029861361E+02 -0.31233448534E+02  0.33371460610E+02  0.50739506128E+02  0.00000000000E+00 0.  1.
<mgrwt>
<rscale>  0 0.33011587E+02</rscale>
<asrwt>0</asrwt>
<pdfrwt beam="2">  1        1 0.15365557E-01 0.31337663E+02</pdfrwt>
<pdfrwt beam="1">  1       -2 0.16912704E-01 0.34774925E+02</pdfrwt>
<totfact> 0.72144950E+03</totfact>
</mgrwt>
</event>
<event>
 7    1  0.3113530E-004  0.3324814E+02  0.7546771E-02  0.1642219E+00
          2   -1    0    0  503    0  0.00000000000E+00  0.00000000000E+00  0.14424778049E+03  0.14424778049E+03  0.00000000000E+00 0. -1.
         -1   -1    0    0    0  501 -0.00000000000E+00 -0.00000000000E+00 -0.17541726048E+03  0.17541726048E+03  0.00000000000E+00 0.  1.
         25    2    1    2    0    0  0.21500008261E+02  0.32039512998E+02  0.10236169860E+03  0.16610631684E+03  0.12499844161E+03 0.  0.
          4    1    3    3  502    0  0.25419137279E+02 -0.23333325114E+02 -0.13935054672E+02  0.37234060343E+02  0.12700000000E+01 0. -1.
         -4    1    3    3    0  502 -0.39191290184E+01  0.55372838113E+02  0.11629675327E+03  0.12887225649E+03  0.12700000000E+01 0. -1.
          2    1    1    2  503    0 -0.61573435602E+00 -0.31312470917E+02 -0.17937986557E+02  0.36091845692E+02  0.00000000000E+00 0. -1.
         -1    1    1    2    0  501 -0.20884273905E+02 -0.72704208123E+00 -0.11559319203E+03  0.11746687844E+03  0.00000000000E+00 0.  1.
<mgrwt>
<rscale>  0 0.26358755E+02</rscale>
<asrwt>0</asrwt>
<pdfrwt beam="1">  1        2 0.22191966E-01 0.33248144E+02</pdfrwt>
<pdfrwt beam="2">  1       -1 0.26987271E-01 0.20896925E+02</pdfrwt>
<totfact> 0.29627789E+03</totfact>
</mgrwt>
</event>
<event>
 7    1  0.3113530E-004  0.1739388E+03  0.7546771E-02  0.1315236E+00
          1   -1    0    0  503    0  0.00000000000E+00  0.00000000000E+00  0.36834432203E+03  0.36834432203E+03  0.00000000000E+00 0. -1.
          1   -1    0    0  502    0 -0.00000000000E+00 -0.00000000000E+00 -0.50777730385E+03  0.50777730385E+03  0.00000000000E+00 0. -1.
         25    2    1    2    0    0 -0.13256036347E+03  0.12966634685E+03 -0.74120328245E+02  0.23559410707E+03  0.12500059504E+03 0.  0.
          4    1    3    3  501    0 -0.38517523094E+02  0.10195502730E+02  0.31207538292E+02  0.50626783499E+02  0.12700000000E+01 0.  1.
         -4    1    3    3    0  501 -0.94042840372E+02  0.11947084412E+03 -0.10532786654E+03  0.18496732357E+03  0.12700000000E+01 0.  1.
          1    1    1    2  502    0 -0.14397263514E+02 -0.39041139699E+02 -0.32556441130E+03  0.32821285425E+03  0.00000000000E+00 0. -1.
          1    1    1    2  503    0  0.14695762698E+03 -0.90625207147E+02  0.26025175773E+03  0.31231466456E+03  0.00000000000E+00 0. -1.
<mgrwt>
<rscale>  0 0.85075268E+02</rscale>
<asrwt>0</asrwt>
<pdfrwt beam="1">  1        1 0.56668358E-01 0.17393878E+03</pdfrwt>
<pdfrwt beam="2">  1        1 0.78119585E-01 0.41611198E+02</pdfrwt>
<totfact> 0.37565395E+02</totfact>
</mgrwt>
</event>
<event>
 7    1  0.3113530E-004  0.3695788E+02  0.7546771E-02  0.1539099E+00
         -2   -1    0    0    0  501 -0.00000000000E+00  0.00000000000E+00  0.37751515717E+02  0.37751515717E+02  0.00000000000E+00 0.  1.
          2   -1    0    0  503    0  0.00000000000E+00 -0.00000000000E+00 -0.52803985337E+03  0.52803985337E+03  0.00000000000E+00 0. -1.
         25    2    1    2    0    0 -0.35586295949E+02 -0.22655928174E+01 -0.12816149585E+03  0.18254077548E+03  0.12499699326E+03 0.  0.
          4    1    3    3  502    0  0.14335199562E+02  0.50347051088E+02 -0.29559299771E+02  0.60130596228E+02  0.12700000000E+01 0.  1.
         -4    1    3    3    0  502 -0.49921495511E+02 -0.52612643906E+02 -0.98602196083E+02  0.12241017925E+03  0.12700000000E+01 0.  1.
          2    1    1    2  503    0  0.13612099677E+02  0.34359795021E+02 -0.33200260153E+03  0.33405330741E+03  0.00000000000E+00 0. -1.
         -2    1    1    2    0  501  0.21974196272E+02 -0.32094202204E+02 -0.30124240273E+02  0.49197286195E+02  0.00000000000E+00 0.  1.
<mgrwt>
<rscale>  0 0.36093517E+02</rscale>
<asrwt>0</asrwt>
<pdfrwt beam="2">  1        2 0.81236902E-01 0.36957878E+02</pdfrwt>
<pdfrwt beam="1">  1       -2 0.58079254E-02 0.35249372E+02</pdfrwt>
<totfact> 0.77692265E+03</totfact>
</mgrwt>
</event>
<event>
 7    1  0.3113530E-004  0.8186137E+02  0.7546771E-02  0.1386113E+00
          2   -1    0    0  502    0  0.00000000000E+00  0.00000000000E+00  0.91082347561E+03  0.91082347561E+03  0.00000000000E+00 0. -1.
          2   -1    0    0  503    0 -0.00000000000E+00 -0.00000000000E+00 -0.12759361734E+03  0.12759361734E+03  0.00000000000E+00 0.  1.
         25    2    1    2    0    0 -0.86128077498E+02  0.40632817716E+01  0.35737516372E+02  0.15600201756E+03  0.12499961365E+03 0.  0.
          4    1    3    3  501    0 -0.34451520680E+02  0.58035439200E+02 -0.10214672478E+02  0.68271311062E+02  0.12700000000E+01 0. -1.
         -4    1    3    3    0  501 -0.51676556818E+02 -0.53972157428E+02  0.45952188850E+02  0.87730706495E+02  0.12700000000E+01 0. -1.
          2    1    1    2  502    0  0.70793568304E+02  0.41744061207E+02  0.80393424605E+03  0.80812410429E+03  0.00000000000E+00 0. -1.
          2    1    1    2  503    0  0.15334509194E+02 -0.45807342979E+02 -0.56441904156E+02  0.74290971105E+02  0.00000000000E+00 0.  1.
<mgrwt>
<rscale>  0 0.62883918E+02</rscale>
<asrwt>0</asrwt>
<pdfrwt beam="1">  1        2 0.14012668E+00 0.81861373E+02</pdfrwt>
<pdfrwt beam="2">  1        2 0.19629788E-01 0.48305899E+02</pdfrwt>
<totfact> 0.12974046E+03</totfact>
</mgrwt>
</event>
<event>
 7    1  0.3113530E-004  0.1126905E+03  0.7546771E-02  0.1357661E+00
          1   -1    0    0  503    0  0.00000000000E+00  0.00000000000E+00  0.89719016329E+03  0.89719016329E+03  0.00000000000E+00 0. -1.
          1   -1    0    0  502    0 -0.00000000000E+00 -0.00000000000E+00 -0.81682242136E+03  0.81682242136E+03  0.00000000000E+00 0. -1.
         25    2    1    2    0    0 -0.74574377833E+02  0.22119912359E+02 -0.74211189402E+02  0.16487039741E+03  0.12499727580E+03 0.  0.
          4    1    3    3  501    0 -0.62897955542E+02  0.53078160124E+02 -0.95058673457E+02  0.12574262679E+03  0.12700000000E+01 0.  1.
         -4    1    3    3    0  501 -0.11676422291E+02 -0.30958247765E+02  0.20847484055E+02  0.39127770619E+02  0.12700000000E+01 0.  1.
          1    1    1    2  502    0  0.10158485106E+03 -0.57335335617E+02 -0.69181764403E+03  0.70158283564E+03  0.00000000000E+00 0. -1.
          1    1    1    2  503    0 -0.27010473232E+02  0.35215423258E+02  0.84639657536E+03  0.84755935160E+03  0.00000000000E+00 0. -1.
<mgrwt>
<rscale>  0 0.70720169E+02</rscale>
<asrwt>0</asrwt>
<pdfrwt beam="1">  1        1 0.13802926E+00 0.44381209E+02</pdfrwt>
<pdfrwt beam="2">  1        1 0.12566499E+00 0.11269054E+03</pdfrwt>
<totfact> 0.59907022E+01</totfact>
</mgrwt>
</event>
<event>
 7    1  0.3113530E-004  0.1371269E+03  0.7546771E-02  0.1412000E+00
          3   -1    0    0  503    0 -0.00000000000E+00  0.00000000000E+00  0.13462086945E+03  0.13462086945E+03  0.00000000000E+00 0. -1.
          2   -1    0    0  502    0  0.00000000000E+00 -0.00000000000E+00 -0.40282681256E+03  0.40282681256E+03  0.00000000000E+00 0. -1.
         25    2    1    2    0    0  0.43193732941E+02 -0.10972054974E+03 -0.19057361864E+03  0.25660578629E+03  0.12499571128E+03 0.  0.
          4    1    3    3  501    0  0.74827905281E+02 -0.11079838398E+03 -0.17776704725E+03  0.22243703219E+03  0.12700000000E+01 0.  1.
         -4    1    3    3    0  501 -0.31634172341E+02  0.10778342375E+01 -0.12806571390E+02  0.34168754105E+02  0.12700000000E+01 0.  1.
          2    1    1    2  502    0  0.81664128375E+01 -0.22020367248E+02 -0.12845714032E+03  0.13058646091E+03  0.00000000000E+00 0. -1.
          3    1    1    2  503    0 -0.51360145778E+02  0.13174091699E+03  0.50824815853E+02  0.15025543481E+03  0.00000000000E+00 0. -1.
<mgrwt>
<rscale>  0 0.56749866E+02</rscale>
<asrwt>0</asrwt>
<pdfrwt beam="2">  1        2 0.61973355E-01 0.23485887E+02</pdfrwt>
<pdfrwt beam="1">  1        3 0.20710903E-01 0.13712692E+03</pdfrwt>
<totfact> 0.10063456E+03</totfact>
</mgrwt>
</event>
<event>
 7    1  0.3113530E-004  0.7357359E+02  0.7546771E-02  0.1410467E+00
          1   -1    0    0  502    0  0.00000000000E+00  0.00000000000E+00  0.16058657755E+03  0.16058657755E+03  0.00000000000E+00 0. -1.
          1   -1    0    0  503    0 -0.00000000000E+00 -0.00000000000E+00 -0.17015611775E+03  0.17015611775E+03  0.00000000000E+00 0. -1.
         25    2    1    2    0    0 -0.94234117893E+02 -0.25944399152E+02  0.15672607608E+02  0.15945181503E+03  0.12500427939E+03 0.  0.
          4    1    3    3  501    0 -0.96841594749E+02 -0.66649446986E+02  0.73009817037E+01  0.11779372008E+03  0.12700000000E+01 0.  1.
         -4    1    3    3    0  501  0.26074768562E+01  0.40705047834E+02  0.83716259044E+01  0.41658094952E+02  0.12700000000E+01 0.  1.
          1    1    1    2  502    0  0.68376345150E+02 -0.10024727405E+02  0.49083986459E+02  0.84764718264E+02  0.00000000000E+00 0. -1.
          1    1    1    2  503    0  0.25857772743E+02  0.35969126557E+02 -0.74326134264E+02  0.86526162004E+02  0.00000000000E+00 0. -1.
<mgrwt>
<rscale>  0 0.57089729E+02</rscale>
<asrwt>0</asrwt>
<pdfrwt beam="1">  1        1 0.24705627E-01 0.73573586E+02</pdfrwt>
<pdfrwt beam="2">  1        1 0.26177864E-01 0.44299012E+02</pdfrwt>
<totfact> 0.38583634E+03</totfact>
</mgrwt>
</event>
<event>
 7    1  0.3113530E-004  0.6499766E+02  0.7546771E-02  0.1407494E+00
          1   -1    0    0  502    0  0.00000000000E+00  0.00000000000E+00  0.14515933195E+04  0.14515933195E+04  0.00000000000E+00 0. -1.
          1   -1    0    0  503    0 -0.00000000000E+00 -0.00000000000E+00 -0.36251379726E+02  0.36251379726E+02  0.00000000000E+00 0. -1.
         25    2    1    2    0    0  0.10689322413E+03  0.31207182721E+02  0.63640365248E+03  0.65805253183E+03  0.12499390444E+03 0.  0.
          4    1    3    3  501    0  0.35802961611E+02  0.41843247519E+02  0.80640213772E+02  0.97658416945E+02  0.12700000000E+01 0. -1.
         -4    1    3    3    0  501  0.71090262516E+02 -0.10636064798E+02  0.55576343871E+03  0.56039411489E+03  0.12700000000E+01 0. -1.
          1    1    1    2  502    0 -0.57653971050E+02 -0.16732694693E+02  0.77607101601E+03  0.77838948178E+03  0.00000000000E+00 0. -1.
          1    1    1    2  503    0 -0.49239253077E+02 -0.14474488028E+02  0.28672713219E+01  0.51402685651E+02  0.00000000000E+00 0. -1.
<mgrwt>
<rscale>  0 0.57756837E+02</rscale>
<asrwt>0</asrwt>
<pdfrwt beam="1">  1        1 0.22332200E+00 0.64997657E+02</pdfrwt>
<pdfrwt beam="2">  1        1 0.55771364E-02 0.51322654E+02</pdfrwt>
<totfact> 0.12992031E+03</totfact>
</mgrwt>
</event>
<event>
 7    1  0.3113530E-004  0.4888995E+02  0.7546771E-02  0.1454392E+00
         -2   -1    0    0    0  501 -0.00000000000E+00  0.00000000000E+00  0.36983817435E+03  0.36983817435E+03  0.00000000000E+00 0.  1.
          2   -1    0    0  503    0  0.00000000000E+00 -0.00000000000E+00 -0.69050933223E+02  0.69050933223E+02  0.00000000000E+00 0. -1.
         25    2    1    2    0    0 -0.97568914185E+01 -0.32515068597E+02  0.39951309009E+02  0.13555026301E+03  0.12500136037E+03 0.  0.
          4    1    3    3  502    0  0.67152335895E+01 -0.33718391967E+02 -0.40655585177E+02  0.53258931880E+02  0.12700000000E+01 0. -1.
         -4    1    3    3    0  502 -0.16472125008E+02  0.12033233703E+01  0.80606894186E+02  0.82291331133E+02  0.12700000000E+01 0. -1.
          2    1    1    2  503    0  0.47825854968E+02 -0.10024683673E+01  0.11908357650E+02  0.49296311506E+02  0.00000000000E+00 0. -1.
         -2    1    1    2    0  501 -0.38068963549E+02  0.33517536964E+02  0.24892757447E+03  0.25404253305E+03  0.00000000000E+00 0.  1.
<mgrwt>
<rscale>  0 0.48360284E+02</rscale>
<asrwt>0</asrwt>
<pdfrwt beam="2">  1        2 0.10623221E-01 0.47836360E+02</pdfrwt>
<pdfrwt beam="1">  1       -2 0.56898180E-01 0.48889946E+02</pdfrwt>
<totfact> 0.15950052E+03</totfact>
</mgrwt>
</event>
<event>
 7    1  0.3113530E-004  0.6105231E+02  0.7546771E-02  0.1449387E+00
          1   -1    0    0  503    0 -0.00000000000E+00  0.00000000000E+00  0.83371858190E+03  0.83371858190E+03  0.00000000000E+00 0. -1.
          2   -1    0    0  502    0  0.00000000000E+00 -0.00000000000E+00 -0.80954777674E+02  0.80954777674E+02  0.00000000000E+00 0. -1.
         25    2    1    2    0    0  0.33773503401E+02  0.96519673663E+01  0.36804699365E+02  0.13495953727E+03  0.12500272316E+03 0.  0.
          4    1    3    3  501    0  0.20313271938E+02 -0.49499987469E+02 -0.14554014763E+02  0.55464493344E+02  0.12700000000E+01 0.  1.
         -4    1    3    3    0  501  0.13460231463E+02  0.59151954835E+02  0.51358714127E+02  0.79495043925E+02  0.12700000000E+01 0.  1.
          2    1    1    2  502    0 -0.73378898561E+02 -0.12938475470E+02  0.13005063082E+02  0.75637282918E+02  0.00000000000E+00 0. -1.
          1    1    1    2  503    0  0.39605395160E+02  0.32865081036E+01  0.70295404178E+03  0.70407653939E+03  0.00000000000E+00 0. -1.
<mgrwt>
<rscale>  0 0.49257605E+02</rscale>
<asrwt>0</asrwt>
<pdfrwt beam="2">  1        2 0.12454582E-01 0.61052311E+02</pdfrwt>
<pdfrwt beam="1">  1        1 0.12826439E+00 0.39741521E+02</pdfrwt>
<totfact> 0.14643987E+03</totfact>
</mgrwt>
</event>
<event>
 7    1  0.3113530E-004  0.8762329E+02  0.7546771E-02  0.1320378E+00
          2   -1    0    0  503    0  0.00000000000E+00  0.00000000000E+00  0.35844266440E+03  0.35844266440E+03  0.00000000000E+00 0. -1.
         -2   -1    0    0    0  501 -0.00000000000E+00 -0.00000000000E+00 -0.10993568011E+03  0.10993568011E+03  0.00000000000E+00 0.  1.
         25    2    1    2    0    0 -0.51144807384E+02 -0.12614296073E+03  0.53808728781E+02  0.19248067643E+03  0.12500237455E+03 0.  0.
          4    1    3    3  502    0 -0.22851099233E+02 -0.35433090560E+02 -0.40586722401E+02  0.58536924912E+02  0.12700000000E+01 0.  1.
         -4    1    3    3    0  502 -0.28293708151E+02 -0.90709870172E+02  0.94395451182E+02  0.13394375152E+03  0.12700000000E+01 0.  1.
          2    1    1    2  503    0 -0.14321886364E+02  0.82141236024E+02  0.17611868860E+03  0.19485915826E+03  0.00000000000E+00 0. -1.
         -2    1    1    2    0  501  0.65466693748E+02  0.44001724709E+02  0.18579566906E+02  0.81038509821E+02  0.00000000000E+00 0.  1.
<mgrwt>
<rscale>  0 0.83136735E+02</rscale>
<asrwt>0</asrwt>
<pdfrwt beam="1">  1        2 0.55145024E-01 0.87623285E+02</pdfrwt>
<pdfrwt beam="2">  1       -2 0.16913182E-01 0.78879907E+02</pdfrwt>
<totfact> 0.23971136E+03</totfact>
</mgrwt>
</event>
<event>
 7    1  0.3113530E-004  0.6121577E+02  0.7546771E-02  0.1403967E+00
          1   -1    0    0  503    0  0.00000000000E+00  0.00000000000E+00  0.23718527900E+04  0.23718527900E+04  0.00000000000E+00 0. -1.
          1   -1    0    0  502    0 -0.00000000000E+00 -0.00000000000E+00 -0.13344279610E+03  0.13344279610E+03  0.00000000000E+00 0. -1.
         25    2    1    2    0    0 -0.10634790114E+03  0.73952797012E+01  0.16896951110E+03  0.23566762083E+03  0.12499586227E+03 0.  0.
          4    1    3    3  501    0 -0.23567272723E+01  0.42181912818E+01 -0.19638316739E+02  0.20263851694E+02  0.12700000000E+01 0. -1.
         -4    1    3    3    0  501 -0.10399117387E+03  0.31770884194E+01  0.18860782784E+03  0.21540376914E+03  0.12700000000E+01 0. -1.
          1    1    1    2  502    0  0.52246856606E+02  0.20220592665E+02 -0.91794307873E+02  0.10753976637E+03  0.00000000000E+00 0. -1.
          1    1    1    2  503    0  0.54101044538E+02 -0.27615872366E+02  0.21612347906E+04  0.21620881989E+04  0.00000000000E+00 0. -1.
<mgrwt>
<rscale>  0 0.58561997E+02</rscale>
<asrwt>0</asrwt>
<pdfrwt beam="1">  1        1 0.36490040E+00 0.61215772E+02</pdfrwt>
<pdfrwt beam="2">  1        1 0.20529663E-01 0.56023267E+02</pdfrwt>
<totfact> 0.66551178E+01</totfact>
</mgrwt>
</event>
<event>
 7    1  0.3113530E-004  0.3687256E+02  0.7546771E-02  0.1582004E+00
          2   -1    0    0  503    0  0.00000000000E+00  0.00000000000E+00  0.84729525460E+02  0.84729525460E+02  0.00000000000E+00 0. -1.
         -3   -1    0    0    0  501 -0.00000000000E+00 -0.00000000000E+00 -0.44308253975E+03  0.44308253975E+03  0.00000000000E+00 0.  1.
         25    2    1    2    0    0  0.14151514549E+02 -0.17458888860E+02 -0.31445340104E+02  0.13084041575E+03  0.12500130725E+03 0.  0.
          4    1    3    3  502    0  0.64812531712E+02 -0.33513563344E+02 -0.10605394731E+02  0.73742189365E+02  0.12700000000E+01 0. -1.
         -4    1    3    3    0  502 -0.50661017162E+02  0.16054674484E+02 -0.20839945374E+02  0.57098226382E+02  0.12700000000E+01 0. -1.
          2    1    1    2  503    0 -0.38971653464E+02  0.70298195606E+01  0.23156281232E+02  0.45873974073E+02  0.00000000000E+00 0. -1.
         -3    1    1    2    0  501  0.24820138915E+02  0.10429069299E+02 -0.35006395542E+03  0.35109767540E+03  0.00000000000E+00 0.  1.
<mgrwt>
<rscale>  0 0.31506992E+02</rscale>
<asrwt>0</asrwt>
<pdfrwt beam="1">  1        2 0.13035312E-01 0.36872565E+02</pdfrwt>
<pdfrwt beam="2">  1       -3 0.68166543E-01 0.26922199E+02</pdfrwt>
<totfact> 0.48545340E+02</totfact>
</mgrwt>
</event>
<event>
 7    1  0.3113530E-004  0.3461647E+02  0.7546771E-02  0.1558308E+00
         -1   -1    0    0    0  501 -0.00000000000E+00  0.00000000000E+00  0.82752535316E+02  0.82752535316E+02  0.00000000000E+00 0.  1.
          2   -1    0    0  503    0  0.00000000000E+00 -0.00000000000E+00 -0.15030892380E+03  0.15030892380E+03  0.00000000000E+00 0. -1.
         25    2    1    2    0    0  0.14296163540E+02  0.16338622596E+02 -0.78976696960E+02  0.14944483929E+03  0.12500044179E+03 0.  0.
          4    1    3    3  502    0 -0.54770000439E+02  0.16834397875E+02 -0.42300719997E+02  0.71232813451E+02  0.12700000000E+01 0.  1.
         -4    1    3    3    0  502  0.69066163979E+02 -0.49577527919E+00 -0.36675976964E+02  0.78212025841E+02  0.12700000000E+01 0.  1.
          2    1    1    2  503    0  0.18349251924E+02 -0.29353105973E+02 -0.16862820572E+02  0.38505254110E+02  0.00000000000E+00 0. -1.
         -1    1    1    2    0  501 -0.32645415464E+02  0.13014483377E+02  0.28283129045E+02  0.45111365718E+02  0.00000000000E+00 0.  1.
<mgrwt>
<rscale>  0 0.33930563E+02</rscale>
<asrwt>0</asrwt>
<pdfrwt beam="2">  1        2 0.23124450E-01 0.34616468E+02</pdfrwt>
<pdfrwt beam="1">  1       -1 0.12731159E-01 0.33258248E+02</pdfrwt>
<totfact> 0.91610701E+03</totfact>
</mgrwt>
</event>
<event>
 7    1  0.3113530E-004  0.7741408E+02  0.7546771E-02  0.1399607E+00
          2   -1    0    0  502    0  0.00000000000E+00  0.00000000000E+00  0.64334013244E+03  0.64334013244E+03  0.00000000000E+00 0. -1.
          1   -1    0    0  503    0 -0.00000000000E+00 -0.00000000000E+00 -0.61031438414E+02  0.61031438414E+02  0.00000000000E+00 0. -1.
         25    2    1    2    0    0 -0.65290183903E+02  0.25114178562E+02  0.44115820225E+03  0.46383160917E+03  0.12500268866E+03 0.  0.
          4    1    3    3  501    0 -0.10366492663E+02 -0.36602150045E+02  0.28148247329E+03  0.28404432265E+03  0.12700000000E+01 0. -1.
         -4    1    3    3    0  501 -0.54923691240E+02  0.61716328607E+02  0.15967572896E+03  0.17978728652E+03  0.12700000000E+01 0. -1.
          2    1    1    2  502    0 -0.11160792434E+02 -0.44473763649E+02  0.15395945228E+03  0.16064243489E+03  0.00000000000E+00 0. -1.
          1    1    1    2  503    0  0.76450976337E+02  0.19359585088E+02 -0.12808960512E+02  0.79897526789E+02  0.00000000000E+00 0. -1.
<mgrwt>
<rscale>  0 0.59578957E+02</rscale>
<asrwt>0</asrwt>
<pdfrwt beam="1">  1        2 0.98975400E-01 0.45852796E+02</pdfrwt>
<pdfrwt beam="2">  1        1 0.93894525E-02 0.77414083E+02</pdfrwt>
<totfact> 0.42599039E+03</totfact>
</mgrwt>
</event>
<event>
 7    1  0.3113530E-004  0.4754654E+02  0.7546771E-02  0.1527252E+00
         -1   -1    0    0    0  501 -0.00000000000E+00  0.00000000000E+00  0.18449950638E+03  0.18449950638E+03  0.00000000000E+00 0.  1.
          2   -1    0    0  503    0  0.00000000000E+00 -0.00000000000E+00 -0.70349226645E+02  0.70349226645E+02  0.00000000000E+00 0. -1.
         25    2    1    2    0    0  0.46573427231E+02 -0.29892056413E+01  0.62303140307E+02  0.14724560716E+03  0.12498627149E+03 0.  0.
          4    1    3    3  502    0  0.20218263334E+02  0.58757472393E+02  0.48153086230E+02  0.78622842405E+02  0.12700000000E+01 0. -1.
         -4    1    3    3    0  502  0.26355163897E+02 -0.61746678034E+02  0.14150054077E+02  0.68622764756E+02  0.12700000000E+01 0. -1.
          2    1    1    2  503    0 -0.85301885377E+01 -0.28361776806E+02 -0.74018682040E+01  0.30527727610E+02  0.00000000000E+00 0. -1.
         -1    1    1    2    0  501 -0.38043238694E+02  0.31350982447E+02  0.59249007630E+02  0.77075398253E+02  0.00000000000E+00 0.  1.
<mgrwt>
<rscale>  0 0.37525674E+02</rscale>
<asrwt>0</asrwt>
<pdfrwt beam="2">  1        2 0.10822958E-01 0.29616794E+02</pdfrwt>
<pdfrwt beam="1">  1       -1 0.28384539E-01 0.47546544E+02</pdfrwt>
<totfact> 0.62051551E+03</totfact>
</mgrwt>
</event>
<event>
 7    1  0.3113530E-004  0.1910256E+03  0.7546771E-02  0.1219566E+00
          3   -1    0    0  503    0 -0.00000000000E+00  0.00000000000E+00  0.10020274684E+04  0.10020274684E+04  0.00000000000E+00 0. -1.
          2   -1    0    0  502    0  0.00000000000E+00 -0.00000000000E+00 -0.48978172576E+03  0.48978172576E+03  0.00000000000E+00 0. -1.
         25    2    1    2    0    0  0.12834084731E+03  0.10761922869E+03 -0.69855855510E+02  0.22035828479E+03  0.12499864661E+03 0.  0.
          4    1    3    3  501    0  0.79452584852E+02  0.10148519218E+03 -0.99510432032E+02  0.16283702421E+03  0.12700000000E+01 0.  1.
         -4    1    3    3    0  501  0.48888262458E+02  0.61340365133E+01  0.29654576521E+02  0.57521260581E+02  0.12700000000E+01 0.  1.
          2    1    1    2  502    0  0.62665179566E+02 -0.72809373519E+02 -0.32753168146E+03  0.34132848103E+03  0.00000000000E+00 0. -1.
          3    1    1    2  503    0 -0.19100602688E+03 -0.34809855170E+02  0.90963327957E+03  0.93012242830E+03  0.00000000000E+00 0. -1.
<mgrwt>
<rscale>  0 0.13546411E+03</rscale>
<asrwt>0</asrwt>
<pdfrwt beam="2">  1        2 0.75351035E-01 0.96063154E+02</pdfrwt>
<pdfrwt beam="1">  1        3 0.15415807E+00 0.19102564E+03</pdfrwt>
<totfact> 0.12792295E+01</totfact>
</mgrwt>
</event>
<event>
 7    1  0.3113530E-004  0.5568887E+02  0.7546771E-02  0.1560637E+00
          2   -1    0    0  503    0  0.00000000000E+00  0.00000000000E+00  0.40142771594E+03  0.40142771594E+03  0.00000000000E+00 0. -1.
         -1   -1    0    0    0  501 -0.00000000000E+00 -0.00000000000E+00 -0.89880826648E+02  0.89880826648E+02  0.00000000000E+00 0.  1.
         25    2    1    2    0    0  0.58733742186E+02  0.17012300598E+02  0.43774207159E+02  0.14589524902E+03  0.12502068481E+03 0.  0.
          4    1    3    3  502    0  0.39175492868E+00  0.25730713756E+02  0.74884151824E+02  0.79192627162E+02  0.12700000000E+01 0. -1.
         -4    1    3    3    0  502  0.58341987257E+02 -0.87184131578E+01 -0.31109944666E+02  0.66702621854E+02  0.12700000000E+01 0. -1.
          2    1    1    2  503    0 -0.55493871222E+02  0.30987381931E+01  0.30119077256E+03  0.30627610648E+03  0.00000000000E+00 0. -1.
         -1    1    1    2    0  501 -0.32398709641E+01 -0.20111038791E+02 -0.33418090435E+02  0.39137187091E+02  0.00000000000E+00 0.  1.
<mgrwt>
<rscale>  0 0.33680871E+02</rscale>
<asrwt>0</asrwt>
<pdfrwt beam="1">  1        2 0.61758109E-01 0.55688871E+02</pdfrwt>
<pdfrwt beam="2">  1       -1 0.13827820E-01 0.20370337E+02</pdfrwt>
<totfact> 0.28564228E+03</totfact>
</mgrwt>
</event>
<event>
 7    1  0.3113530E-004  0.5117074E+02  0.7546771E-02  0.1441263E+00
          1   -1    0    0  503    0  0.00000000000E+00  0.00000000000E+00  0.17971532132E+03  0.17971532132E+03  0.00000000000E+00 0. -1.
         -1   -1    0    0    0  501 -0.00000000000E+00 -0.00000000000E+00 -0.34198688707E+03  0.34198688707E+03  0.00000000000E+00 0.  1.
         25    2    1    2    0    0  0.15434991700E+02 -0.18281379034E+02 -0.15996680263E+03  0.20442674194E+03  0.12501386759E+03 0.  0.
          4    1    3    3  502    0 -0.45120860717E+01 -0.11421228362E+02 -0.17691051876E+03  0.17734076780E+03  0.12700000000E+01 0.  1.
         -4    1    3    3    0  502  0.19947077772E+02 -0.68601506720E+01  0.16943716128E+02  0.27085974140E+02  0.12700000000E+01 0.  1.
          1    1    1    2  503    0  0.43896596166E+02  0.26297023942E+02  0.14740704883E+03  0.15603615821E+03  0.00000000000E+00 0. -1.
         -1    1    1    2    0  501 -0.59331587866E+02 -0.80156449077E+01 -0.14971181196E+03  0.16123930824E+03  0.00000000000E+00 0.  1.
<mgrwt>
<rscale>  0 0.50764130E+02</rscale>
<asrwt>0</asrwt>
<pdfrwt beam="1">  1        1 0.27648511E-01 0.51170740E+02</pdfrwt>
<pdfrwt beam="2">  1       -1 0.52613367E-01 0.50360752E+02</pdfrwt>
<totfact> 0.61844226E+02</totfact>
</mgrwt>
</event>
<event>
 7    1  0.3113530E-004  0.3335330E+03  0.7546771E-02  0.1319159E+00
          1   -1    0    0  503    0 -0.00000000000E+00  0.00000000000E+00  0.11537829233E+04  0.11537829233E+04  0.00000000000E+00 0. -1.
          2   -1    0    0  502    0  0.00000000000E+00 -0.00000000000E+00 -0.62561271156E+03  0.62561271156E+03  0.00000000000E+00 0. -1.
         25    2    1    2    0    0  0.20950946694E+03 -0.24474924024E+03  0.25781737954E+03  0.43115146229E+03  0.12500149963E+03 0.  0.
          4    1    3    3  501    0  0.21760933523E+03 -0.23773955793E+03  0.26577563830E+03  0.41774660142E+03  0.12700000000E+01 0. -1.
         -4    1    3    3    0  501 -0.80998682856E+01 -0.70096823038E+01 -0.79582587676E+01  0.13404860867E+02  0.12700000000E+01 0. -1.
          2    1    1    2  502    0 -0.20513244041E+03  0.26523675394E+03 -0.48663403753E+03  0.59096746123E+03  0.00000000000E+00 0. -1.
          1    1    1    2  503    0 -0.43770265292E+01 -0.20487513703E+02  0.75698686969E+03  0.75727671129E+03  0.00000000000E+00 0. -1.
<mgrwt>
<rscale>  0 0.83591085E+02</rscale>
<asrwt>0</asrwt>
<pdfrwt beam="2">  1        2 0.96248109E-01 0.33353301E+03</pdfrwt>
<pdfrwt beam="1">  1        1 0.17750507E+00 0.20949859E+02</pdfrwt>
<totfact> 0.98697683E+01</totfact>
</mgrwt>
</event>
<event>
 7    1  0.3113530E-004  0.1412404E+03  0.7546771E-02  0.1312274E+00
          2   -1    0    0  503    0  0.00000000000E+00  0.00000000000E+00  0.59811207859E+02  0.59811207859E+02  0.00000000000E+00 0. -1.
          2   -1    0    0  502    0 -0.00000000000E+00 -0.00000000000E+00 -0.10720328309E+04  0.10720328309E+04  0.00000000000E+00 0. -1.
         25    2    1    2    0    0 -0.16376486501E+03  0.15983273680E+02 -0.19455283430E+03  0.28381390842E+03  0.12500053292E+03 0.  0.
          4    1    3    3  501    0 -0.19797457470E+01  0.83587343318E+00  0.16928828840E+02  0.17111873758E+02  0.12700000000E+01 0. -1.
         -4    1    3    3    0  501 -0.16178511926E+03  0.15147400247E+02 -0.21148166314E+03  0.26670203466E+03  0.12700000000E+01 0. -1.
          2    1    1    2  502    0  0.13585080639E+03  0.28637026607E+02 -0.74767253622E+03  0.76045364244E+03  0.00000000000E+00 0. -1.
          2    1    1    2  503    0  0.27914058621E+02 -0.44620300287E+02 -0.69996252562E+02  0.87576487935E+02  0.00000000000E+00 0. -1.
<mgrwt>
<rscale>  0 0.86219573E+02</rscale>
<asrwt>0</asrwt>
<pdfrwt beam="1">  1        2 0.92017239E-02 0.52632365E+02</pdfrwt>
<pdfrwt beam="2">  1        2 0.16492814E+00 0.14124037E+03</pdfrwt>
<totfact> 0.24297294E+03</totfact>
</mgrwt>
</event>
<event>
 7    1  0.3113530E-004  0.8915601E+02  0.7546771E-02  0.1359164E+00
          2   -1    0    0  503    0  0.00000000000E+00  0.00000000000E+00  0.43502249063E+03  0.43502249063E+03  0.00000000000E+00 0. -1.
         -1   -1    0    0    0  501 -0.00000000000E+00 -0.00000000000E+00 -0.68615484612E+02  0.68615484612E+02  0.00000000000E+00 0.  1.
         25    2    1    2    0    0  0.25648356358E+02 -0.12564597775E+03  0.12748896191E+03  0.21987354985E+03  0.12508474170E+03 0.  0.
          4    1    3    3  502    0 -0.37081319164E+02 -0.97477429841E+02  0.10375565218E+03  0.14711805402E+03  0.12700000000E+01 0. -1.
         -4    1    3    3    0  502  0.62729675522E+02 -0.28168547905E+02  0.23733309730E+02  0.72755495826E+02  0.12700000000E+01 0. -1.
          2    1    1    2  503    0 -0.94503499728E+01  0.54578572311E+02  0.18495959575E+03  0.19307558553E+03  0.00000000000E+00 0. -1.
         -1    1    1    2    0  501 -0.16198006385E+02  0.71067405435E+02  0.53958448360E+02  0.90688839862E+02  0.00000000000E+00 0.  1.
<mgrwt>
<rscale>  0 0.70273851E+02</rscale>
<asrwt>0</asrwt>
<pdfrwt beam="1">  1        2 0.66926536E-01 0.55390700E+02</pdfrwt>
<pdfrwt beam="2">  1       -1 0.10556229E-01 0.89156015E+02</pdfrwt>
<totfact> 0.43972961E+03</totfact>
</mgrwt>
</event>
<event>
 7    1  0.3113530E-004  0.6842887E+02  0.7546771E-02  0.1422995E+00
         -1   -1    0    0    0  501 -0.00000000000E+00  0.00000000000E+00  0.16546075391E+03  0.16546075391E+03  0.00000000000E+00 0.  1.
          2   -1    0    0  503    0  0.00000000000E+00 -0.00000000000E+00 -0.10376819827E+03  0.10376819827E+03  0.00000000000E+00 0. -1.
         25    2    1    2    0    0 -0.51952413113E+02  0.61325868298E+02  0.51771278054E+02  0.15737075483E+03  0.12500149557E+03 0.  0.
          4    1    3    3  502    0 -0.36695204594E+02  0.83744163018E+02 -0.79340889038E+01  0.91783362036E+02  0.12700000000E+01 0. -1.
         -4    1    3    3    0  502 -0.15257208519E+02 -0.22418294720E+02  0.59705366958E+02  0.65587392794E+02  0.12700000000E+01 0. -1.
          2    1    1    2  503    0  0.90361771383E+01 -0.66566762239E+02  0.13337053579E+02  0.68488417491E+02  0.00000000000E+00 0. -1.
         -1    1    1    2    0  501  0.42916235975E+02  0.52408939404E+01 -0.34157759858E+01  0.43369779860E+02  0.00000000000E+00 0.  1.
<mgrwt>
<rscale>  0 0.54392337E+02</rscale>
<asrwt>0</asrwt>
<pdfrwt beam="2">  1        2 0.15964338E-01 0.68428874E+02</pdfrwt>
<pdfrwt beam="1">  1       -1 0.25455501E-01 0.43235058E+02</pdfrwt>
<totfact> 0.49877311E+03</totfact>
</mgrwt>
</event>
<event>
 7    1  0.3113530E-004  0.6733659E+02  0.7546771E-02  0.1381092E+00
          1   -1    0    0  502    0  0.00000000000E+00  0.00000000000E+00  0.19091638776E+04  0.19091638776E+04  0.00000000000E+00 0.  1.
          3   -1    0    0  503    0 -0.00000000000E+00 -0.00000000000E+00 -0.41414945835E+02  0.41414945835E+02  0.00000000000E+00 0. -1.
         25    2    1    2    0    0  0.70264495577E+02  0.98525145543E+02  0.90411526459E+03  0.92070276630E+03  0.12499947420E+03 0.  0.
          4    1    3    3  501    0  0.73957993709E+01 -0.11710830418E+01  0.49210292271E+03  0.49216152707E+03  0.12700000000E+01 0.  1.
         -4    1    3    3    0  501  0.62868696206E+02  0.99696228585E+02  0.41201234188E+03  0.42854123923E+03  0.12700000000E+01 0.  1.
          1    1    1    2  502    0 -0.42531442261E+02 -0.44006946796E+02  0.96669740285E+03  0.96863274961E+03  0.00000000000E+00 0.  1.
          3    1    1    2  503    0 -0.27733053317E+02 -0.54518198747E+02 -0.30637356735E+01  0.61243307530E+02  0.00000000000E+00 0. -1.
<mgrwt>
<rscale>  0 0.64177505E+02</rscale>
<asrwt>0</asrwt>
<pdfrwt beam="1">  1        1 0.29371745E+00 0.67336590E+02</pdfrwt>
<pdfrwt beam="2">  1        3 0.63715316E-02 0.61166627E+02</pdfrwt>
<totfact> 0.32586017E+02</totfact>
</mgrwt>
</event>
<event>
 7    1  0.3113530E-004  0.1881680E+03  0.7546771E-02  0.1307791E+00
          1   -1    0    0  503    0  0.00000000000E+00  0.00000000000E+00  0.93374876860E+03  0.93374876860E+03  0.00000000000E+00 0. -1.
          1   -1    0    0  502    0 -0.00000000000E+00 -0.00000000000E+00 -0.69393757688E+03  0.69393757688E+03  0.00000000000E+00 0. -1.
         25    2    1    2    0    0 -0.14112384193E+03 -0.78450688788E+02  0.27926052522E+03  0.34595075836E+03  0.12500014773E+03 0.  0.
          4    1    3    3  501    0 -0.52514681495E+01  0.52812665815E+01  0.12082225221E+03  0.12105824724E+03  0.12700000000E+01 0. -1.
         -4    1    3    3    0  501 -0.13587237378E+03 -0.83731955370E+02  0.15843827301E+03  0.22489251113E+03  0.12700000000E+01 0. -1.
          1    1    1    2  502    0 -0.40077861648E+02 -0.93161643832E+01 -0.64360270577E+03  0.64491663708E+03  0.00000000000E+00 0. -1.
          1    1    1    2  503    0  0.18120170358E+03  0.87766853172E+02  0.60415337227E+03  0.63681895004E+03  0.00000000000E+00 0. -1.
<mgrwt>
<rscale>  0 0.87991117E+02</rscale>
<asrwt>0</asrwt>
<pdfrwt beam="1">  1        1 0.14365366E+00 0.18816804E+03</pdfrwt>
<pdfrwt beam="2">  1        1 0.10675963E+00 0.41146396E+02</pdfrwt>
<totfact> 0.68386818E+01</totfact>
</mgrwt>
</event>
<event>
 7    1  0.3113530E-004  0.3774688E+02  0.7546771E-02  0.1555976E+00
          2   -1    0    0  502    0  0.00000000000E+00  0.00000000000E+00  0.31748183578E+03  0.31748183578E+03  0.00000000000E+00 0. -1.
          1   -1    0    0  503    0 -0.00000000000E+00 -0.00000000000E+00 -0.18150113805E+04  0.18150113805E+04  0.00000000000E+00 0. -1.
         25    2    1    2    0    0  0.26025507811E+02 -0.39286108292E+02 -0.27181073750E+03  0.30286490214E+03  0.12500138626E+03 0.  0.
          4    1    3    3  501    0  0.43055616814E+02 -0.57429929501E+02 -0.26825645837E+03  0.27769609882E+03  0.12700000000E+01 0. -1.
         -4    1    3    3    0  501 -0.17030109002E+02  0.18143821209E+02 -0.35542791310E+01  0.25168803325E+02  0.12700000000E+01 0. -1.
          2    1    1    2  502    0  0.48752646017E+01  0.37439420627E+02  0.30061699161E+03  0.30297863632E+03  0.00000000000E+00 0. -1.
          1    1    1    2  503    0 -0.30900772413E+02  0.18466876652E+01 -0.15263357988E+04  0.15266496778E+04  0.00000000000E+00 0. -1.
<mgrwt>
<rscale>  0 0.34183167E+02</rscale>
<asrwt>0</asrwt>
<pdfrwt beam="1">  1        2 0.48843359E-01 0.37746884E+02</pdfrwt>
<pdfrwt beam="2">  1        1 0.27923252E+00 0.30955904E+02</pdfrwt>
<totfact> 0.79614039E+01</totfact>
</mgrwt>
</event>
<event>
 7    1  0.3113530E-004  0.1940875E+03  0.7546771E-02  0.1282510E+00
          2   -1    0    0  502    0  0.00000000000E+00  0.00000000000E+00  0.95668615699E+03  0.95668615699E+03  0.00000000000E+00 0. -1.
          1   -1    0    0  503    0 -0.00000000000E+00 -0.00000000000E+00 -0.99240419198E+02  0.99240419198E+02  0.00000000000E+00 0. -1.
         25    2    1    2    0    0  0.13224653466E+03  0.11325854293E+03  0.18771285391E+03  0.28491557954E+03  0.12499651382E+03 0.  0.
          4    1    3    3  501    0  0.12445566783E+03  0.39042810696E+02  0.77243335075E+02  0.15159716368E+03  0.12700000000E+01 0. -1.
         -4    1    3    3    0  501  0.77908668303E+01  0.74215732230E+02  0.11046951883E+03  0.13331841586E+03  0.12700000000E+01 0. -1.
          2    1    1    2  502    0 -0.11912665656E+03 -0.16197417625E+03  0.68844198225E+03  0.71720231246E+03  0.00000000000E+00 0. -1.
          1    1    1    2  503    0 -0.13119878098E+02  0.48715633327E+02 -0.18709098369E+02  0.53808684183E+02  0.00000000000E+00 0. -1.
<mgrwt>
<rscale>  0 0.98954457E+02</rscale>
<asrwt>0</asrwt>
<pdfrwt beam="1">  1        2 0.14718248E+00 0.19408745E+03</pdfrwt>
<pdfrwt beam="2">  1        1 0.15267757E-01 0.50451404E+02</pdfrwt>
<totfact> 0.13016790E+03</totfact>
</mgrwt>
</event>
<event>
 7    1  0.3113530E-004  0.2912142E+03  0.7546771E-02  0.1125392E+00
          2   -1    0    0  502    0  0.00000000000E+00  0.00000000000E+00  0.66151213128E+03  0.66151213128E+03  0.00000000000E+00 0. -1.
          1   -1    0    0  503    0 -0.00000000000E+00 -0.00000000000E+00 -0.16737888590E+04  0.16737888590E+04  0.00000000000E+00 0. -1.
         25    2    1    2    0    0  0.36417845696E+03  0.77655595470E+02 -0.45706597690E+03  0.60265326421E+03  0.12500123836E+03 0.  0.
          4    1    3    3  501    0  0.14906703244E+03  0.78045205737E+02 -0.13685126816E+03  0.21689148622E+03  0.12700000000E+01 0. -1.
         -4    1    3    3    0  501  0.21511142452E+03 -0.38961026728E+00 -0.32021470875E+03  0.38576177798E+03  0.12700000000E+01 0. -1.
          2    1    1    2  502    0 -0.95674317820E+02 -0.15772954677E+03  0.55644351295E+03  0.58622655016E+03  0.00000000000E+00 0. -1.
          1    1    1    2  503    0 -0.26850413914E+03  0.80073951301E+02 -0.11116542637E+04  0.11464211759E+04  0.00000000000E+00 0. -1.
<mgrwt>
<rscale>  0 0.23178147E+03</rscale>
<asrwt>0</asrwt>
<pdfrwt beam="1">  1        2 0.10177110E+00 0.18447814E+03</pdfrwt>
<pdfrwt beam="2">  1        1 0.25750597E+00 0.29121418E+03</pdfrwt>
<totfact> 0.34113966E+01</totfact>
</mgrwt>
</event>
<event>
 7    1  0.3113530E-004  0.5277075E+02  0.7546771E-02  0.1523036E+00
          1   -1    0    0  503    0  0.00000000000E+00  0.00000000000E+00  0.30720392537E+03  0.30720392537E+03  0.00000000000E+00 0. -1.
         -1   -1    0    0    0  501 -0.00000000000E+00 -0.00000000000E+00 -0.90264900798E+02  0.90264900798E+02  0.00000000000E+00 0.  1.
         25    2    1    2    0    0 -0.81559363414E+01  0.25662411385E+02  0.15833387221E+03  0.20351823219E+03  0.12499990836E+03 0.  0.
          4    1    3    3  502    0  0.26882719495E+02  0.67296324174E+02  0.10256824048E+03  0.12559192932E+03  0.12700000000E+01 0. -1.
         -4    1    3    3    0  502 -0.35038655837E+02 -0.41633912789E+02  0.55765631726E+02  0.77926302868E+02  0.12700000000E+01 0. -1.
          1    1    1    2  503    0 -0.81200456286E+01  0.26213481517E+02  0.11345119202E+03  0.11672298285E+03  0.00000000000E+00 0. -1.
         -1    1    1    2    0  501  0.16275981970E+02 -0.51875892902E+02 -0.54846039661E+02  0.77227611125E+02  0.00000000000E+00 0.  1.
<mgrwt>
<rscale>  0 0.38054601E+02</rscale>
<asrwt>0</asrwt>
<pdfrwt beam="1">  1        1 0.47262142E-01 0.27442335E+02</pdfrwt>
<pdfrwt beam="2">  1       -1 0.13886908E-01 0.52770752E+02</pdfrwt>
<totfact> 0.28352979E+03</totfact>
</mgrwt>
</event>
<event>
 7    1  0.3113530E-004  0.4597156E+02  0.7546771E-02  0.1470556E+00
         -2   -1    0    0    0  501 -0.00000000000E+00  0.00000000000E+00  0.66513188450E+01  0.66513188450E+01  0.00000000000E+00 0.  1.
          1   -1    0    0  503    0  0.00000000000E+00 -0.00000000000E+00 -0.20297496708E+04  0.20297496708E+04  0.00000000000E+00 0. -1.
         25    2    1    2    0    0  0.46859197083E+02  0.21501982315E+02 -0.12756895286E+04  0.12828352055E+04  0.12499708689E+03 0.  0.
          4    1    3    3  502    0  0.85980197222E+02  0.12563303120E+02 -0.63916210943E+03  0.64504282488E+03  0.12700000000E+01 0.  1.
         -4    1    3    3    0  502 -0.39121000139E+02  0.89386791954E+01 -0.63652741912E+03  0.63779238066E+03  0.12700000000E+01 0.  1.
          1    1    1    2  503    0 -0.41234033180E+01 -0.45067346016E+02 -0.43801219148E+03  0.44034389744E+03  0.00000000000E+00 0. -1.
         -2    1    1    2    0  501 -0.42735793765E+02  0.23565363701E+02 -0.30939663192E+03  0.31322188665E+03  0.00000000000E+00 0.  1.
<mgrwt>
<rscale>  0 0.45612171E+02</rscale>
<asrwt>0</asrwt>
<pdfrwt beam="2">  1        1 0.31226957E+00 0.45255587E+02</pdfrwt>
<pdfrwt beam="1">  1       -2 0.10232785E-02 0.45971565E+02</pdfrwt>
<totfact> 0.55422172E+03</totfact>
</mgrwt>
</event>
<event>
 7    1  0.3113530E-004  0.5520042E+02  0.7546771E-02  0.1515449E+00
          1   -1    0    0  503    0  0.00000000000E+00  0.00000000000E+00  0.15575655461E+03  0.15575655461E+03  0.00000000000E+00 0. -1.
         -2   -1    0    0    0  501 -0.00000000000E+00 -0.00000000000E+00 -0.10359366317E+03  0.10359366317E+03  0.00000000000E+00 0.  1.
         25    2    1    2    0    0 -0.10052023579E+02  0.31982789635E+02 -0.32001974117E+02  0.13331659597E+03  0.12500098560E+03 0.  0.
          4    1    3    3  502    0 -0.49675904712E+02  0.36145508139E+02  0.22808022268E+02  0.65543970335E+02  0.12700000000E+01 0.  1.
         -4    1    3    3    0  502  0.39623881133E+02 -0.41627185040E+01 -0.54809996385E+02  0.67772625632E+02  0.12700000000E+01 0.  1.
          1    1    1    2  503    0  0.32772049430E+02 -0.47655151235E+02  0.79072372633E+02  0.97966630936E+02  0.00000000000E+00 0. -1.
         -2    1    1    2    0  501 -0.22720025852E+02  0.15672361601E+02  0.50924929260E+01  0.28066990880E+02  0.00000000000E+00 0.  1.
<mgrwt>
<rscale>  0 0.39033243E+02</rscale>
<asrwt>0</asrwt>
<pdfrwt beam="1">  1        1 0.23962547E-01 0.55200419E+02</pdfrwt>
<pdfrwt beam="2">  1       -2 0.15937487E-01 0.27601132E+02</pdfrwt>
<totfact> 0.46529066E+03</totfact>
</mgrwt>
</event>
<event>
 7    1  0.3113530E-004  0.1727421E+03  0.7546771E-02  0.1346922E+00
          2   -1    0    0  502    0  0.00000000000E+00  0.00000000000E+00  0.27119795854E+03  0.27119795854E+03  0.00000000000E+00 0. -1.
          2   -1    0    0  503    0 -0.00000000000E+00 -0.00000000000E+00 -0.44745728455E+03  0.44745728455E+03  0.00000000000E+00 0. -1.
         25    2    1    2    0    0  0.80390275737E+02 -0.15835443322E+03  0.47559163780E+02  0.22231747671E+03  0.12499785373E+03 0.  0.
          4    1    3    3  501    0 -0.86750101784E+01 -0.46567090728E+02  0.62689255894E+02  0.78583111703E+02  0.12700000000E+01 0. -1.
         -4    1    3    3    0  501  0.89065285916E+02 -0.11178734249E+03 -0.15130092114E+02  0.14373436501E+03  0.12700000000E+01 0. -1.
          2    1    1    2  502    0  0.23766484809E+02  0.21008070287E+02  0.11332700106E+03  0.11768259848E+03  0.00000000000E+00 0. -1.
          2    1    1    2  503    0 -0.10415676055E+03  0.13734636293E+03 -0.33714549085E+03  0.37865516790E+03  0.00000000000E+00 0. -1.
<mgrwt>
<rscale>  0 0.74023314E+02</rscale>
<asrwt>0</asrwt>
<pdfrwt beam="1">  1        2 0.41722763E-01 0.31720416E+02</pdfrwt>
<pdfrwt beam="2">  1        2 0.68839582E-01 0.17274209E+03</pdfrwt>
<totfact> 0.13032290E+03</totfact>
</mgrwt>
</event>
<event>
 7    1  0.3113530E-004  0.4505005E+02  0.7546771E-02  0.1510978E+00
          2   -1    0    0  503    0  0.00000000000E+00  0.00000000000E+00  0.14398685568E+03  0.14398685568E+03  0.00000000000E+00 0. -1.
          2   -1    0    0  502    0 -0.00000000000E+00 -0.00000000000E+00 -0.75711003627E+03  0.75711003627E+03  0.00000000000E+00 0.  1.
         25    2    1    2    0    0 -0.27846522017E+02 -0.29805446017E+02 -0.34290566711E+02  0.13588228841E+03  0.12499743973E+03 0.  0.
          4    1    3    3  501    0 -0.51979909528E+01  0.41776548438E+02 -0.43117919055E+02  0.60274928063E+02  0.12700000000E+01 0.  1.
         -4    1    3    3    0  501 -0.22648531065E+02 -0.71581994455E+02  0.88273523438E+01  0.75607360349E+02  0.12700000000E+01 0.  1.
          2    1    1    2  502    0  0.30830292888E+02 -0.16261246253E+02 -0.66582277031E+03  0.66673450229E+03  0.00000000000E+00 0.  1.
          2    1    1    2  503    0 -0.29837708710E+01  0.46066692269E+02  0.86990156427E+02  0.98480101241E+02  0.00000000000E+00 0. -1.
<mgrwt>
<rscale>  0 0.39626518E+02</rscale>
<asrwt>0</asrwt>
<pdfrwt beam="1">  1        2 0.22151824E-01 0.45050052E+02</pdfrwt>
<pdfrwt beam="2">  1        2 0.11647847E+00 0.34855919E+02</pdfrwt>
<totfact> 0.14677027E+03</totfact>
</mgrwt>
</event>
<event>
 7    1  0.3113530E-004  0.3389588E+02  0.7546771E-02  0.1614205E+00
          1   -1    0    0  503    0  0.00000000000E+00  0.00000000000E+00  0.32205917869E+02  0.32205917869E+02  0.00000000000E+00 0. -1.
         -2   -1    0    0    0  501 -0.00000000000E+00 -0.00000000000E+00 -0.45400476550E+03  0.45400476550E+03  0.00000000000E+00 0.  1.
         25    2    1    2    0    0  0.20280368689E+02 -0.51079462886E+02 -0.30049654750E+03  0.33003196477E+03  0.12491003894E+03 0.  0.
          4    1    3    3  502    0 -0.44941883040E+02 -0.55015786272E+02 -0.16150379229E+03  0.17644148439E+03  0.12700000000E+01 0.  1.
         -4    1    3    3    0  502  0.65222251729E+02  0.39363233861E+01 -0.13899275521E+03  0.15359048038E+03  0.12700000000E+01 0.  1.
          1    1    1    2  503    0 -0.57678836073E+01  0.23416680423E+02  0.62037950077E+01  0.24901736402E+02  0.00000000000E+00 0. -1.
         -2    1    1    2    0  501 -0.14512485082E+02  0.27662782463E+02 -0.12750609514E+03  0.13127698220E+03  0.00000000000E+00 0.  1.
<mgrwt>
<rscale>  0 0.28591127E+02</rscale>
<asrwt>0</asrwt>
<pdfrwt beam="1">  1        1 0.49547568E-02 0.24116579E+02</pdfrwt>
<pdfrwt beam="2">  1       -2 0.69846884E-01 0.33895875E+02</pdfrwt>
<totfact> 0.22849555E+03</totfact>
</mgrwt>
</event>
<event>
 7    1  0.3113530E-004  0.6211132E+02  0.7546771E-02  0.1445558E+00
          2   -1    0    0  503    0  0.00000000000E+00  0.00000000000E+00  0.64498249285E+03  0.64498249285E+03  0.00000000000E+00 0. -1.
         -1   -1    0    0    0  501 -0.00000000000E+00 -0.00000000000E+00 -0.56672507472E+03  0.56672507472E+03  0.00000000000E+00 0.  1.
         25    2    1    2    0    0  0.32854674763E+01  0.48281966825E+02  0.38531968116E+03  0.40796702474E+03  0.12499557581E+03 0.  0.
          4    1    3    3  502    0  0.60653334498E+02  0.67589601097E+01  0.21523587617E+03  0.22372439701E+03  0.12700000000E+01 0. -1.
         -4    1    3    3    0  502 -0.57367867022E+02  0.41523006716E+02  0.17008380498E+03  0.18424262773E+03  0.12700000000E+01 0. -1.
          2    1    1    2  503    0 -0.40143352822E+02  0.18486285936E+01  0.24495406330E+03  0.24822852240E+03  0.00000000000E+00 0. -1.
         -1    1    1    2    0  501  0.36857885346E+02 -0.50130595419E+02 -0.55201632633E+03  0.55551202043E+03  0.00000000000E+00 0.  1.
<mgrwt>
<rscale>  0 0.49959972E+02</rscale>
<asrwt>0</asrwt>
<pdfrwt beam="1">  1        2 0.99228076E-01 0.40185896E+02</pdfrwt>
<pdfrwt beam="2">  1       -1 0.87188473E-01 0.62111315E+02</pdfrwt>
<totfact> 0.80338502E+01</totfact>
</mgrwt>
</event>
<event>
 7    1  0.3113530E-004  0.9434323E+02  0.7546771E-02  0.1362899E+00
          1   -1    0    0  503    0 -0.00000000000E+00  0.00000000000E+00  0.23539738903E+02  0.23539738903E+02  0.00000000000E+00 0. -1.
          2   -1    0    0  502    0  0.00000000000E+00 -0.00000000000E+00 -0.18832575479E+04  0.18832575479E+04  0.00000000000E+00 0. -1.
         25    2    1    2    0    0 -0.58578400092E+02  0.82175688599E+02 -0.13244316140E+04  0.13341403433E+04  0.12500833123E+03 0.  0.
          4    1    3    3  501    0 -0.39120345994E+02  0.11433924063E+03 -0.90668480382E+03  0.91470367322E+03  0.12700000000E+01 0.  1.
         -4    1    3    3    0  501 -0.19458054098E+02 -0.32163552035E+02 -0.41774681014E+03  0.41943667011E+03  0.12700000000E+01 0.  1.
          2    1    1    2  502    0 -0.27642053173E+02 -0.42537900009E+02 -0.42128436609E+03  0.42432778975E+03  0.00000000000E+00 0. -1.
          1    1    1    2  503    0  0.86220453265E+02 -0.39637788590E+02 -0.11400182898E+03  0.14832915377E+03  0.00000000000E+00 0. -1.
<mgrwt>
<rscale>  0 0.69181311E+02</rscale>
<asrwt>0</asrwt>
<pdfrwt beam="2">  1        2 0.28973196E+00 0.50730228E+02</pdfrwt>
<pdfrwt beam="1">  1        1 0.36214979E-02 0.94343234E+02</pdfrwt>
<totfact> 0.32494010E+03</totfact>
</mgrwt>
</event>
<event>
 7    1  0.3113530E-004  0.6156446E+02  0.7546771E-02  0.1446025E+00
         -1   -1    0    0    0  501 -0.00000000000E+00  0.00000000000E+00  0.38155951577E+02  0.38155951577E+02  0.00000000000E+00 0.  1.
          2   -1    0    0  503    0  0.00000000000E+00 -0.00000000000E+00 -0.15974769109E+04  0.15974769109E+04  0.00000000000E+00 0. -1.
         25    2    1    2    0    0 -0.63169826079E+02 -0.47301517620E+02 -0.23887396870E+03  0.28091642441E+03  0.12500161635E+03 0.  0.
          4    1    3    3  502    0 -0.38869855576E+02 -0.71165027140E+02 -0.65560952238E+02  0.10428412208E+03  0.12700000000E+01 0. -1.
         -4    1    3    3    0  502 -0.24299970503E+02  0.23863509519E+02 -0.17331301646E+03  0.17663230233E+03  0.12700000000E+01 0. -1.
          2    1    1    2  503    0  0.39675946836E+02 -0.76284811887E+01 -0.12842036832E+04  0.12848390851E+04  0.00000000000E+00 0. -1.
         -1    1    1    2    0  501  0.23493879243E+02  0.54929998809E+02 -0.36243307396E+02  0.69877352998E+02  0.00000000000E+00 0.  1.
<mgrwt>
<rscale>  0 0.49873515E+02</rscale>
<asrwt>0</asrwt>
<pdfrwt beam="2">  1        2 0.24576569E+00 0.40402654E+02</pdfrwt>
<pdfrwt beam="1">  1       -1 0.58701461E-02 0.61564456E+02</pdfrwt>
<totfact> 0.19853836E+03</totfact>
</mgrwt>
</event>
<event>
 7    1  0.3113530E-004  0.8002586E+02  0.7546771E-02  0.1443241E+00
          2   -1    0    0  503    0  0.00000000000E+00  0.00000000000E+00  0.54073948686E+03  0.54073948686E+03  0.00000000000E+00 0. -1.
          2   -1    0    0  502    0 -0.00000000000E+00 -0.00000000000E+00 -0.20081372923E+04  0.20081372923E+04  0.00000000000E+00 0.  1.
         25    2    1    2    0    0 -0.62824998934E+02 -0.21186173345E+02 -0.14445546360E+03  0.20220932248E+03  0.12500157880E+03 0.  0.
          4    1    3    3  501    0 -0.84226956182E+02 -0.38535577939E+02 -0.53080826890E+02  0.10676309286E+03  0.12700000000E+01 0.  1.
         -4    1    3    3    0  501  0.21401957247E+02  0.17349404594E+02 -0.91374636710E+02  0.95446229615E+02  0.12700000000E+01 0.  1.
          2    1    1    2  502    0 -0.17361138599E+02  0.26560459815E+02 -0.18315121171E+04  0.18317869696E+04  0.00000000000E+00 0.  1.
          2    1    1    2  503    0  0.80186137533E+02 -0.53742864697E+01  0.50856977525E+03  0.51488048702E+03  0.00000000000E+00 0. -1.
<mgrwt>
<rscale>  0 0.50391609E+02</rscale>
<asrwt>0</asrwt>
<pdfrwt beam="1">  1        2 0.83190691E-01 0.80025864E+02</pdfrwt>
<pdfrwt beam="2">  1        2 0.30894420E+00 0.31731170E+02</pdfrwt>
<totfact> 0.84839044E+01</totfact>
</mgrwt>
</event>
<event>
 7    1  0.3113530E-004  0.3749976E+02  0.7546771E-02  0.1547396E+00
          2   -1    0    0  502    0  0.00000000000E+00  0.00000000000E+00  0.17454943761E+04  0.17454943761E+04  0.00000000000E+00 0.  1.
          1   -1    0    0  503    0 -0.00000000000E+00 -0.00000000000E+00 -0.75171336971E+03  0.75171336971E+03  0.00000000000E+00 0. -1.
         25    2    1    2    0    0  0.67364986416E+02 -0.19441469520E+02  0.37465555061E+03  0.40113314628E+03  0.12500002926E+03 0.  0.
          4    1    3    3  501    0 -0.31923505802E+02 -0.22916805008E+02  0.15739192634E+03  0.16222860892E+03  0.12700000000E+01 0.  1.
         -4    1    3    3    0  501  0.99288492218E+02  0.34753354882E+01  0.21726362427E+03  0.23890453737E+03  0.12700000000E+01 0.  1.
          2    1    1    2  502    0 -0.32341134825E+02  0.61528144544E+01  0.13569251949E+04  0.13573244972E+04  0.00000000000E+00 0.  1.
          1    1    1    2  503    0 -0.35023851592E+02  0.13288655065E+02 -0.73779973916E+03  0.73875010229E+03  0.00000000000E+00 0. -1.
<mgrwt>
<rscale>  0 0.35135986E+02</rscale>
<asrwt>0</asrwt>
<pdfrwt beam="1">  1        2 0.26853760E+00 0.32921211E+02</pdfrwt>
<pdfrwt beam="2">  1        1 0.11564821E+00 0.37499761E+02</pdfrwt>
<totfact> 0.47302973E+01</totfact>
</mgrwt>
</event>
<event>
 7    1  0.3113530E-004  0.1622577E+03  0.7546771E-02  0.1194279E+00
          1   -1    0    0  503    0  0.00000000000E+00  0.00000000000E+00  0.22230909336E+03  0.22230909336E+03  0.00000000000E+00 0. -1.
          1   -1    0    0  502    0 -0.00000000000E+00 -0.00000000000E+00 -0.96814515335E+03  0.96814515335E+03  0.00000000000E+00 0.  1.
         25    2    1    2    0    0 -0.42774230764E+02  0.18437375170E+03 -0.29559632877E+03  0.37259292604E+03  0.12499993527E+03 0.  0.
          4    1    3    3  501    0 -0.11083719145E+02  0.57783649058E+01 -0.11823841969E+03  0.11890405848E+03  0.12700000000E+01 0.  1.
         -4    1    3    3    0  501 -0.31690511619E+02  0.17859538680E+03 -0.17735790907E+03  0.25368886756E+03  0.12700000000E+01 0.  1.
          1    1    1    2  502    0 -0.10358524450E+03 -0.10621197588E+03 -0.58536739006E+03  0.60387570579E+03  0.00000000000E+00 0.  1.
          1    1    1    2  503    0  0.14635947526E+03 -0.78161775822E+02  0.13512765883E+03  0.21398561489E+03  0.00000000000E+00 0. -1.
<mgrwt>
<rscale>  0 0.15515367E+03</rscale>
<asrwt>0</asrwt>
<pdfrwt beam="1">  1        1 0.34201399E-01 0.16225771E+03</pdfrwt>
<pdfrwt beam="2">  1        1 0.14894541E+00 0.14836066E+03</pdfrwt>
<totfact> 0.26823648E+02</totfact>
</mgrwt>
</event>
<event>
 7    1  0.3113530E-004  0.1721644E+03  0.7546771E-02  0.1365953E+00
          2   -1    0    0  502    0  0.00000000000E+00  0.00000000000E+00  0.75959677273E+03  0.75959677273E+03  0.00000000000E+00 0. -1.
          2   -1    0    0  503    0 -0.00000000000E+00 -0.00000000000E+00 -0.10457316269E+04  0.10457316269E+04  0.00000000000E+00 0. -1.
         25    2    1    2    0    0  0.26463453042E+02  0.14549837755E+03 -0.24965226986E+03  0.31594508479E+03  0.12499979417E+03 0.  0.
          4    1    3    3  501    0  0.27690026108E+01  0.15063353351E+03 -0.24973985180E+03  0.29166716522E+03  0.12700000000E+01 0.  1.
         -4    1    3    3    0  501  0.23694450431E+02 -0.51351559614E+01  0.87581939914E-01  0.24277919569E+02  0.12700000000E+01 0.  1.
          2    1    1    2  502    0 -0.41579133057E+02 -0.16799074556E+03  0.71589609030E+03  0.73651675269E+03  0.00000000000E+00 0. -1.
          2    1    1    2  503    0  0.15115680015E+02  0.22492368011E+02 -0.75237867461E+03  0.75286656216E+03  0.00000000000E+00 0. -1.
<mgrwt>
<rscale>  0 0.68305148E+02</rscale>
<asrwt>0</asrwt>
<pdfrwt beam="1">  1        2 0.11686104E+00 0.17216441E+03</pdfrwt>
<pdfrwt beam="2">  1        2 0.16088179E+00 0.27099638E+02</pdfrwt>
<totfact> 0.16780164E+02</totfact>
</mgrwt>
</event>
<event>
 7    1  0.3113530E-004  0.1312450E+03  0.7546771E-02  0.1261968E+00
         -3   -1    0    0    0  501 -0.00000000000E+00  0.00000000000E+00  0.58393620091E+03  0.58393620091E+03  0.00000000000E+00 0.  1.
          2   -1    0    0  503    0  0.00000000000E+00 -0.00000000000E+00 -0.26990680585E+04  0.26990680585E+04  0.00000000000E+00 0. -1.
         25    2    1    2    0    0 -0.91697376555E+02 -0.50587363080E+02 -0.66015270963E+03  0.67999155887E+03  0.12497771773E+03 0.  0.
          4    1    3    3  502    0 -0.82632413160E+02 -0.47015016907E+01 -0.18663486912E+03  0.20416759561E+03  0.12700000000E+01 0. -1.
         -4    1    3    3    0  502 -0.90649633948E+01 -0.45885861389E+02 -0.47351784051E+03  0.47582396326E+03  0.12700000000E+01 0. -1.
          2    1    1    2  503    0 -0.35992024809E+02  0.83513071879E+02 -0.20203863742E+04  0.20224319420E+04  0.00000000000E+00 0. -1.
         -3    1    1    2    0  501  0.12768940136E+03 -0.32925708799E+02  0.56540722631E+03  0.58058075845E+03  0.00000000000E+00 0.  1.
<mgrwt>
<rscale>  0 0.10924860E+03</rscale>
<asrwt>0</asrwt>
<pdfrwt beam="2">  1        2 0.41524124E+00 0.90938765E+02</pdfrwt>
<pdfrwt beam="1">  1       -3 0.89836338E-01 0.13124499E+03</pdfrwt>
<totfact> 0.25701827E+00</totfact>
</mgrwt>
</event>
<event>
 7    1  0.3113530E-004  0.6289021E+02  0.7546771E-02  0.1421163E+00
          2   -1    0    0  503    0  0.00000000000E+00  0.00000000000E+00  0.18740215279E+03  0.18740215279E+03  0.00000000000E+00 0. -1.
         -2   -1    0    0    0  501 -0.00000000000E+00 -0.00000000000E+00 -0.44839605583E+03  0.44839605583E+03  0.00000000000E+00 0.  1.
         25    2    1    2    0    0  0.39988912586E+02  0.85146045080E+02 -0.27368340992E+03  0.31524231333E+03  0.12500458042E+03 0.  0.
          4    1    3    3  502    0 -0.38105569835E+02  0.62593733940E+02 -0.10573316589E+03  0.12865117664E+03  0.12700000000E+01 0.  1.
         -4    1    3    3    0  502  0.78094482421E+02  0.22552311140E+02 -0.16795024403E+03  0.18659113669E+03  0.12700000000E+01 0.  1.
          2    1    1    2  503    0  0.19623898150E+01 -0.62427093628E+02  0.15678515638E+03  0.16876782351E+03  0.00000000000E+00 0. -1.
         -2    1    1    2    0  501 -0.41951302401E+02 -0.22718951452E+02 -0.14409564950E+03  0.15178807178E+03  0.00000000000E+00 0.  1.
<mgrwt>
<rscale>  0 0.54775653E+02</rscale>
<asrwt>0</asrwt>
<pdfrwt beam="1">  1        2 0.28831101E-01 0.62890209E+02</pdfrwt>
<pdfrwt beam="2">  1       -2 0.68984008E-01 0.47708097E+02</pdfrwt>
<totfact> 0.35870296E+02</totfact>
</mgrwt>
</event>
<event>
 7    1  0.3113530E-004  0.1695243E+03  0.7546771E-02  0.1384128E+00
          2   -1    0    0  502    0  0.00000000000E+00  0.00000000000E+00  0.17403161236E+04  0.17403161236E+04  0.00000000000E+00 0. -1.
          2   -1    0    0  503    0 -0.00000000000E+00 -0.00000000000E+00 -0.20006372911E+04  0.20006372911E+04  0.00000000000E+00 0. -1.
         25    2    1    2    0    0  0.89597076291E+02 -0.15100221651E+03 -0.27577245213E+03  0.35000081764E+03  0.12498328497E+03 0.  0.
          4    1    3    3  501    0  0.54643866765E+01 -0.91158752036E+01 -0.12825915873E+03  0.12870502476E+03  0.12700000000E+01 0. -1.
         -4    1    3    3    0  501  0.84132689614E+02 -0.14188634131E+03 -0.14751329340E+03  0.22129579287E+03  0.12700000000E+01 0. -1.
          2    1    1    2  502    0 -0.23285696841E+02 -0.44341230375E+01  0.16988889181E+04  0.16990542785E+04  0.00000000000E+00 0. -1.
          2    1    1    2  503    0 -0.66311379450E+02  0.15543633955E+03 -0.16834376334E+04  0.16918983186E+04  0.00000000000E+00 0. -1.
<mgrwt>
<rscale>  0 0.63391033E+02</rscale>
<asrwt>0</asrwt>
<pdfrwt beam="1">  1        2 0.26774094E+00 0.23704116E+02</pdfrwt>
<pdfrwt beam="2">  1        2 0.30779035E+00 0.16952427E+03</pdfrwt>
<totfact> 0.15779935E+01</totfact>
</mgrwt>
</event>
<event>
 7    1  0.3113530E-004  0.3973213E+03  0.7546771E-02  0.1275286E+00
          1   -1    0    0  502    0  0.00000000000E+00  0.00000000000E+00  0.27485177961E+04  0.27485177961E+04  0.00000000000E+00 0.  1.
          1   -1    0    0  503    0 -0.00000000000E+00 -0.00000000000E+00 -0.11671428704E+03  0.11671428704E+03  0.00000000000E+00 0. -1.
         25    2    1    2    0    0  0.14548055308E+02 -0.39344255780E+03  0.17452116962E+04  0.17934320139E+04  0.12500332718E+03 0.  0.
          4    1    3    3  501    0  0.42058082751E+02 -0.17346777866E+03  0.10052458970E+04  0.10209705573E+04  0.12700000000E+01 0.  1.
         -4    1    3    3    0  501 -0.27510027443E+02 -0.21997477913E+03  0.73996579922E+03  0.77246145663E+03  0.12700000000E+01 0.  1.
          1    1    1    2  502    0 -0.25969711934E+02 -0.47581945827E+01  0.54898470548E+03  0.54961920746E+03  0.00000000000E+00 0.  1.
          1    1    1    2  503    0  0.11421656626E+02  0.39820075238E+03  0.33760710735E+03  0.52218086174E+03  0.00000000000E+00 0. -1.
<mgrwt>
<rscale>  0 0.10242111E+03</rscale>
<asrwt>0</asrwt>
<pdfrwt beam="1">  1        1 0.42284884E+00 0.26402014E+02</pdfrwt>
<pdfrwt beam="2">  1        1 0.17956046E-01 0.39732131E+03</pdfrwt>
<totfact> 0.56283187E+01</totfact>
</mgrwt>
</event>
<event>
 7    1  0.3113530E-004  0.8489957E+02  0.7546771E-02  0.1399780E+00
         -3   -1    0    0    0  501 -0.00000000000E+00  0.00000000000E+00  0.73561968842E+02  0.73561968842E+02  0.00000000000E+00 0.  1.
          1   -1    0    0  503    0  0.00000000000E+00 -0.00000000000E+00 -0.53839159468E+03  0.53839159468E+03  0.00000000000E+00 0. -1.
         25    2    1    2    0    0 -0.36881570453E+02  0.42747542273E+02 -0.17577062248E+03  0.22294775656E+03  0.12499115097E+03 0.  0.
          4    1    3    3  502    0 -0.46467918666E+01  0.28485800145E+02  0.12444262066E+02  0.31456414973E+02  0.12700000000E+01 0.  1.
         -4    1    3    3    0  502 -0.32234778586E+02  0.14261742128E+02 -0.18821488455E+03  0.19149134159E+03  0.12700000000E+01 0.  1.
          1    1    1    2  503    0 -0.41490199999E+02  0.46743423922E+01 -0.29430646234E+03  0.29725339350E+03  0.00000000000E+00 0. -1.
         -3    1    1    2    0  501  0.78371770452E+02 -0.47421884665E+02  0.52474589867E+01  0.91752413455E+02  0.00000000000E+00 0.  1.
<mgrwt>
<rscale>  0 0.59538093E+02</rscale>
<asrwt>0</asrwt>
<pdfrwt beam="2">  1        1 0.82829473E-01 0.41752679E+02</pdfrwt>
<pdfrwt beam="1">  1       -3 0.11317226E-01 0.84899570E+02</pdfrwt>
<totfact> 0.12769555E+03</totfact>
</mgrwt>
</event>
<event>
 7    1  0.3113530E-004  0.5841307E+02  0.7546771E-02  0.1433342E+00
          2   -1    0    0  502    0  0.00000000000E+00  0.00000000000E+00  0.21593653475E+04  0.21593653475E+04  0.00000000000E+00 0. -1.
          1   -1    0    0  503    0 -0.00000000000E+00 -0.00000000000E+00 -0.44443253780E+03  0.44443253780E+03  0.00000000000E+00 0. -1.
         25    2    1    2    0    0 -0.32448660389E+02  0.74797628897E+02 -0.96742091253E+02  0.17784639613E+03  0.12499082985E+03 0.  0.
          4    1    3    3  501    0 -0.23247901811E+02 -0.19906521404E+02 -0.73881897377E+02  0.79980511333E+02  0.12700000000E+01 0.  1.
         -4    1    3    3    0  501 -0.92007585779E+01  0.94704150301E+02 -0.22860193876E+02  0.97865884795E+02  0.12700000000E+01 0.  1.
          2    1    1    2  502    0 -0.16309915454E+02 -0.43884833835E+02  0.21158390043E+04  0.21163569132E+04  0.00000000000E+00 0. -1.
          1    1    1    2  503    0  0.48758575843E+02 -0.30912795062E+02 -0.30416410342E+03  0.30959457590E+03  0.00000000000E+00 0. -1.
<mgrwt>
<rscale>  0 0.52294957E+02</rscale>
<asrwt>0</asrwt>
<pdfrwt beam="1">  1        2 0.33221005E+00 0.46817646E+02</pdfrwt>
<pdfrwt beam="2">  1        1 0.68374238E-01 0.58413073E+02</pdfrwt>
<totfact> 0.55916455E+01</totfact>
</mgrwt>
</event>
<event>
 7    1  0.3113530E-004  0.3102575E+02  0.7546771E-02  0.1592228E+00
         -2   -1    0    0    0  501 -0.00000000000E+00  0.00000000000E+00  0.81013084472E+01  0.81013084472E+01  0.00000000000E+00 0.  1.
          1   -1    0    0  503    0  0.00000000000E+00 -0.00000000000E+00 -0.13303047081E+04  0.13303047081E+04  0.00000000000E+00 0. -1.
         25    2    1    2    0    0  0.29395101326E+01  0.91150492158E+01 -0.68082372242E+03  0.69226966245E+03  0.12499847881E+03 0.  0.
          4    1    3    3  502    0 -0.44812926288E+02 -0.20172549460E+02 -0.13674501446E+03  0.14531325471E+03  0.12700000000E+01 0.  1.
         -4    1    3    3    0  502  0.47752436420E+02  0.29287598676E+02 -0.54407870796E+03  0.54695640775E+03  0.12700000000E+01 0.  1.
          1    1    1    2  503    0 -0.14732784424E+02  0.26197291256E+02 -0.45969344040E+03  0.46067495281E+03  0.00000000000E+00 0. -1.
         -2    1    1    2    0  501  0.11793274291E+02 -0.35312340472E+02 -0.18168623679E+03  0.18546140124E+03  0.00000000000E+00 0.  1.
<mgrwt>
<rscale>  0 0.30536942E+02</rscale>
<asrwt>0</asrwt>
<pdfrwt beam="2">  1        1 0.20466191E+00 0.30055831E+02</pdfrwt>
<pdfrwt beam="1">  1       -2 0.12463573E-02 0.31025755E+02</pdfrwt>
<totfact> 0.10935967E+04</totfact>
</mgrwt>
</event>
<event>
 7    1  0.3113530E-004  0.6747261E+02  0.7546771E-02  0.1492707E+00
          3   -1    0    0  503    0  0.00000000000E+00  0.00000000000E+00  0.63130515717E+03  0.63130515717E+03  0.00000000000E+00 0. -1.
         -3   -1    0    0    0  501 -0.00000000000E+00 -0.00000000000E+00 -0.61815393487E+02  0.61815393487E+02  0.00000000000E+00 0.  1.
         25    2    1    2    0    0 -0.57993148566E+02  0.67603415780E+02  0.32497083189E+03  0.35939425338E+03  0.12499904272E+03 0.  0.
          4    1    3    3  502    0  0.20385826962E+02 -0.21828472684E+02  0.35276124966E+02  0.46239399361E+02  0.12700000000E+01 0.  1.
         -4    1    3    3    0  502 -0.78378975528E+02  0.89431888464E+02  0.28969470692E+03  0.31315485402E+03  0.12700000000E+01 0.  1.
          3    1    1    2  503    0  0.23937722296E+02 -0.11079241246E+02  0.26369111356E+03  0.26500710841E+03  0.00000000000E+00 0. -1.
         -3    1    1    2    0  501  0.34055426270E+02 -0.56524174534E+02 -0.19172181764E+02  0.68719188869E+02  0.00000000000E+00 0.  1.
<mgrwt>
<rscale>  0 0.42187060E+02</rscale>
<asrwt>0</asrwt>
<pdfrwt beam="1">  1        3 0.97123866E-01 0.26377341E+02</pdfrwt>
<pdfrwt beam="2">  1       -3 0.95100610E-02 0.67472609E+02</pdfrwt>
<totfact> 0.15833154E+02</totfact>
</mgrwt>
</event>
<event>
 7    1  0.3113530E-004  0.5075663E+02  0.7546771E-02  0.1487112E+00
          3   -1    0    0  503    0 -0.00000000000E+00  0.00000000000E+00  0.15661301202E+03  0.15661301202E+03  0.00000000000E+00 0. -1.
          2   -1    0    0  502    0  0.00000000000E+00 -0.00000000000E+00 -0.81488228293E+03  0.81488228293E+03  0.00000000000E+00 0. -1.
         25    2    1    2    0    0  0.29093334536E+02 -0.39062627938E+02  0.61154491377E+00  0.13415492906E+03  0.12499943995E+03 0.  0.
          4    1    3    3  501    0  0.71294171292E+02 -0.25925224955E+01  0.21594770258E+02  0.74548823167E+02  0.12700000000E+01 0.  1.
         -4    1    3    3    0  501 -0.42200836755E+02 -0.36470105442E+02 -0.20983225344E+02  0.59606105892E+02  0.12700000000E+01 0.  1.
          2    1    1    2  502    0  0.22229289524E+02  0.28897576447E+02 -0.73995364922E+03  0.74085127673E+03  0.00000000000E+00 0. -1.
          3    1    1    2  503    0 -0.51322624060E+02  0.10165051491E+02  0.81072833397E+02  0.96489089162E+02  0.00000000000E+00 0. -1.
<mgrwt>
<rscale>  0 0.43017471E+02</rscale>
<asrwt>0</asrwt>
<pdfrwt beam="2">  1        2 0.12536651E+00 0.36458349E+02</pdfrwt>
<pdfrwt beam="1">  1        3 0.24094309E-01 0.50756627E+02</pdfrwt>
<totfact> 0.33097303E+02</totfact>
</mgrwt>
</event>
<event>
 7    1  0.3113530E-004  0.5155203E+02  0.7546771E-02  0.1489770E+00
          2   -1    0    0  502    0  0.00000000000E+00  0.00000000000E+00  0.28377893538E+04  0.28377893538E+04  0.00000000000E+00 0. -1.
          3   -1    0    0  503    0 -0.00000000000E+00 -0.00000000000E+00 -0.20492126884E+03  0.20492126884E+03  0.00000000000E+00 0. -1.
         25    2    1    2    0    0 -0.51414723789E+02  0.68597098140E+02  0.12887845021E+04  0.12976669115E+04  0.12499953849E+03 0.  0.
          4    1    3    3  501    0 -0.23459699266E+02  0.82549841898E+02  0.43922672006E+03  0.44753386285E+03  0.12700000000E+01 0. -1.
         -4    1    3    3    0  501 -0.27955024523E+02 -0.13952743759E+02  0.84955778206E+03  0.85013304866E+03  0.12700000000E+01 0. -1.
          2    1    1    2  502    0  0.15689645698E+02 -0.31549803373E+02  0.15410558882E+04  0.15414586617E+04  0.00000000000E+00 0. -1.
          3    1    1    2  503    0  0.35725078091E+02 -0.37047294767E+02 -0.19697230540E+03  0.20358504942E+03  0.00000000000E+00 0. -1.
<mgrwt>
<rscale>  0 0.42620091E+02</rscale>
<asrwt>0</asrwt>
<pdfrwt beam="1">  1        2 0.43658295E+00 0.35235707E+02</pdfrwt>
<pdfrwt beam="2">  1        3 0.31526351E-01 0.51552028E+02</pdfrwt>
<totfact> 0.19539404E+01</totfact>
</mgrwt>
</event>
<event>
 7    1  0.3113530E-004  0.4432145E+02  0.7546771E-02  0.1523725E+00
          1   -1    0    0  503    0  0.00000000000E+00  0.00000000000E+00  0.15521245679E+03  0.15521245679E+03  0.00000000000E+00 0. -1.
         -1   -1    0    0    0  501 -0.00000000000E+00 -0.00000000000E+00 -0.89508630015E+02  0.89508630015E+02  0.00000000000E+00 0.  1.
         25    2    1    2    0    0 -0.14774227417E+02  0.55300620576E+01  0.73129227662E+02  0.14567518057E+03  0.12499805963E+03 0.  0.
          4    1    3    3  502    0 -0.48834109719E+02  0.30483962543E+02 -0.40163609189E+01  0.57721627657E+02  0.12700000000E+01 0.  1.
         -4    1    3    3    0  502  0.34059882302E+02 -0.24953900485E+02  0.77145588581E+02  0.87953552909E+02  0.12700000000E+01 0.  1.
          1    1    1    2  503    0 -0.32523973286E+02  0.16272717936E+00  0.25336533958E+02  0.41228330932E+02  0.00000000000E+00 0. -1.
         -1    1    1    2    0  501  0.47298200703E+02 -0.56927892369E+01 -0.32761934847E+02  0.57817575304E+02  0.00000000000E+00 0.  1.
<mgrwt>
<rscale>  0 0.37967456E+02</rscale>
<asrwt>0</asrwt>
<pdfrwt beam="1">  1        1 0.23878839E-01 0.32524380E+02</pdfrwt>
<pdfrwt beam="2">  1       -1 0.13770558E-01 0.44321451E+02</pdfrwt>
<totfact> 0.63574105E+03</totfact>
</mgrwt>
</event>
<event>
 7    1  0.3113530E-004  0.3612120E+02  0.7546771E-02  0.1581755E+00
          2   -1    0    0  502    0  0.00000000000E+00  0.00000000000E+00  0.66536140425E+03  0.66536140425E+03  0.00000000000E+00 0. -1.
          1   -1    0    0  503    0 -0.00000000000E+00 -0.00000000000E+00 -0.18884943616E+04  0.18884943616E+04  0.00000000000E+00 0. -1.
         25    2    1    2    0    0 -0.26877622257E+02 -0.21245343369E+01 -0.25768990092E+02  0.13044030408E+03  0.12499484731E+03 0.  0.
          4    1    3    3  501    0  0.35801729787E+02 -0.14282147581E+02  0.27428588524E+02  0.47325299404E+02  0.12700000000E+01 0. -1.
         -4    1    3    3    0  501 -0.62679352044E+02  0.12157613244E+02 -0.53197578616E+02  0.83115004681E+02  0.12700000000E+01 0. -1.
          2    1    1    2  502    0  0.21568229594E+02  0.29132113842E+02  0.61238519360E+03  0.61345700251E+03  0.00000000000E+00 0. -1.
          1    1    1    2  503    0  0.53093926632E+01 -0.27007579505E+02 -0.18097491609E+04  0.18099584593E+04  0.00000000000E+00 0. -1.
<mgrwt>
<rscale>  0 0.31531232E+02</rscale>
<asrwt>0</asrwt>
<pdfrwt beam="1">  1        2 0.10236329E+00 0.36121202E+02</pdfrwt>
<pdfrwt beam="2">  1        1 0.29053759E+00 0.27524516E+02</pdfrwt>
<totfact> 0.34024555E+01</totfact>
</mgrwt>
</event>
<event>
 7    1  0.3113530E-004  0.7309699E+02  0.7546771E-02  0.1432513E+00
         -2   -1    0    0    0  501 -0.00000000000E+00  0.00000000000E+00  0.68736491591E+03  0.68736491591E+03  0.00000000000E+00 0.  1.
          1   -1    0    0  503    0  0.00000000000E+00 -0.00000000000E+00 -0.13770957181E+03  0.13770957181E+03  0.00000000000E+00 0. -1.
         25    2    1    2    0    0  0.63381423101E+02 -0.75547462722E+02  0.73503950256E+02  0.17536468252E+03  0.12500126901E+03 0.  0.
          4    1    3    3  502    0  0.16441641709E+02 -0.56285566708E+02 -0.25619582295E+02  0.64002878831E+02  0.12700000000E+01 0. -1.
         -4    1    3    3    0  502  0.46939781392E+02 -0.19261896014E+02  0.99123532551E+02  0.11136180369E+03  0.12700000000E+01 0. -1.
          1    1    1    2  503    0 -0.36668404219E+02  0.85309437036E+01 -0.80254569041E+02  0.88646177134E+02  0.00000000000E+00 0. -1.
         -2    1    1    2    0  501 -0.26713018882E+02  0.67016519018E+02  0.55640596289E+03  0.56106362807E+03  0.00000000000E+00 0.  1.
<mgrwt>
<rscale>  0 0.52458869E+02</rscale>
<asrwt>0</asrwt>
<pdfrwt beam="2">  1        1 0.21186088E-01 0.37647694E+02</pdfrwt>
<pdfrwt beam="1">  1       -2 0.10574845E+00 0.73096985E+02</pdfrwt>
<totfact> 0.15361966E+02</totfact>
</mgrwt>
</event>
<event>
 7    1  0.3113530E-004  0.6242255E+02  0.7546771E-02  0.1461837E+00
          3   -1    0    0  503    0 -0.00000000000E+00  0.00000000000E+00  0.81137219258E+02  0.81137219258E+02  0.00000000000E+00 0. -1.
          1   -1    0    0  502    0  0.00000000000E+00 -0.00000000000E+00 -0.14525603376E+04  0.14525603376E+04  0.00000000000E+00 0. -1.
         25    2    1    2    0    0  0.26137882132E+02 -0.26644349816E+02 -0.11207178210E+04  0.11282848690E+04  0.12500080363E+03 0.  0.
          4    1    3    3  501    0 -0.44932204520E+02 -0.27630178462E+02 -0.31018031649E+03  0.31463593470E+03  0.12700000000E+01 0. -1.
         -4    1    3    3    0  501  0.71070086653E+02  0.98582864556E+00 -0.81053750452E+03  0.81364893426E+03  0.12700000000E+01 0. -1.
          1    1    1    2  502    0 -0.10069070679E+02 -0.34029924849E+02 -0.31416102719E+03  0.31615909440E+03  0.00000000000E+00 0. -1.
          3    1    1    2  503    0 -0.16068811453E+02  0.60674274665E+02  0.63455729839E+02  0.89253593524E+02  0.00000000000E+00 0. -1.
<mgrwt>
<rscale>  0 0.47066681E+02</rscale>
<asrwt>0</asrwt>
<pdfrwt beam="2">  1        1 0.22347082E+00 0.35488336E+02</pdfrwt>
<pdfrwt beam="1">  1        3 0.12482649E-01 0.62422551E+02</pdfrwt>
<totfact> 0.22756848E+02</totfact>
</mgrwt>
</event>
<event>
 7    1  0.3113530E-004  0.4102997E+02  0.7546771E-02  0.1594970E+00
         -2   -1    0    0    0  501 -0.00000000000E+00  0.00000000000E+00  0.14068170564E+03  0.14068170564E+03  0.00000000000E+00 0. -1.
          2   -1    0    0  503    0  0.00000000000E+00 -0.00000000000E+00 -0.16924417333E+03  0.16924417333E+03  0.00000000000E+00 0. -1.
         25    2    1    2    0    0  0.26941445649E+02 -0.41676250579E+02 -0.89756253513E+02  0.16168741725E+03  0.12499553790E+03 0.  0.
          4    1    3    3  502    0  0.43133899882E+02 -0.43946120922E+02  0.84086560481E+01  0.62161992082E+02  0.12700000000E+01 0.  1.
         -4    1    3    3    0  502 -0.16192454233E+02  0.22698703426E+01 -0.98164909561E+02  0.99525425166E+02  0.12700000000E+01 0.  1.
          2    1    1    2  503    0 -0.22328976208E+02  0.10253222259E+01 -0.36231471822E+02  0.42571751368E+02  0.00000000000E+00 0. -1.
         -2    1    1    2    0  501 -0.46124694416E+01  0.40650928353E+02  0.97425257641E+02  0.10566671035E+03  0.00000000000E+00 0. -1.
<mgrwt>
<rscale>  0 0.30284034E+02</rscale>
<asrwt>0</asrwt>
<pdfrwt beam="2">  1        2 0.26037565E-01 0.22352505E+02</pdfrwt>
<pdfrwt beam="1">  1       -2 0.21643339E-01 0.41029974E+02</pdfrwt>
<totfact> 0.32435973E+03</totfact>
</mgrwt>
</event>
<event>
 7    1  0.3113530E-004  0.3384121E+02  0.7546771E-02  0.1580747E+00
          3   -1    0    0  503    0  0.00000000000E+00  0.00000000000E+00  0.71178861588E+03  0.71178861588E+03  0.00000000000E+00 0. -1.
         -1   -1    0    0    0  501 -0.00000000000E+00 -0.00000000000E+00 -0.37727150723E+03  0.37727150723E+03  0.00000000000E+00 0.  1.
         25    2    1    2    0    0  0.25799068649E+02 -0.88680626691E+01  0.43320339226E+02  0.13508428424E+03  0.12500751009E+03 0.  0.
          4    1    3    3  502    0  0.31514611618E+02 -0.61426159041E+02  0.39651514429E+01  0.69164145957E+02  0.12700000000E+01 0. -1.
         -4    1    3    3    0  502 -0.57155429690E+01  0.52558096372E+02  0.39355187783E+02  0.65920138282E+02  0.12700000000E+01 0. -1.
          3    1    1    2  503    0 -0.86143574932E+01  0.32922127691E+02  0.62146057896E+03  0.62239161695E+03  0.00000000000E+00 0. -1.
         -1    1    1    2    0  501 -0.17184711156E+02 -0.24054065022E+02 -0.33026380953E+03  0.33158422192E+03  0.00000000000E+00 0.  1.
<mgrwt>
<rscale>  0 0.31629324E+02</rscale>
<asrwt>0</asrwt>
<pdfrwt beam="1">  1        3 0.10950594E+00 0.33841210E+02</pdfrwt>
<pdfrwt beam="2">  1       -1 0.58041771E-01 0.29562008E+02</pdfrwt>
<totfact> 0.10356754E+01</totfact>
</mgrwt>
</event>
<event>
 7    1  0.3113530E-004  0.6059420E+02  0.7546771E-02  0.1420919E+00
          2   -1    0    0  503    0  0.00000000000E+00  0.00000000000E+00  0.78955393512E+02  0.78955393512E+02  0.00000000000E+00 0. -1.
         -1   -1    0    0    0  501 -0.00000000000E+00 -0.00000000000E+00 -0.84112751639E+03  0.84112751639E+03  0.00000000000E+00 0.  1.
         25    2    1    2    0    0 -0.80003910933E+02 -0.29700292380E+02 -0.78680844455E+03  0.80123383869E+03  0.12500161087E+03 0.  0.
          4    1    3    3  502    0 -0.60500282515E+02 -0.69898459046E+02 -0.66666272773E+03  0.67304300323E+03  0.12700000000E+01 0.  1.
         -4    1    3    3    0  502 -0.19503628419E+02  0.40198166666E+02 -0.12014571682E+03  0.12819083546E+03  0.12700000000E+01 0.  1.
          2    1    1    2  503    0  0.34526593795E+02  0.49520247256E+02  0.32595235456E+02  0.68606048872E+02  0.00000000000E+00 0. -1.
         -1    1    1    2    0  501  0.45477317138E+02 -0.19819954876E+02 -0.79589137891E+01  0.50243022342E+02  0.00000000000E+00 0.  1.
<mgrwt>
<rscale>  0 0.54826962E+02</rscale>
<asrwt>0</asrwt>
<pdfrwt beam="1">  1        2 0.12146983E-01 0.60594199E+02</pdfrwt>
<pdfrwt beam="2">  1       -1 0.12940424E+00 0.49608638E+02</pdfrwt>
<totfact> 0.32217084E+02</totfact>
</mgrwt>
</event>
<event>
 7    1  0.3113530E-004  0.9437896E+02  0.7546771E-02  0.1335006E+00
          2   -1    0    0  503    0  0.00000000000E+00  0.00000000000E+00  0.64795823449E+03  0.64795823449E+03  0.00000000000E+00 0. -1.
         -1   -1    0    0    0  501 -0.00000000000E+00 -0.00000000000E+00 -0.45342182843E+02  0.45342182843E+02  0.00000000000E+00 0.  1.
         25    2    1    2    0    0  0.13345870667E+02 -0.11474545540E+03  0.18118013587E+03  0.24858837206E+03  0.12500122115E+03 0.  0.
          4    1    3    3  502    0 -0.23690053625E+02 -0.10296993578E+03  0.60418603359E+02  0.12172118487E+03  0.12700000000E+01 0.  1.
         -4    1    3    3    0  502  0.37035924293E+02 -0.11775519627E+02  0.12076153251E+03  0.12686718719E+03  0.12700000000E+01 0.  1.
          2    1    1    2  503    0 -0.46280482739E+02  0.44727299494E+02  0.17832493345E+03  0.18958427227E+03  0.00000000000E+00 0. -1.
         -1    1    1    2    0  501  0.32934612072E+02  0.70018155910E+02  0.24311098234E+03  0.25512777301E+03  0.00000000000E+00 0.  1.
<mgrwt>
<rscale>  0 0.77938307E+02</rscale>
<asrwt>0</asrwt>
<pdfrwt beam="1">  1        2 0.99685875E-01 0.64361591E+02</pdfrwt>
<pdfrwt beam="2">  1       -1 0.69757209E-02 0.94378956E+02</pdfrwt>
<totfact> 0.53410019E+03</totfact>
</mgrwt>
</event>
<event>
 7    1  0.3113530E-004  0.5822394E+02  0.7546771E-02  0.1546138E+00
         -2   -1    0    0    0  501 -0.00000000000E+00  0.00000000000E+00  0.40555109602E+02  0.40555109602E+02  0.00000000000E+00 0.  1.
          2   -1    0    0  503    0  0.00000000000E+00 -0.00000000000E+00 -0.37407771364E+03  0.37407771364E+03  0.00000000000E+00 0. -1.
         25    2    1    2    0    0  0.35990882414E+02 -0.29897747143E+02 -0.24477682576E+03  0.27880135038E+03  0.12500111857E+03 0.  0.
          4    1    3    3  502    0  0.73219471864E+02  0.99518564385E+01 -0.10200260550E+03  0.12596140256E+03  0.12700000000E+01 0. -1.
         -4    1    3    3    0  502 -0.37228589450E+02 -0.39849603581E+02 -0.14277422026E+03  0.15283994782E+03  0.12700000000E+01 0. -1.
          2    1    1    2  503    0 -0.41797340184E+02  0.50470139600E+02 -0.93262777802E+02  0.11398332493E+03  0.00000000000E+00 0. -1.
         -2    1    1    2    0  501  0.58064577699E+01 -0.20572392457E+02  0.45169995313E+01  0.21848147931E+02  0.00000000000E+00 0.  1.
<mgrwt>
<rscale>  0 0.35278911E+02</rscale>
<asrwt>0</asrwt>
<pdfrwt beam="2">  1        2 0.57550418E-01 0.58223938E+02</pdfrwt>
<pdfrwt beam="1">  1       -2 0.62392475E-02 0.21376115E+02</pdfrwt>
<totfact> 0.93685766E+03</totfact>
</mgrwt>
</event>
<event>
 7    1  0.3113530E-004  0.4928590E+02  0.7546771E-02  0.1525288E+00
          2   -1    0    0  503    0  0.00000000000E+00  0.00000000000E+00  0.17279685665E+04  0.17279685665E+04  0.00000000000E+00 0. -1.
         -1   -1    0    0    0  501 -0.00000000000E+00 -0.00000000000E+00 -0.81327933200E+01  0.81327933200E+01  0.00000000000E+00 0.  1.
         25    2    1    2    0    0  0.17062632330E+02 -0.34987466533E+02  0.69766261116E+03  0.70985208558E+03  0.12506641501E+03 0.  0.
          4    1    3    3  502    0 -0.39061916566E+01  0.19054681135E+02  0.14652678408E+02  0.24385509856E+02  0.12700000000E+01 0.  1.
         -4    1    3    3    0  502  0.20968823987E+02 -0.54042147668E+02  0.68300993275E+03  0.68546657573E+03  0.12700000000E+01 0.  1.
          2    1    1    2  503    0 -0.11320258692E+02 -0.26640598886E+02  0.27615286257E+03  0.27766575819E+03  0.00000000000E+00 0. -1.
         -1    1    1    2    0  501 -0.57423736377E+01  0.61628065419E+02  0.74602029948E+03  0.74858351608E+03  0.00000000000E+00 0.  1.
<mgrwt>
<rscale>  0 0.37770738E+02</rscale>
<asrwt>0</asrwt>
<pdfrwt beam="1">  1        2 0.26584103E+00 0.28945980E+02</pdfrwt>
<pdfrwt beam="2">  1       -1 0.12512003E-02 0.49285898E+02</pdfrwt>
<totfact> 0.15431928E+04</totfact>
</mgrwt>
</event>
<event>
 7    1  0.3113530E-004  0.1956886E+03  0.7546771E-02  0.1155346E+00
          2   -1    0    0  502    0  0.00000000000E+00  0.00000000000E+00  0.45107330941E+03  0.45107330941E+03  0.00000000000E+00 0. -1.
          1   -1    0    0  503    0 -0.00000000000E+00 -0.00000000000E+00 -0.36671526856E+04  0.36671526856E+04  0.00000000000E+00 0. -1.
         25    2    1    2    0    0 -0.14244689942E+03 -0.30559458460E+02 -0.32330725928E+03  0.37600178070E+03  0.12499902212E+03 0.  0.
          4    1    3    3  501    0 -0.15801061448E+03 -0.24914690402E+02 -0.32175233943E+03  0.35932475133E+03  0.12700000000E+01 0. -1.
         -4    1    3    3    0  501  0.15563715059E+02 -0.56447680576E+01 -0.15549198437E+01  0.16677029369E+02  0.12700000000E+01 0. -1.
          2    1    1    2  502    0  0.38650852657E+02  0.19645224623E+03  0.39806086349E+03  0.44557807902E+03  0.00000000000E+00 0. -1.
          1    1    1    2  503    0  0.10379604676E+03 -0.16589278777E+03 -0.32908329804E+04  0.32966461353E+04  0.00000000000E+00 0. -1.
<mgrwt>
<rscale>  0 0.19349521E+03</rscale>
<asrwt>0</asrwt>
<pdfrwt beam="1">  1        2 0.69395897E-01 0.19132639E+03</pdfrwt>
<pdfrwt beam="2">  1        1 0.56417731E+00 0.19568862E+03</pdfrwt>
<totfact> 0.23846743E+00</totfact>
</mgrwt>
</event>
<event>
 7    1  0.3113530E-004  0.9414592E+02  0.7546771E-02  0.1337092E+00
          2   -1    0    0  502    0  0.00000000000E+00  0.00000000000E+00  0.11181368730E+04  0.11181368730E+04  0.00000000000E+00 0. -1.
          1   -1    0    0  503    0 -0.00000000000E+00 -0.00000000000E+00 -0.57360106853E+03  0.57360106853E+03  0.00000000000E+00 0. -1.
         25    2    1    2    0    0  0.15749654199E+02  0.25565704648E+02  0.58244540517E+03  0.59646413348E+03  0.12500062266E+03 0.  0.
          4    1    3    3  501    0  0.43153631015E+02  0.59692923573E+02  0.47098396289E+03  0.47671059061E+03  0.12700000000E+01 0. -1.
         -4    1    3    3    0  501 -0.27403976816E+02 -0.34127218925E+02  0.11146144228E+03  0.11975354287E+03  0.12700000000E+01 0. -1.
          2    1    1    2  502    0  0.66607083961E+02 -0.71181724596E+02  0.52021209036E+03  0.52926738092E+03  0.00000000000E+00 0. -1.
          1    1    1    2  503    0 -0.82356738160E+02  0.45616019948E+02 -0.55812169103E+03  0.56600642716E+03  0.00000000000E+00 0. -1.
<mgrwt>
<rscale>  0 0.77233148E+02</rscale>
<asrwt>0</asrwt>
<pdfrwt beam="1">  1        2 0.17202106E+00 0.63358660E+02</pdfrwt>
<pdfrwt beam="2">  1        1 0.88246318E-01 0.94145917E+02</pdfrwt>
<totfact> 0.12863587E+02</totfact>
</mgrwt>
</event>
<event>
 7    1  0.3113530E-004  0.9420051E+02  0.7546771E-02  0.1439630E+00
          1   -1    0    0  503    0 -0.00000000000E+00  0.00000000000E+00  0.10963793299E+04  0.10963793299E+04  0.00000000000E+00 0. -1.
          2   -1    0    0  502    0  0.00000000000E+00 -0.00000000000E+00 -0.30206104740E+04  0.30206104740E+04  0.00000000000E+00 0. -1.
         25    2    1    2    0    0  0.22269134945E+02  0.11791032176E+03 -0.24322237963E+03  0.29863026844E+03  0.12499661166E+03 0.  0.
          4    1    3    3  501    0  0.22803704188E+02 -0.64959516634E+01  0.18183185637E+01  0.23814396804E+02  0.12700000000E+01 0.  1.
         -4    1    3    3    0  501 -0.53456924389E+00  0.12440627343E+03 -0.24504069819E+03  0.27481587163E+03  0.12700000000E+01 0.  1.
          2    1    1    2  502    0 -0.10402618360E+02 -0.92889568316E+02 -0.27487102360E+04  0.27502990106E+04  0.00000000000E+00 0. -1.
          1    1    1    2  503    0 -0.11866516584E+02 -0.25020753448E+02  0.10677014716E+04  0.10680605249E+04  0.00000000000E+00 0. -1.
<mgrwt>
<rscale>  0 0.51074551E+02</rscale>
<asrwt>0</asrwt>
<pdfrwt beam="2">  1        2 0.46470930E+00 0.94200509E+02</pdfrwt>
<pdfrwt beam="1">  1        1 0.16867374E+00 0.27692098E+02</pdfrwt>
<totfact> 0.52626114E+00</totfact>
</mgrwt>
</event>
<event>
 7    1  0.3113530E-004  0.7671586E+02  0.7546771E-02  0.1399927E+00
         -1   -1    0    0    0  501 -0.00000000000E+00  0.00000000000E+00  0.16098610553E+02  0.16098610553E+02  0.00000000000E+00 0.  1.
          2   -1    0    0  503    0  0.00000000000E+00 -0.00000000000E+00 -0.12054108031E+04  0.12054108031E+04  0.00000000000E+00 0. -1.
         25    2    1    2    0    0 -0.94936640019E+02 -0.70226715103E+01 -0.71222322218E+03  0.72934546661E+03  0.12498243046E+03 0.  0.
          4    1    3    3  502    0 -0.67720616140E+02 -0.39228729372E+02 -0.64668289796E+03  0.65140260858E+03  0.12700000000E+01 0.  1.
         -4    1    3    3    0  502 -0.27216023879E+02  0.32206057861E+02 -0.65540324223E+02  0.77942858031E+02  0.12700000000E+01 0.  1.
          2    1    1    2  503    0  0.65740209134E+02 -0.28721827940E+02 -0.34090455985E+03  0.34837140730E+03  0.00000000000E+00 0. -1.
         -1    1    1    2    0  501  0.29196430886E+02  0.35744499450E+02 -0.13618441053E+03  0.14379253975E+03  0.00000000000E+00 0.  1.
<mgrwt>
<rscale>  0 0.59503515E+02</rscale>
<asrwt>0</asrwt>
<pdfrwt beam="2">  1        2 0.18544784E+00 0.76715861E+02</pdfrwt>
<pdfrwt beam="1">  1       -1 0.24767090E-02 0.46153015E+02</pdfrwt>
<totfact> 0.98621622E+03</totfact>
</mgrwt>
</event>
<event>
 7    1  0.3113530E-004  0.1356603E+03  0.7546771E-02  0.1409256E+00
          3   -1    0    0  503    0  0.00000000000E+00  0.00000000000E+00  0.11384204449E+03  0.11384204449E+03  0.00000000000E+00 0. -1.
         -1   -1    0    0    0  501 -0.00000000000E+00 -0.00000000000E+00 -0.63450892948E+03  0.63450892948E+03  0.00000000000E+00 0.  1.
         25    2    1    2    0    0 -0.31890216177E+02 -0.12491537499E+03 -0.24204151561E+02  0.18119371360E+03  0.12499793637E+03 0.  0.
          4    1    3    3  502    0  0.15527135327E+02  0.79241520584E+01 -0.35620865264E+02  0.39677992130E+02  0.12700000000E+01 0.  1.
         -4    1    3    3    0  502 -0.47417351503E+02 -0.13283952705E+03  0.11416713704E+02  0.14151572147E+03  0.12700000000E+01 0.  1.
          3    1    1    2  503    0  0.21457247287E+02 -0.11304853598E+02  0.20927220200E+02  0.32033759088E+02  0.00000000000E+00 0. -1.
         -1    1    1    2    0  501  0.10432968890E+02  0.13622022859E+03 -0.51738995363E+03  0.53512350129E+03  0.00000000000E+00 0.  1.
<mgrwt>
<rscale>  0 0.57360113E+02</rscale>
<asrwt>0</asrwt>
<pdfrwt beam="1">  1        3 0.17514161E-01 0.24253107E+02</pdfrwt>
<pdfrwt beam="2">  1       -1 0.97616756E-01 0.13566025E+03</pdfrwt>
<totfact> 0.11147818E+02</totfact>
</mgrwt>
</event>
<event>
 7    1  0.3113530E-004  0.8702223E+02  0.7546771E-02  0.1337603E+00
          3   -1    0    0  503    0  0.00000000000E+00  0.00000000000E+00  0.38857017472E+03  0.38857017472E+03  0.00000000000E+00 0. -1.
         -3   -1    0    0    0  501 -0.00000000000E+00 -0.00000000000E+00 -0.55079786791E+03  0.55079786791E+03  0.00000000000E+00 0.  1.
         25    2    1    2    0    0 -0.66371385611E+02 -0.95047027658E+02 -0.11882273827E+03  0.20781963142E+03  0.12502422877E+03 0.  0.
          4    1    3    3  502    0 -0.40623947820E+02  0.13775269545E+02  0.22836653258E+01  0.42975472247E+02  0.12700000000E+01 0.  1.
         -4    1    3    3    0  502 -0.25747437791E+02 -0.10882229720E+03 -0.12110640360E+03  0.16484415917E+03  0.12700000000E+01 0.  1.
          3    1    1    2  503    0 -0.14776434698E+02  0.66622454376E+02  0.33582752588E+03  0.34269085425E+03  0.00000000000E+00 0. -1.
         -3    1    1    2    0  501  0.81147820309E+02  0.28424573282E+02 -0.37923248080E+03  0.38885755695E+03  0.00000000000E+00 0.  1.
<mgrwt>
<rscale>  0 0.77061811E+02</rscale>
<asrwt>0</asrwt>
<pdfrwt beam="1">  1        3 0.59780027E-01 0.68241442E+02</pdfrwt>
<pdfrwt beam="2">  1       -3 0.84738133E-01 0.87022234E+02</pdfrwt>
<totfact> 0.84059709E+00</totfact>
</mgrwt>
</event>
<event>
 7    1  0.3113530E-004  0.1511068E+03  0.7546771E-02  0.1275697E+00
          2   -1    0    0  502    0  0.00000000000E+00  0.00000000000E+00  0.31020001734E+03  0.31020001734E+03  0.00000000000E+00 0. -1.
          2   -1    0    0  503    0 -0.00000000000E+00 -0.00000000000E+00 -0.17895367534E+04  0.17895367534E+04  0.00000000000E+00 0. -1.
         25    2    1    2    0    0 -0.13213747927E+02  0.11274046814E+03 -0.40353902936E+03  0.43744044985E+03  0.12500153060E+03 0.  0.
          4    1    3    3  501    0  0.10089492714E+02  0.10172020117E+03 -0.39816391720E+03  0.41107774818E+03  0.12700000000E+01 0. -1.
         -4    1    3    3    0  501 -0.23303240641E+02  0.11020266967E+02 -0.53751121633E+01  0.26362701667E+02  0.12700000000E+01 0. -1.
          2    1    1    2  502    0  0.51225079426E+02  0.46448535224E+02  0.28419744433E+03  0.29248873918E+03  0.00000000000E+00 0. -1.
          2    1    1    2  503    0 -0.38011331499E+02 -0.15918900336E+03 -0.13599951510E+04  0.13698075817E+04  0.00000000000E+00 0. -1.
<mgrwt>
<rscale>  0 0.10221922E+03</rscale>
<asrwt>0</asrwt>
<pdfrwt beam="1">  1        2 0.47723081E-01 0.69148212E+02</pdfrwt>
<pdfrwt beam="2">  1        2 0.27531334E+00 0.15110684E+03</pdfrwt>
<totfact> 0.16499522E+02</totfact>
</mgrwt>
</event>
<event>
 7    1  0.3113530E-004  0.1392594E+03  0.7546771E-02  0.1280661E+00
          2   -1    0    0  502    0  0.00000000000E+00  0.00000000000E+00  0.16219825982E+04  0.16219825982E+04  0.00000000000E+00 0. -1.
          3   -1    0    0  503    0 -0.00000000000E+00 -0.00000000000E+00 -0.15047916532E+03  0.15047916532E+03  0.00000000000E+00 0. -1.
         25    2    1    2    0    0 -0.55025441182E+02 -0.13800487909E+03  0.17656233823E+03  0.26243428192E+03  0.12499738884E+03 0.  0.
          4    1    3    3  501    0 -0.55351337357E+02 -0.14776327062E+03  0.18923095532E+03  0.24638937080E+03  0.12700000000E+01 0.  1.
         -4    1    3    3    0  501  0.32589617420E+00  0.97583915333E+01 -0.12668617094E+02  0.16044911116E+02  0.12700000000E+01 0.  1.
          2    1    1    2  502    0  0.71545113264E+02 -0.14468567392E+01  0.13552931131E+04  0.13571809824E+04  0.00000000000E+00 0. -1.
          3    1    1    2  503    0 -0.16519672081E+02  0.13945173583E+03 -0.60352018423E+02  0.15284649920E+03  0.00000000000E+00 0. -1.
<mgrwt>
<rscale>  0 0.99826681E+02</rscale>
<asrwt>0</asrwt>
<pdfrwt beam="1">  1        2 0.24953577E+00 0.71559742E+02</pdfrwt>
<pdfrwt beam="2">  1        3 0.23150642E-01 0.13925939E+03</pdfrwt>
<totfact> 0.13728280E+02</totfact>
</mgrwt>
</event>
<event>
 7    1  0.3113530E-004  0.8822570E+02  0.7546771E-02  0.1448747E+00
         -1   -1    0    0    0  501 -0.00000000000E+00  0.00000000000E+00  0.21353562818E+02  0.21353562818E+02  0.00000000000E+00 0.  1.
          2   -1    0    0  503    0  0.00000000000E+00 -0.00000000000E+00 -0.98176647805E+03  0.98176647805E+03  0.00000000000E+00 0. -1.
         25    2    1    2    0    0  0.82042515078E+00  0.92977071017E+02 -0.43703587656E+03  0.46397174648E+03  0.12499606113E+03 0.  0.
          4    1    3    3  502    0  0.53814145691E+02  0.34250179602E+02 -0.10692588389E+03  0.12451423463E+03  0.12700000000E+01 0. -1.
         -4    1    3    3    0  502 -0.52993720541E+02  0.58726891415E+02 -0.33010999267E+03  0.33945751185E+03  0.12700000000E+01 0. -1.
          2    1    1    2  503    0  0.25695123041E+02 -0.10161454940E+02 -0.26699602220E+03  0.26842200056E+03  0.00000000000E+00 0. -1.
         -1    1    1    2    0  501 -0.26515548192E+02 -0.82815616077E+02 -0.25638101647E+03  0.27072629382E+03  0.00000000000E+00 0.  1.
<mgrwt>
<rscale>  0 0.49374082E+02</rscale>
<asrwt>0</asrwt>
<pdfrwt beam="2">  1        2 0.15104099E+00 0.27631404E+02</pdfrwt>
<pdfrwt beam="1">  1       -1 0.32851636E-02 0.88225697E+02</pdfrwt>
<totfact> 0.10102277E+04</totfact>
</mgrwt>
</event>
<event>
 7    1  0.3113530E-004  0.1262288E+03  0.7546771E-02  0.1279026E+00
         -1   -1    0    0    0  501 -0.00000000000E+00  0.00000000000E+00  0.85467588300E+03  0.85467588300E+03  0.00000000000E+00 0.  1.
          1   -1    0    0  503    0  0.00000000000E+00 -0.00000000000E+00 -0.48412135492E+02  0.48412135492E+02  0.00000000000E+00 0. -1.
         25    2    1    2    0    0 -0.15722014496E+03 -0.58721030476E+02  0.49677246471E+03  0.53904392519E+03  0.12497655053E+03 0.  0.
          4    1    3    3  502    0 -0.11064893759E+03 -0.77951449460E+02  0.45130035694E+03  0.47116158687E+03  0.12700000000E+01 0.  1.
         -4    1    3    3    0  502 -0.46571207375E+02  0.19230418985E+02  0.45472107767E+02  0.67882338318E+02  0.12700000000E+01 0.  1.
          1    1    1    2  503    0  0.79137973503E+02 -0.12913124594E+02  0.91496461403E+02  0.12166005954E+03  0.00000000000E+00 0. -1.
         -1    1    1    2    0  501  0.78082171460E+02  0.71634155070E+02  0.21799482140E+03  0.24238403377E+03  0.00000000000E+00 0.  1.
<mgrwt>
<rscale>  0 0.10060617E+03</rscale>
<asrwt>0</asrwt>
<pdfrwt beam="2">  1        1 0.74480215E-02 0.80184585E+02</pdfrwt>
<pdfrwt beam="1">  1       -1 0.13148859E+00 0.12622877E+03</pdfrwt>
<totfact> 0.48854513E+02</totfact>
</mgrwt>
</event>
<event>
 7    1  0.3113530E-004  0.2037160E+03  0.7546771E-02  0.1187073E+00
          1   -1    0    0  502    0  0.00000000000E+00  0.00000000000E+00  0.36665844636E+03  0.36665844636E+03  0.00000000000E+00 0. -1.
          1   -1    0    0  503    0 -0.00000000000E+00 -0.00000000000E+00 -0.90158140457E+03  0.90158140457E+03  0.00000000000E+00 0. -1.
         25    2    1    2    0    0 -0.42137352526E+02  0.13270784468E+03 -0.25892509681E+03  0.31945935746E+03  0.12500058717E+03 0.  0.
          4    1    3    3  501    0 -0.11956118016E+02  0.12619162899E+02 -0.16005379895E+03  0.16100007294E+03  0.12700000000E+01 0. -1.
         -4    1    3    3    0  501 -0.30181234509E+02  0.12008868178E+03 -0.98871297859E+02  0.15845928452E+03  0.12700000000E+01 0. -1.
          1    1    1    2  502    0 -0.39338174732E+02  0.12175020061E+03  0.29325048587E+03  0.31994757509E+03  0.00000000000E+00 0. -1.
          1    1    1    2  503    0  0.81475527258E+02 -0.25445804529E+03 -0.56924834728E+03  0.62883291838E+03  0.00000000000E+00 0. -1.
<mgrwt>
<rscale>  0 0.16144654E+03</rscale>
<asrwt>0</asrwt>
<pdfrwt beam="1">  1        1 0.56408993E-01 0.12794766E+03</pdfrwt>
<pdfrwt beam="2">  1        1 0.13870483E+00 0.20371601E+03</pdfrwt>
<totfact> 0.15906391E+02</totfact>
</mgrwt>
</event>
<event>
 7    1  0.3113530E-004  0.5387018E+02  0.7546771E-02  0.1448322E+00
         -1   -1    0    0    0  501 -0.00000000000E+00  0.00000000000E+00  0.13159863068E+03  0.13159863068E+03  0.00000000000E+00 0.  1.
          2   -1    0    0  503    0  0.00000000000E+00 -0.00000000000E+00 -0.17635219858E+04  0.17635219858E+04  0.00000000000E+00 0. -1.
         25    2    1    2    0    0 -0.36882830783E+02  0.23115917437E+02 -0.22402549219E+02  0.13424374949E+03  0.12499928487E+03 0.  0.
          4    1    3    3  502    0 -0.74347937424E+02 -0.11697379199E+02  0.63817331215E+01  0.75543258448E+02  0.12700000000E+01 0. -1.
         -4    1    3    3    0  502  0.37465106640E+02  0.34813296636E+02 -0.28784282340E+02  0.58700491038E+02  0.12700000000E+01 0. -1.
          2    1    1    2  503    0 -0.17339241920E+02 -0.41953709235E+02 -0.16739621036E+04  0.16745775250E+04  0.00000000000E+00 0. -1.
         -1    1    1    2    0  501  0.54222072704E+02  0.18837791798E+02  0.64441297725E+02  0.86299341947E+02  0.00000000000E+00 0.  1.
<mgrwt>
<rscale>  0 0.49451698E+02</rscale>
<asrwt>0</asrwt>
<pdfrwt beam="2">  1        2 0.27131106E+00 0.45395628E+02</pdfrwt>
<pdfrwt beam="1">  1       -1 0.20245944E-01 0.53870175E+02</pdfrwt>
<totfact> 0.25169686E+02</totfact>
</mgrwt>
</event>
<event>
 7    1  0.3113530E-004  0.9108768E+02  0.7546771E-02  0.1378182E+00
          3   -1    0    0  503    0  0.00000000000E+00  0.00000000000E+00  0.28663959021E+04  0.28663959021E+04  0.00000000000E+00 0. -1.
          3   -1    0    0  502    0 -0.00000000000E+00 -0.00000000000E+00 -0.18887289635E+02  0.18887289635E+02  0.00000000000E+00 0. -1.
         25    2    1    2    0    0  0.81131598100E+02  0.24979858881E+02  0.23037694830E+04  0.23087181221E+04  0.12497682494E+03 0.  0.
          4    1    3    3  501    0  0.29227918169E+02  0.69573705286E+02  0.85205723550E+03  0.85539342828E+03  0.12700000000E+01 0.  1.
         -4    1    3    3    0  501  0.51903679931E+02 -0.44593846404E+02  0.14517122475E+04  0.14533246938E+04  0.12700000000E+01 0.  1.
          3    1    1    2  502    0 -0.62723177568E+02 -0.67467674164E+02  0.12502059374E+03  0.15529402088E+03  0.00000000000E+00 0. -1.
          3    1    1    2  503    0 -0.18408420532E+02  0.42487815282E+02  0.41871853571E+03  0.42127104879E+03  0.00000000000E+00 0. -1.
<mgrwt>
<rscale>  0 0.64944188E+02</rscale>
<asrwt>0</asrwt>
<pdfrwt beam="1">  1        3 0.44098364E+00 0.46304259E+02</pdfrwt>
<pdfrwt beam="2">  1        3 0.29057391E-02 0.91087681E+02</pdfrwt>
<totfact> 0.12229587E+01</totfact>
</mgrwt>
</event>
<event>
 7    1  0.3113530E-004  0.9098853E+02  0.7546771E-02  0.1349575E+00
          2   -1    0    0  503    0  0.00000000000E+00  0.00000000000E+00  0.58027443580E+03  0.58027443580E+03  0.00000000000E+00 0.  1.
         -1   -1    0    0    0  501 -0.00000000000E+00 -0.00000000000E+00 -0.61718602088E+02  0.61718602088E+02  0.00000000000E+00 0. -1.
         25    2    1    2    0    0 -0.10915969920E+03 -0.55487573578E+02  0.31648564979E+03  0.36163987868E+03  0.12500209828E+03 0.  0.
          4    1    3    3  502    0  0.17464349768E+02  0.20403819678E+02  0.39774942745E+02  0.48010189966E+02  0.12700000000E+01 0.  1.
         -4    1    3    3    0  502 -0.12662404896E+03 -0.75891393256E+02  0.27671070705E+03  0.31362968871E+03  0.12700000000E+01 0.  1.
          2    1    1    2  503    0  0.56975076776E+02 -0.14817084810E+02  0.18095096118E+03  0.19028650958E+03  0.00000000000E+00 0.  1.
         -1    1    1    2    0  501  0.52184622419E+02  0.70304658388E+02  0.21119222749E+02  0.90066649641E+02  0.00000000000E+00 0. -1.
<mgrwt>
<rscale>  0 0.73188227E+02</rscale>
<asrwt>0</asrwt>
<pdfrwt beam="1">  1        2 0.89272986E-01 0.58870242E+02</pdfrwt>
<pdfrwt beam="2">  1       -1 0.94951699E-02 0.90988526E+02</pdfrwt>
<totfact> 0.38031039E+03</totfact>
</mgrwt>
</event>
<event>
 7    1  0.3113530E-004  0.4876446E+02  0.7546771E-02  0.1466006E+00
         -2   -1    0    0    0  501 -0.00000000000E+00  0.00000000000E+00  0.14368184556E+03  0.14368184556E+03  0.00000000000E+00 0.  1.
          2   -1    0    0  503    0  0.00000000000E+00 -0.00000000000E+00 -0.10245992795E+04  0.10245992795E+04  0.00000000000E+00 0. -1.
         25    2    1    2    0    0 -0.90161523378E+02 -0.15439674286E+02 -0.50553170184E+02  0.16293745119E+03  0.12500202457E+03 0.  0.
          4    1    3    3  502    0 -0.11395329497E+03 -0.38571007857E+02 -0.30395711868E+02  0.12409104835E+03  0.12700000000E+01 0.  1.
         -4    1    3    3    0  502  0.23791771589E+02  0.23131333571E+02 -0.20157458316E+02  0.38846402844E+02  0.12700000000E+01 0.  1.
          2    1    1    2  503    0  0.46093646666E+02  0.14390479003E+02 -0.91162181996E+03  0.91289980435E+03  0.00000000000E+00 0. -1.
         -2    1    1    2    0  501  0.44067876712E+02  0.10491952823E+01  0.81257556207E+02  0.92443869507E+02  0.00000000000E+00 0.  1.
<mgrwt>
<rscale>  0 0.46363297E+02</rscale>
<asrwt>0</asrwt>
<pdfrwt beam="2">  1        2 0.15763066E+00 0.48764463E+02</pdfrwt>
<pdfrwt beam="1">  1       -2 0.22104899E-01 0.44080365E+02</pdfrwt>
<totfact> 0.46337003E+02</totfact>
</mgrwt>
</event>
<event>
 7    1  0.3473517E-004  0.6917257E+02  0.7546771E-02  0.1404704E+00
         -2   -1    0    0    0  501 -0.00000000000E+00  0.00000000000E+00  0.22966650853E+03  0.22966650853E+03  0.00000000000E+00 0.  1.
          1   -1    0    0  503    0  0.00000000000E+00 -0.00000000000E+00 -0.10941748580E+03  0.10941748580E+03  0.00000000000E+00 0. -1.
         25    2    1    2    0    0  0.88429017164E+02 -0.70256269116E+02  0.24391789307E+02  0.17022102966E+03  0.12499842050E+03 0.  0.
          4    1    3    3  502    0 -0.21709132543E+02 -0.51972807936E+02  0.14221629910E+02  0.58106168845E+02  0.12700000000E+01 0.  1.
         -4    1    3    3    0  502  0.11013814971E+03 -0.18283461180E+02  0.10170159397E+02  0.11211486082E+03  0.12700000000E+01 0.  1.
          1    1    1    2  503    0 -0.38342112511E+02  0.30977940515E+02 -0.50575492151E+01  0.49551278434E+02  0.00000000000E+00 0. -1.
         -2    1    1    2    0  501 -0.50086904653E+02  0.39278328601E+02  0.10091478264E+03  0.11931168623E+03  0.00000000000E+00 0.  1.
<mgrwt>
<rscale>  0 0.58392542E+02</rscale>
<asrwt>0</asrwt>
<pdfrwt beam="2">  1        1 0.16833459E-01 0.49292498E+02</pdfrwt>
<pdfrwt beam="1">  1       -2 0.35333309E-01 0.69172574E+02</pdfrwt>
<totfact> 0.19435514E+03</totfact>
</mgrwt>
</event>
<event>
 7    1  0.3113530E-004  0.7646406E+02  0.7546771E-02  0.1488499E+00
         -2   -1    0    0    0  501 -0.00000000000E+00  0.00000000000E+00  0.78940898297E+03  0.78940898297E+03  0.00000000000E+00 0.  1.
          2   -1    0    0  503    0  0.00000000000E+00 -0.00000000000E+00 -0.15809720140E+03  0.15809720140E+03  0.00000000000E+00 0. -1.
         25    2    1    2    0    0  0.38639982210E+02 -0.51813643376E+02  0.16859864368E+03  0.21960919690E+03  0.12499997939E+03 0.  0.
          4    1    3    3  502    0  0.63880994115E+02 -0.73907319957E+02  0.15535876858E+03  0.18352393094E+03  0.12700000000E+01 0.  1.
         -4    1    3    3    0  502 -0.25241011905E+02  0.22093676581E+02  0.13239875093E+02  0.36085265959E+02  0.12700000000E+01 0.  1.
          2    1    1    2  503    0  0.23476079684E+02  0.48284104547E+01 -0.12893539521E+03  0.13114410396E+03  0.00000000000E+00 0. -1.
         -2    1    1    2    0  501 -0.62116061894E+02  0.46985232921E+02  0.59164853311E+03  0.59675288352E+03  0.00000000000E+00 0.  1.
<mgrwt>
<rscale>  0 0.42809466E+02</rscale>
<asrwt>0</asrwt>
<pdfrwt beam="2">  1        2 0.24322647E-01 0.23967475E+02</pdfrwt>
<pdfrwt beam="1">  1       -2 0.12144753E+00 0.76464057E+02</pdfrwt>
<totfact> 0.11638041E+02</totfact>
</mgrwt>
</event>
<event>
 7    1  0.3113530E-004  0.3785239E+02  0.7546771E-02  0.1533427E+00
          2   -1    0    0  503    0  0.00000000000E+00  0.00000000000E+00  0.39101437053E+03  0.39101437053E+03  0.00000000000E+00 0. -1.
         -1   -1    0    0    0  501 -0.00000000000E+00 -0.00000000000E+00 -0.34942140337E+02  0.34942140337E+02  0.00000000000E+00 0.  1.
         25    2    1    2    0    0  0.32795589667E+02  0.39389714083E+02  0.22565921385E+03  0.26301058104E+03  0.12500153866E+03 0.  0.
          4    1    3    3  502    0  0.27149753166E+02  0.41915509858E+02  0.14863869824E+02  0.52120692530E+02  0.12700000000E+01 0.  1.
         -4    1    3    3    0  502  0.56458365014E+01 -0.25257957756E+01  0.21079534403E+03  0.21088988851E+03  0.12700000000E+01 0.  1.
          2    1    1    2  503    0 -0.35676452462E+02 -0.17071448521E+01  0.11781318937E+03  0.12310837174E+03  0.00000000000E+00 0. -1.
         -1    1    1    2    0  501  0.28808627944E+01 -0.37682569231E+02  0.12599826976E+02  0.39837558084E+02  0.00000000000E+00 0.  1.
<mgrwt>
<rscale>  0 0.36769339E+02</rscale>
<asrwt>0</asrwt>
<pdfrwt beam="1">  1        2 0.60156054E-01 0.35717273E+02</pdfrwt>
<pdfrwt beam="2">  1       -1 0.53757142E-02 0.37852394E+02</pdfrwt>
<totfact> 0.12240689E+04</totfact>
</mgrwt>
</event>
<event>
 7    1  0.3113530E-004  0.3754326E+03  0.7546771E-02  0.1272881E+00
          1   -1    0    0  503    0 -0.00000000000E+00  0.00000000000E+00  0.74478620968E+03  0.74478620968E+03  0.00000000000E+00 0. -1.
          2   -1    0    0  502    0  0.00000000000E+00 -0.00000000000E+00 -0.48529458146E+03  0.48529458146E+03  0.00000000000E+00 0. -1.
         25    2    1    2    0    0  0.16555269888E+03 -0.32873967082E+03  0.99395741473E+02  0.40122498774E+03  0.12499804032E+03 0.  0.
          4    1    3    3  501    0  0.52072285453E+02 -0.42992443302E+02  0.61673185293E+02  0.91460744462E+02  0.12700000000E+01 0.  1.
         -4    1    3    3    0  501  0.11348041343E+03 -0.28574722752E+03  0.37722556181E+02  0.30976424328E+03  0.12700000000E+01 0.  1.
          2    1    1    2  502    0  0.28454030717E+02  0.28277094340E+01 -0.26075106527E+03  0.26231421205E+03  0.00000000000E+00 0. -1.
          1    1    1    2  503    0 -0.19400672960E+03  0.32591196139E+03  0.42084695202E+03  0.56654159135E+03  0.00000000000E+00 0. -1.
<mgrwt>
<rscale>  0 0.10361076E+03</rscale>
<asrwt>0</asrwt>
<pdfrwt beam="2">  1        2 0.74660705E-01 0.28594192E+02</pdfrwt>
<pdfrwt beam="1">  1        1 0.11458249E+00 0.37543255E+03</pdfrwt>
<totfact> 0.22953409E+02</totfact>
</mgrwt>
</event>
<event>
 7    1  0.3113530E-004  0.6347299E+02  0.7546771E-02  0.1451237E+00
          2   -1    0    0  502    0  0.00000000000E+00  0.00000000000E+00  0.87557352945E+03  0.87557352945E+03  0.00000000000E+00 0.  1.
          1   -1    0    0  503    0 -0.00000000000E+00 -0.00000000000E+00 -0.16298947380E+04  0.16298947380E+04  0.00000000000E+00 0. -1.
         25    2    1    2    0    0  0.29480470881E+02 -0.22560304606E+02  0.32140612862E+03  0.34685347642E+03  0.12500947597E+03 0.  0.
          4    1    3    3  501    0  0.15556735925E+02 -0.25452124295E+02  0.51772648103E+01  0.30302469119E+02  0.12700000000E+01 0.  1.
         -4    1    3    3    0  501  0.13923734956E+02  0.28918196896E+01  0.31622886381E+03  0.31655100730E+03  0.12700000000E+01 0.  1.
          2    1    1    2  502    0  0.33785888547E+02  0.16747166359E+02  0.54016216403E+03  0.54147679294E+03  0.00000000000E+00 0.  1.
          1    1    1    2  503    0 -0.63266359428E+02  0.58131382467E+01 -0.16158895012E+04  0.16171379981E+04  0.00000000000E+00 0. -1.
<mgrwt>
<rscale>  0 0.48923313E+02</rscale>
<asrwt>0</asrwt>
<pdfrwt beam="1">  1        2 0.13470362E+00 0.37708803E+02</pdfrwt>
<pdfrwt beam="2">  1        1 0.25075303E+00 0.63472993E+02</pdfrwt>
<totfact> 0.32089016E+01</totfact>
</mgrwt>
</event>
<event>
 7    1  0.3113530E-004  0.1216014E+03  0.7546771E-02  0.1290522E+00
          2   -1    0    0  503    0  0.00000000000E+00  0.00000000000E+00  0.11280679448E+04  0.11280679448E+04  0.00000000000E+00 0. -1.
         -1   -1    0    0    0  501 -0.00000000000E+00 -0.00000000000E+00 -0.12053218277E+04  0.12053218277E+04  0.00000000000E+00 0.  1.
         25    2    1    2    0    0 -0.10387536616E+03  0.64751012519E+02  0.15960623175E+02  0.17568182744E+03  0.12500631057E+03 0.  0.
          4    1    3    3  502    0 -0.98704948722E+02 -0.94362287257E+01  0.20135301758E+02  0.10118672142E+03  0.12700000000E+01 0. -1.
         -4    1    3    3    0  502 -0.51704174416E+01  0.74187241245E+02 -0.41746785837E+01  0.74495106023E+02  0.12700000000E+01 0. -1.
          2    1    1    2  503    0  0.56991714487E+02  0.48249956684E+02  0.10275631607E+04  0.10302728586E+04  0.00000000000E+00 0. -1.
         -1    1    1    2    0  501  0.46883651677E+02 -0.11300096920E+03 -0.11207776668E+04  0.11274350865E+04  0.00000000000E+00 0.  1.
<mgrwt>
<rscale>  0 0.95291062E+02</rscale>
<asrwt>0</asrwt>
<pdfrwt beam="1">  1        2 0.17354891E+00 0.74673381E+02</pdfrwt>
<pdfrwt beam="2">  1       -1 0.18543413E+00 0.12160138E+03</pdfrwt>
<totfact> 0.61306212E+00</totfact>
</mgrwt>
</event>
<event>
 7    1  0.3113530E-004  0.8957164E+02  0.7546771E-02  0.1306912E+00
          1   -1    0    0  503    0 -0.00000000000E+00  0.00000000000E+00  0.41271793832E+03  0.41271793832E+03  0.00000000000E+00 0. -1.
          2   -1    0    0  502    0  0.00000000000E+00 -0.00000000000E+00 -0.35522074471E+03  0.35522074471E+03  0.00000000000E+00 0.  1.
         25    2    1    2    0    0  0.59083508186E+02 -0.13066037749E+03 -0.10664174492E+03  0.21808386106E+03  0.12500045403E+03 0.  0.
          4    1    3    3  501    0  0.67651846955E+02 -0.15237385801E+03 -0.96145919502E+02  0.19245834806E+03  0.12700000000E+01 0. -1.
         -4    1    3    3    0  501 -0.85683387699E+01  0.21713480514E+02 -0.10495825423E+02  0.25625513002E+02  0.12700000000E+01 0. -1.
          2    1    1    2  502    0  0.17059024147E+02  0.85446853056E+02 -0.17706700362E+03  0.19734461931E+03  0.00000000000E+00 0.  1.
          1    1    1    2  503    0 -0.76142532333E+02  0.45213524436E+02  0.34120594215E+03  0.35251020266E+03  0.00000000000E+00 0. -1.
<mgrwt>
<rscale>  0 0.88343950E+02</rscale>
<asrwt>0</asrwt>
<pdfrwt beam="2">  1        2 0.54649345E-01 0.87133088E+02</pdfrwt>
<pdfrwt beam="1">  1        1 0.63495068E-01 0.89571639E+02</pdfrwt>
<totfact> 0.73322672E+02</totfact>
</mgrwt>
</event>
<event>
 7    1  0.3113530E-004  0.3323087E+02  0.7546771E-02  0.1586571E+00
         -1   -1    0    0    0  501 -0.00000000000E+00  0.00000000000E+00  0.62669242956E+03  0.62669242956E+03  0.00000000000E+00 0.  1.
          2   -1    0    0  503    0  0.00000000000E+00 -0.00000000000E+00 -0.18273147506E+02  0.18273147506E+02  0.00000000000E+00 0. -1.
         25    2    1    2    0    0  0.96804511683E+01  0.28580602943E+01  0.38631451092E+03  0.40616122054E+03  0.12500462425E+03 0.  0.
          4    1    3    3  502    0  0.23816879684E+01  0.60441283731E+02  0.13051965228E+03  0.14386039673E+03  0.12700000000E+01 0. -1.
         -4    1    3    3    0  502  0.72987631999E+01 -0.57583223437E+02  0.25579485864E+03  0.26230082381E+03  0.12700000000E+01 0. -1.
          2    1    1    2  503    0  0.27157237416E+02 -0.10304601278E+02  0.25537198386E+02  0.38676205256E+02  0.00000000000E+00 0. -1.
         -1    1    1    2    0  501 -0.36837688585E+02  0.74465409836E+01  0.19656757275E+03  0.20012815127E+03  0.00000000000E+00 0.  1.
<mgrwt>
<rscale>  0 0.31068332E+02</rscale>
<asrwt>0</asrwt>
<pdfrwt beam="2">  1        2 0.28112539E-02 0.29046520E+02</pdfrwt>
<pdfrwt beam="1">  1       -1 0.96414204E-01 0.33230874E+02</pdfrwt>
<totfact> 0.35541085E+03</totfact>
</mgrwt>
</event>
<event>
 7    1  0.3113530E-004  0.8902774E+02  0.7546771E-02  0.1463722E+00
          2   -1    0    0  502    0  0.00000000000E+00  0.00000000000E+00  0.11835489229E+04  0.11835489229E+04  0.00000000000E+00 0. -1.
          2   -1    0    0  503    0 -0.00000000000E+00 -0.00000000000E+00 -0.50358426619E+02  0.50358426619E+02  0.00000000000E+00 0. -1.
         25    2    1    2    0    0 -0.43488950146E+02  0.51862835290E+02  0.50396300650E+03  0.52362727526E+03  0.12500307599E+03 0.  0.
          4    1    3    3  501    0 -0.34554599184E+02 -0.33903200535E+02  0.10766314409E+03  0.11805258501E+03  0.12700000000E+01 0. -1.
         -4    1    3    3    0  501 -0.89343509618E+01  0.85766035825E+02  0.39629986241E+03  0.40557469025E+03  0.12700000000E+01 0. -1.
          2    1    1    2  502    0 -0.21130431919E+02  0.12490161171E+02  0.61789371903E+03  0.61838106964E+03  0.00000000000E+00 0. -1.
          2    1    1    2  503    0  0.64619382065E+02 -0.64352996461E+02  0.11333770766E+02  0.91899004629E+02  0.00000000000E+00 0. -1.
<mgrwt>
<rscale>  0 0.46746792E+02</rscale>
<asrwt>0</asrwt>
<pdfrwt beam="1">  1        2 0.18208443E+00 0.24545861E+02</pdfrwt>
<pdfrwt beam="2">  1        2 0.77474512E-02 0.89027742E+02</pdfrwt>
<totfact> 0.30221306E+03</totfact>
</mgrwt>
</event>
<event>
 7    1  0.3113530E-004  0.6767715E+02  0.7546771E-02  0.1440634E+00
          2   -1    0    0  503    0  0.00000000000E+00  0.00000000000E+00  0.20875819706E+03  0.20875819706E+03  0.00000000000E+00 0. -1.
         -1   -1    0    0    0  501 -0.00000000000E+00 -0.00000000000E+00 -0.76181745766E+02  0.76181745766E+02  0.00000000000E+00 0.  1.
         25    2    1    2    0    0 -0.48241796155E+02 -0.53078740672E+02  0.84799491800E+02  0.16720794609E+03  0.12499167899E+03 0.  0.
          4    1    3    3  502    0 -0.32572809221E+02  0.81546178869E+00 -0.26849346284E+02  0.42239237379E+02  0.12700000000E+01 0.  1.
         -4    1    3    3    0  502 -0.15668986934E+02 -0.53894202461E+02  0.11164883808E+03  0.12496870871E+03  0.12700000000E+01 0.  1.
          2    1    1    2  503    0  0.66427414586E+02  0.19420321722E+02  0.27908572894E+02  0.74623312345E+02  0.00000000000E+00 0. -1.
         -1    1    1    2    0  501 -0.18185618431E+02  0.33658418950E+02  0.19868386596E+02  0.43108684390E+02  0.00000000000E+00 0.  1.
<mgrwt>
<rscale>  0 0.50883510E+02</rscale>
<asrwt>0</asrwt>
<pdfrwt beam="1">  1        2 0.32116646E-01 0.67677149E+02</pdfrwt>
<pdfrwt beam="2">  1       -1 0.11720269E-01 0.38257102E+02</pdfrwt>
<totfact> 0.75755159E+03</totfact>
</mgrwt>
</event>
<event>
 7    1  0.3113530E-004  0.9047490E+02  0.7546771E-02  0.1345119E+00
          2   -1    0    0  502    0  0.00000000000E+00  0.00000000000E+00  0.34323482107E+04  0.34323482107E+04  0.00000000000E+00 0.  1.
          2   -1    0    0  503    0 -0.00000000000E+00 -0.00000000000E+00 -0.55670690415E+03  0.55670690415E+03  0.00000000000E+00 0.  1.
         25    2    1    2    0    0  0.11992829158E+03 -0.34693550199E+02  0.95098868895E+02  0.20065563968E+03  0.12502980974E+03 0.  0.
          4    1    3    3  501    0  0.11033481771E+03 -0.44503322597E+02  0.15630008040E+02  0.12000094905E+03  0.12700000000E+01 0.  1.
         -4    1    3    3    0  501  0.95934738667E+01  0.98097723979E+01  0.79468860855E+02  0.80654690631E+02  0.12700000000E+01 0.  1.
          2    1    1    2  502    0 -0.88399073658E+02 -0.18118760078E+02  0.32819716331E+04  0.32832119161E+04  0.00000000000E+00 0.  1.
          2    1    1    2  503    0 -0.31529217920E+02  0.52812310277E+02 -0.50142919548E+03  0.50518755901E+03  0.00000000000E+00 0.  1.
<mgrwt>
<rscale>  0 0.74598447E+02</rscale>
<asrwt>0</asrwt>
<pdfrwt beam="1">  1        2 0.52805356E+00 0.90474898E+02</pdfrwt>
<pdfrwt beam="2">  1        2 0.85647218E-01 0.61507981E+02</pdfrwt>
<totfact> 0.12048885E+01</totfact>
</mgrwt>
</event>
<event>
 7    1  0.3113530E-004  0.1166980E+03  0.7546771E-02  0.1435556E+00
          1   -1    0    0  503    0 -0.00000000000E+00  0.00000000000E+00  0.39390766119E+03  0.39390766119E+03  0.00000000000E+00 0. -1.
          2   -1    0    0  502    0  0.00000000000E+00 -0.00000000000E+00 -0.30591493949E+03  0.30591493949E+03  0.00000000000E+00 0. -1.
         25    2    1    2    0    0 -0.10946502945E+03  0.32436212010E+02 -0.15459550434E+03  0.22925701199E+03  0.12499722822E+03 0.  0.
          4    1    3    3  501    0  0.13074358373E+02 -0.14739614289E+02  0.70789570295E+01  0.20974260628E+02  0.12700000000E+01 0.  1.
         -4    1    3    3    0  501 -0.12253938783E+03  0.47175826300E+02 -0.16167446137E+03  0.20828275136E+03  0.12700000000E+01 0.  1.
          2    1    1    2  502    0  0.60964382978E+01  0.22226101216E+02 -0.10309569889E+03  0.10564037706E+03  0.00000000000E+00 0. -1.
          1    1    1    2  503    0  0.10336859115E+03 -0.54662313226E+02  0.34568392493E+03  0.36492521163E+03  0.00000000000E+00 0. -1.
<mgrwt>
<rscale>  0 0.51860807E+02</rscale>
<asrwt>0</asrwt>
<pdfrwt beam="2">  1        2 0.47063836E-01 0.23047042E+02</pdfrwt>
<pdfrwt beam="1">  1        1 0.60601179E-01 0.11669798E+03</pdfrwt>
<totfact> 0.89081513E+02</totfact>
</mgrwt>
</event>
<event>
 7    1  0.3113530E-004  0.1625699E+03  0.7546771E-02  0.1198840E+00
          2   -1    0    0  502    0  0.00000000000E+00  0.00000000000E+00  0.76326334154E+03  0.76326334154E+03  0.00000000000E+00 0. -1.
          2   -1    0    0  503    0 -0.00000000000E+00 -0.00000000000E+00 -0.20398445135E+04  0.20398445135E+04  0.00000000000E+00 0. -1.
         25    2    1    2    0    0 -0.18370648135E+03 -0.20818797813E+03  0.18739666418E+03  0.35753635124E+03  0.12499770872E+03 0.  0.
          4    1    3    3  501    0 -0.51657870286E+01 -0.62079099160E+02  0.33259224734E+01  0.62395308865E+02  0.12700000000E+01 0. -1.
         -4    1    3    3    0  501 -0.17854069432E+03 -0.14610887897E+03  0.18407074171E+03  0.29514104238E+03  0.12700000000E+01 0. -1.
          2    1    1    2  502    0  0.39790605532E+02  0.13514338731E+03  0.47726911143E+03  0.49762720198E+03  0.00000000000E+00 0. -1.
          2    1    1    2  503    0  0.14391587581E+03  0.73044590823E+02 -0.19412469476E+04  0.19479443018E+04  0.00000000000E+00 0. -1.
<mgrwt>
<rscale>  0 0.15133658E+03</rscale>
<asrwt>0</asrwt>
<pdfrwt beam="1">  1        2 0.11742513E+00 0.14087948E+03</pdfrwt>
<pdfrwt beam="2">  1        2 0.31382222E+00 0.16256989E+03</pdfrwt>
<totfact> 0.44981641E+01</totfact>
</mgrwt>
</event>
<event>
 7    1  0.3113530E-004  0.1158864E+03  0.7546771E-02  0.1431299E+00
          2   -1    0    0  503    0  0.00000000000E+00  0.00000000000E+00  0.23915224593E+02  0.23915224593E+02  0.00000000000E+00 0. -1.
          2   -1    0    0  502    0 -0.00000000000E+00 -0.00000000000E+00 -0.17449358363E+04  0.17449358363E+04  0.00000000000E+00 0. -1.
         25    2    1    2    0    0  0.39945870487E+02  0.88296347701E+02 -0.13395094624E+04  0.13488154681E+04  0.12500259857E+03 0.  0.
          4    1    3    3  501    0  0.41113423425E+01 -0.13129790197E+02 -0.71322137147E+03  0.71335519353E+03  0.12700000000E+01 0.  1.
         -4    1    3    3    0  501  0.35834528145E+02  0.10142613790E+03 -0.62628809094E+03  0.63546027461E+03  0.12700000000E+01 0.  1.
          2    1    1    2  502    0 -0.15135274909E+01  0.23917966575E+02 -0.21082394894E+03  0.21218175543E+03  0.00000000000E+00 0. -1.
          2    1    1    2  503    0 -0.38432342997E+02 -0.11221431428E+03 -0.17068720031E+03  0.20785383727E+03  0.00000000000E+00 0. -1.
<mgrwt>
<rscale>  0 0.52700196E+02</rscale>
<asrwt>0</asrwt>
<pdfrwt beam="1">  1        2 0.36792648E-02 0.11588638E+03</pdfrwt>
<pdfrwt beam="2">  1        2 0.26845171E+00 0.23965807E+02</pdfrwt>
<totfact> 0.43479924E+03</totfact>
</mgrwt>
</event>
<event>
 7    1  0.3113530E-004  0.1385567E+03  0.7546771E-02  0.1308017E+00
          1   -1    0    0  503    0 -0.00000000000E+00  0.00000000000E+00  0.62965308332E+03  0.62965308332E+03  0.00000000000E+00 0. -1.
          2   -1    0    0  502    0  0.00000000000E+00 -0.00000000000E+00 -0.15085718089E+04  0.15085718089E+04  0.00000000000E+00 0. -1.
         25    2    1    2    0    0 -0.75334679339E+02 -0.10049818979E+03  0.33398619571E+02  0.18031781438E+03  0.12499538523E+03 0.  0.
          4    1    3    3  501    0  0.34385035303E+02 -0.26298830595E+02 -0.15141276845E+01  0.43334335418E+02  0.12700000000E+01 0.  1.
         -4    1    3    3    0  501 -0.10971971464E+03 -0.74199359197E+02  0.34912747256E+02  0.13698347896E+03  0.12700000000E+01 0.  1.
          2    1    1    2  502    0  0.41808291808E+02 -0.36901527479E+02 -0.14249916027E+04  0.14260822991E+04  0.00000000000E+00 0. -1.
          1    1    1    2  503    0  0.33526387531E+02  0.13739971727E+03  0.51267425754E+03  0.53182477876E+03  0.00000000000E+00 0. -1.
<mgrwt>
<rscale>  0 0.87900604E+02</rscale>
<asrwt>0</asrwt>
<pdfrwt beam="2">  1        2 0.23208797E+00 0.55764290E+02</pdfrwt>
<pdfrwt beam="1">  1        1 0.96869707E-01 0.13855670E+03</pdfrwt>
<totfact> 0.70940442E+01</totfact>
</mgrwt>
</event>
<event>
 7    1  0.3113530E-004  0.7716544E+02  0.7546771E-02  0.1363929E+00
          2   -1    0    0  503    0  0.00000000000E+00  0.00000000000E+00  0.18781756748E+03  0.18781756748E+03  0.00000000000E+00 0. -1.
          2   -1    0    0  502    0 -0.00000000000E+00 -0.00000000000E+00 -0.69359562423E+03  0.69359562423E+03  0.00000000000E+00 0. -1.
         25    2    1    2    0    0  0.46508192977E+02  0.31585422244E+02 -0.25210319567E+03  0.28695208958E+03  0.12499931813E+03 0.  0.
          4    1    3    3  501    0  0.17584494479E+02  0.78529980974E+02 -0.16935947015E+03  0.18751110737E+03  0.12700000000E+01 0.  1.
         -4    1    3    3    0  501  0.28923698499E+02 -0.46944558730E+02 -0.82743725517E+02  0.99440982203E+02  0.12700000000E+01 0.  1.
          2    1    1    2  502    0 -0.84596596399E+02  0.16690083391E+02 -0.41392871225E+03  0.42281452415E+03  0.00000000000E+00 0. -1.
          2    1    1    2  503    0  0.38088403422E+02 -0.48275505634E+02  0.16025385117E+03  0.17164657798E+03  0.00000000000E+00 0. -1.
<mgrwt>
<rscale>  0 0.68884309E+02</rscale>
<asrwt>0</asrwt>
<pdfrwt beam="1">  1        2 0.28895010E-01 0.61491877E+02</pdfrwt>
<pdfrwt beam="2">  1        2 0.10670702E+00 0.77165444E+02</pdfrwt>
<totfact> 0.12048530E+03</totfact>
</mgrwt>
</event>
<event>
 7    1  0.3113530E-004  0.6487440E+02  0.7546771E-02  0.1394819E+00
          2   -1    0    0  502    0  0.00000000000E+00  0.00000000000E+00  0.22575942942E+04  0.22575942942E+04  0.00000000000E+00 0. -1.
          1   -1    0    0  503    0 -0.00000000000E+00 -0.00000000000E+00 -0.20554972556E+03  0.20554972556E+03  0.00000000000E+00 0. -1.
         25    2    1    2    0    0 -0.20588740206E+02  0.13510652389E+02  0.24803252910E+03  0.27883967760E+03  0.12499998545E+03 0.  0.
          4    1    3    3  501    0 -0.59821826570E+02 -0.43502110119E+01  0.21846084150E+03  0.22654873083E+03  0.12700000000E+01 0. -1.
         -4    1    3    3    0  501  0.39233086365E+02  0.17860863401E+02  0.29571687596E+02  0.52290946773E+02  0.12700000000E+01 0. -1.
          2    1    1    2  502    0  0.21833233806E+02  0.52478031182E+02  0.19880125031E+04  0.19888248657E+04  0.00000000000E+00 0. -1.
          1    1    1    2  503    0 -0.12444936003E+01 -0.65988683571E+02 -0.18400046358E+03  0.19547947647E+03  0.00000000000E+00 0. -1.
<mgrwt>
<rscale>  0 0.60723752E+02</rscale>
<asrwt>0</asrwt>
<pdfrwt beam="1">  1        2 0.34732218E+00 0.56838665E+02</pdfrwt>
<pdfrwt beam="2">  1        1 0.31623036E-01 0.64874396E+02</pdfrwt>
<totfact> 0.12402543E+02</totfact>
</mgrwt>
</event>
<event>
 7    1  0.3113530E-004  0.9350797E+02  0.7546771E-02  0.1345444E+00
          2   -1    0    0  503    0  0.00000000000E+00  0.00000000000E+00  0.11719859928E+04  0.11719859928E+04  0.00000000000E+00 0. -1.
         -3   -1    0    0    0  501 -0.00000000000E+00 -0.00000000000E+00 -0.14763515494E+03  0.14763515494E+03  0.00000000000E+00 0.  1.
         25    2    1    2    0    0 -0.69486514422E+02 -0.99087134481E+02  0.83596084496E+02  0.19302780954E+03  0.12499917603E+03 0.  0.
          4    1    3    3  502    0  0.24975098852E+02 -0.65379354268E+01 -0.13310751865E+02  0.29073857286E+02  0.12700000000E+01 0. -1.
         -4    1    3    3    0  502 -0.94461613274E+02 -0.92549199054E+02  0.96906836361E+02  0.16395395226E+03  0.12700000000E+01 0. -1.
          2    1    1    2  503    0 -0.11768834579E+02  0.58168509153E+02  0.10103239181E+04  0.10120654625E+04  0.00000000000E+00 0. -1.
         -3    1    1    2    0  501  0.81255349001E+02  0.40918625328E+02 -0.69569164697E+02  0.11452787572E+03  0.00000000000E+00 0.  1.
<mgrwt>
<rscale>  0 0.74494488E+02</rscale>
<asrwt>0</asrwt>
<pdfrwt beam="1">  1        2 0.18030553E+00 0.59347122E+02</pdfrwt>
<pdfrwt beam="2">  1       -3 0.22713101E-01 0.93507966E+02</pdfrwt>
<totfact> 0.23738717E+02</totfact>
</mgrwt>
</event>
<event>
 7    1  0.3113530E-004  0.6082060E+02  0.7546771E-02  0.1443851E+00
         -1   -1    0    0    0  501 -0.00000000000E+00  0.00000000000E+00  0.44070020046E+03  0.44070020046E+03  0.00000000000E+00 0.  1.
          2   -1    0    0  503    0  0.00000000000E+00 -0.00000000000E+00 -0.94338215989E+03  0.94338215989E+03  0.00000000000E+00 0. -1.
         25    2    1    2    0    0  0.44549255945E+02 -0.88337742340E+02 -0.32979497884E+03  0.36630350736E+03  0.12500135403E+03 0.  0.
          4    1    3    3  502    0  0.54427308845E+02 -0.11514637585E+02 -0.24588270504E+03  0.25210084563E+03  0.12700000000E+01 0. -1.
         -4    1    3    3    0  502 -0.98780529006E+01 -0.76823104755E+02 -0.83912273803E+02  0.11420266174E+03  0.12700000000E+01 0. -1.
          2    1    1    2  503    0 -0.29001179575E+02  0.29771044049E+02 -0.59242817675E+03  0.59388427163E+03  0.00000000000E+00 0. -1.
         -1    1    1    2    0  501 -0.15548076369E+02  0.58566698291E+02  0.41954119616E+03  0.42389458136E+03  0.00000000000E+00 0.  1.
<mgrwt>
<rscale>  0 0.50277370E+02</rscale>
<asrwt>0</asrwt>
<pdfrwt beam="2">  1        2 0.14513572E+00 0.41561803E+02</pdfrwt>
<pdfrwt beam="1">  1       -1 0.67800031E-01 0.60820603E+02</pdfrwt>
<totfact> 0.84830624E+01</totfact>
</mgrwt>
</event>
<event>
 7    1  0.3113530E-004  0.7399998E+02  0.7546771E-02  0.1416810E+00
          2   -1    0    0  502    0  0.00000000000E+00  0.00000000000E+00  0.87841458448E+03  0.87841458448E+03  0.00000000000E+00 0.  1.
          2   -1    0    0  503    0 -0.00000000000E+00 -0.00000000000E+00 -0.15615303922E+04  0.15615303922E+04  0.00000000000E+00 0. -1.
         25    2    1    2    0    0 -0.25235103270E+02  0.11142639672E+03  0.93718169146E+02  0.19354923925E+03  0.12500224182E+03 0.  0.
          4    1    3    3  501    0 -0.19539137843E+02  0.34219403298E+02  0.10786134139E+03  0.11484087834E+03  0.12700000000E+01 0.  1.
         -4    1    3    3    0  501 -0.56959654274E+01  0.77206993426E+02 -0.14143172247E+02  0.78708360911E+02  0.12700000000E+01 0.  1.
          2    1    1    2  502    0  0.12530421729E+02 -0.71469574013E+02  0.73269776354E+03  0.73628182388E+03  0.00000000000E+00 0.  1.
          2    1    1    2  503    0  0.12704681541E+02 -0.39956822712E+02 -0.15095317404E+04  0.15101139136E+04  0.00000000000E+00 0. -1.
<mgrwt>
<rscale>  0 0.55701622E+02</rscale>
<asrwt>0</asrwt>
<pdfrwt beam="1">  1        2 0.13514071E+00 0.73999982E+02</pdfrwt>
<pdfrwt beam="2">  1        2 0.24023544E+00 0.41927993E+02</pdfrwt>
<totfact> 0.76898194E+01</totfact>
</mgrwt>
</event>
<event>
 7    1  0.3113530E-004  0.3251620E+02  0.7546771E-02  0.1572605E+00
         -1   -1    0    0    0  501 -0.00000000000E+00  0.00000000000E+00  0.25015137915E+02  0.25015137915E+02  0.00000000000E+00 0.  1.
          2   -1    0    0  503    0  0.00000000000E+00 -0.00000000000E+00 -0.39153958078E+03  0.39153958078E+03  0.00000000000E+00 0. -1.
         25    2    1    2    0    0  0.24934651437E+02  0.28542633172E+02 -0.24013770143E+03  0.27336244479E+03  0.12499796728E+03 0.  0.
          4    1    3    3  502    0 -0.31214317488E+01 -0.44253531407E+02 -0.45001551493E+02  0.63204991219E+02  0.12700000000E+01 0.  1.
         -4    1    3    3    0  502  0.28056083186E+02  0.72796164579E+02 -0.19513614994E+03  0.21015745357E+03  0.12700000000E+01 0.  1.
          2    1    1    2  503    0  0.72535278686E+01 -0.33149606266E+02 -0.75902050402E+02  0.83142235460E+02  0.00000000000E+00 0. -1.
         -1    1    1    2    0  501 -0.32188179306E+02  0.46069730941E+01 -0.50484691037E+02  0.60050038444E+02  0.00000000000E+00 0.  1.
<mgrwt>
<rscale>  0 0.32437915E+02</rscale>
<asrwt>0</asrwt>
<pdfrwt beam="2">  1        2 0.60236854E-01 0.32359822E+02</pdfrwt>
<pdfrwt beam="1">  1       -1 0.38484830E-02 0.32516197E+02</pdfrwt>
<totfact> 0.19225994E+04</totfact>
</mgrwt>
</event>
<event>
 7    1  0.3113530E-004  0.4530258E+02  0.7546771E-02  0.1576750E+00
          2   -1    0    0  502    0  0.00000000000E+00  0.00000000000E+00  0.13730857318E+04  0.13730857318E+04  0.00000000000E+00 0. -1.
          2   -1    0    0  503    0 -0.00000000000E+00 -0.00000000000E+00 -0.21290948401E+02  0.21290948401E+02  0.00000000000E+00 0. -1.
         25    2    1    2    0    0  0.42356715221E+02  0.47231659753E+02  0.34653007116E+03  0.37380852370E+03  0.12499920465E+03 0.  0.
          4    1    3    3  501    0  0.16648374787E+02  0.88801803201E+02  0.24466316252E+03  0.26081526916E+03  0.12700000000E+01 0. -1.
         -4    1    3    3    0  501  0.25708340434E+02 -0.41570143448E+02  0.10186690865E+03  0.11299325454E+03  0.12700000000E+01 0. -1.
          2    1    1    2  502    0 -0.21121842966E+02 -0.39392623236E+02  0.99449873730E+03  0.99550271195E+03  0.00000000000E+00 0. -1.
          2    1    1    2  503    0 -0.21234872254E+02 -0.78390365171E+01  0.10765974905E+02  0.25065444517E+02  0.00000000000E+00 0. -1.
<mgrwt>
<rscale>  0 0.32022663E+02</rscale>
<asrwt>0</asrwt>
<pdfrwt beam="1">  1        2 0.21124389E+00 0.45302578E+02</pdfrwt>
<pdfrwt beam="2">  1        2 0.32755316E-02 0.22635598E+02</pdfrwt>
<totfact> 0.58549414E+03</totfact>
</mgrwt>
</event>
<event>
 7    1  0.3113530E-004  0.1209219E+03  0.7546771E-02  0.1409727E+00
         -2   -1    0    0    0  501 -0.00000000000E+00  0.00000000000E+00  0.16487160236E+02  0.16487160236E+02  0.00000000000E+00 0.  1.
          2   -1    0    0  503    0  0.00000000000E+00 -0.00000000000E+00 -0.16132355471E+04  0.16132355471E+04  0.00000000000E+00 0. -1.
         25    2    1    2    0    0  0.11833616606E+03 -0.78021574970E+01 -0.73216317426E+03  0.75216398025E+03  0.12499367018E+03 0.  0.
          4    1    3    3  502    0  0.80083796283E+02 -0.50225733040E+02 -0.26186735491E+03  0.27841006295E+03  0.12700000000E+01 0.  1.
         -4    1    3    3    0  502  0.38252369774E+02  0.42423575543E+02 -0.47029581935E+03  0.47375391730E+03  0.12700000000E+01 0.  1.
          2    1    1    2  503    0 -0.12171016246E+03 -0.19096309634E+02 -0.70176362266E+03  0.71249576474E+03  0.00000000000E+00 0. -1.
         -2    1    1    2    0  501  0.33739964084E+01  0.26898467131E+02 -0.16282158999E+03  0.16506296239E+03  0.00000000000E+00 0.  1.
<mgrwt>
<rscale>  0 0.57254706E+02</rscale>
<asrwt>0</asrwt>
<pdfrwt beam="2">  1        2 0.24819015E+00 0.12092188E+03</pdfrwt>
<pdfrwt beam="1">  1       -2 0.25364855E-02 0.27109249E+02</pdfrwt>
<totfact> 0.51235699E+03</totfact>
</mgrwt>
</event>
<event>
 7    1  0.3113530E-004  0.3675642E+02  0.7546771E-02  0.1602392E+00
         -3   -1    0    0    0  501 -0.00000000000E+00  0.00000000000E+00  0.31230624349E+02  0.31230624349E+02  0.00000000000E+00 0.  1.
          3   -1    0    0  503    0  0.00000000000E+00 -0.00000000000E+00 -0.14447467957E+04  0.14447467957E+04  0.00000000000E+00 0. -1.
         25    2    1    2    0    0  0.33003157367E+02  0.49171424350E+02 -0.63690861032E+03  0.65175672572E+03  0.12500885668E+03 0.  0.
          4    1    3    3  502    0 -0.44578552083E+02  0.93977077029E+01 -0.31370873040E+03  0.31700212088E+03  0.12700000000E+01 0. -1.
         -4    1    3    3    0  502  0.77581709450E+02  0.39773716647E+02 -0.32319987993E+03  0.33475460484E+03  0.12700000000E+01 0. -1.
          3    1    1    2  503    0 -0.17246154003E+02 -0.16488308914E+02 -0.78630263149E+03  0.78666455523E+03  0.00000000000E+00 0. -1.
         -3    1    1    2    0  501 -0.15757003364E+02 -0.32683115436E+02  0.96950704999E+01  0.37556139067E+02  0.00000000000E+00 0.  1.
<mgrwt>
<rscale>  0 0.29614253E+02</rscale>
<asrwt>0</asrwt>
<pdfrwt beam="2">  1        3 0.22226870E+00 0.23859886E+02</pdfrwt>
<pdfrwt beam="1">  1       -3 0.48047122E-02 0.36756421E+02</pdfrwt>
<totfact> 0.58880572E+01</totfact>
</mgrwt>
</event>
<event>
 7    1  0.3113530E-004  0.1195798E+03  0.7546771E-02  0.1281125E+00
          1   -1    0    0  503    0 -0.00000000000E+00  0.00000000000E+00  0.24071449002E+04  0.24071449002E+04  0.00000000000E+00 0. -1.
          2   -1    0    0  502    0  0.00000000000E+00 -0.00000000000E+00 -0.13570850723E+03  0.13570850723E+03  0.00000000000E+00 0. -1.
         25    2    1    2    0    0  0.40117479612E+02 -0.14493850051E+02  0.41190770521E+03  0.43256518165E+03  0.12500077959E+03 0.  0.
          4    1    3    3  501    0  0.28536710708E+02 -0.66639727449E+02  0.29882063412E+03  0.30749078264E+03  0.12700000000E+01 0.  1.
         -4    1    3    3    0  501  0.11580768904E+02  0.52145877398E+02  0.11308707110E+03  0.12507439901E+03  0.12700000000E+01 0.  1.
          2    1    1    2  502    0 -0.12135758477E+03  0.31347643971E+02 -0.92951535576E+02  0.15604591032E+03  0.00000000000E+00 0. -1.
          1    1    1    2  503    0  0.81240105154E+02 -0.16853793920E+02  0.19524802233E+04  0.19542423155E+04  0.00000000000E+00 0. -1.
<mgrwt>
<rscale>  0 0.99606860E+02</rscale>
<asrwt>0</asrwt>
<pdfrwt beam="2">  1        2 0.20878234E-01 0.11957982E+03</pdfrwt>
<pdfrwt beam="1">  1        1 0.37032995E+00 0.82969905E+02</pdfrwt>
<totfact> 0.75463672E+01</totfact>
</mgrwt>
</event>
<event>
 7    1  0.3113530E-004  0.9710686E+02  0.7546771E-02  0.1296992E+00
          2   -1    0    0  503    0  0.00000000000E+00  0.00000000000E+00  0.48188822050E+02  0.48188822050E+02  0.00000000000E+00 0. -1.
         -1   -1    0    0    0  501 -0.00000000000E+00 -0.00000000000E+00 -0.14868060273E+04  0.14868060273E+04  0.00000000000E+00 0.  1.
         25    2    1    2    0    0 -0.43293256682E+02  0.12373117494E+02 -0.71328678268E+03  0.72554943611E+03  0.12496619452E+03 0.  0.
          4    1    3    3  502    0  0.29918441187E+02  0.28532053837E+02 -0.44690664312E+03  0.44881661265E+03  0.12700000000E+01 0. -1.
         -4    1    3    3    0  502 -0.73211697869E+02 -0.16158936343E+02 -0.26638013956E+03  0.27673282346E+03  0.12700000000E+01 0. -1.
          2    1    1    2  503    0 -0.68033002606E+02  0.69291074367E+02 -0.31614643554E+02  0.10212359237E+03  0.00000000000E+00 0. -1.
         -1    1    1    2    0  501  0.11132625929E+03 -0.81664191862E+02 -0.69371577901E+03  0.70732182088E+03  0.00000000000E+00 0.  1.
<mgrwt>
<rscale>  0 0.92463974E+02</rscale>
<asrwt>0</asrwt>
<pdfrwt beam="1">  1        2 0.74136666E-02 0.97106861E+02</pdfrwt>
<pdfrwt beam="2">  1       -1 0.22873934E+00 0.88043074E+02</pdfrwt>
<totfact> 0.12046414E+02</totfact>
</mgrwt>
</event>
<event>
 7    1  0.3113530E-004  0.1125161E+03  0.7546771E-02  0.1289588E+00
         -1   -1    0    0    0  501  0.00000000000E+00  0.00000000000E+00  0.39087760159E+03  0.39087760159E+03  0.00000000000E+00 0.  1.
         -1   -1    0    0    0  502 -0.00000000000E+00 -0.00000000000E+00 -0.29235223960E+03  0.29235223960E+03  0.00000000000E+00 0.  1.
         25    2    1    2    0    0 -0.14739129310E+03 -0.89304798884E+01 -0.14103858057E+03  0.23941718254E+03  0.12499903732E+03 0.  0.
          4    1    3    3  503    0 -0.62362889558E+02 -0.40660151240E+02 -0.12749911242E+03  0.14764827957E+03  0.12700000000E+01 0.  1.
         -4    1    3    3    0  503 -0.85028403547E+02  0.31729671351E+02 -0.13539468152E+02  0.91768902966E+02  0.12700000000E+01 0.  1.
         -1    1    1    2    0  501  0.65121997983E+02 -0.48857169650E+02  0.31035365285E+03  0.32085399714E+03  0.00000000000E+00 0.  1.
         -1    1    1    2    0  502  0.82269295122E+02  0.57787649539E+02 -0.70789710283E+02  0.12295866151E+03  0.00000000000E+00 0.  1.
<mgrwt>
<rscale>  0 0.95708687E+02</rscale>
<asrwt>0</asrwt>
<pdfrwt beam="1">  1       -1 0.60135015E-01 0.81411901E+02</pdfrwt>
<pdfrwt beam="2">  1       -1 0.44977268E-01 0.11251614E+03</pdfrwt>
<totfact> 0.12573449E+02</totfact>
</mgrwt>
</event>
<event>
 7    1  0.3113530E-004  0.1040613E+03  0.7546771E-02  0.1364680E+00
          1   -1    0    0  503    0  0.00000000000E+00  0.00000000000E+00  0.33604328167E+03  0.33604328167E+03  0.00000000000E+00 0. -1.
          1   -1    0    0  502    0 -0.00000000000E+00 -0.00000000000E+00 -0.12192453668E+03  0.12192453668E+03  0.00000000000E+00 0. -1.
         25    2    1    2    0    0  0.43606662446E+01 -0.86161095159E+02  0.10478372910E+03  0.18451865559E+03  0.12499901858E+03 0.  0.
          4    1    3    3  501    0  0.45729685966E+02  0.60756247254E+01  0.55099052852E+02  0.71872358523E+02  0.12700000000E+01 0.  1.
         -4    1    3    3    0  501 -0.41369019722E+02 -0.92236719884E+02  0.49684676251E+02  0.11264629706E+03  0.12700000000E+01 0.  1.
          1    1    1    2  502    0  0.37391144874E+02  0.10377049447E+03 -0.40046467201E+02  0.11734620903E+03  0.00000000000E+00 0. -1.
          1    1    1    2  503    0 -0.41751811119E+02 -0.17609399312E+02  0.14938148309E+03  0.15610295374E+03  0.00000000000E+00 0. -1.
<mgrwt>
<rscale>  0 0.68668555E+02</rscale>
<asrwt>0</asrwt>
<pdfrwt beam="1">  1        1 0.51698966E-01 0.45313405E+02</pdfrwt>
<pdfrwt beam="2">  1        1 0.18757621E-01 0.10406127E+03</pdfrwt>
<totfact> 0.24453420E+03</totfact>
</mgrwt>
</event>
<event>
 7    1  0.3113530E-004  0.1395644E+03  0.7546771E-02  0.1296845E+00
          2   -1    0    0  502    0  0.00000000000E+00  0.00000000000E+00  0.57226214637E+03  0.57226214637E+03  0.00000000000E+00 0. -1.
          1   -1    0    0  503    0 -0.00000000000E+00 -0.00000000000E+00 -0.13236135479E+03  0.13236135479E+03  0.00000000000E+00 0.  1.
         25    2    1    2    0    0  0.10888384888E+03 -0.46882331581E+02  0.13065710661E+03  0.21621461147E+03  0.12499533248E+03 0.  0.
          4    1    3    3  501    0  0.97043323218E+02 -0.21304977149E+02  0.15147190847E+03  0.18115369328E+03  0.12700000000E+01 0.  1.
         -4    1    3    3    0  501  0.11840525663E+02 -0.25577354432E+02 -0.20814801860E+02  0.35060918188E+02  0.12700000000E+01 0.  1.
          2    1    1    2  502    0  0.41222319585E+02  0.45427653811E+02  0.33108077990E+03  0.33671565776E+03  0.00000000000E+00 0. -1.
          1    1    1    2  503    0 -0.15010616847E+03  0.14546777704E+01 -0.21837094931E+02  0.15169323193E+03  0.00000000000E+00 0.  1.
<mgrwt>
<rscale>  0 0.92527212E+02</rscale>
<asrwt>0</asrwt>
<pdfrwt beam="1">  1        2 0.88040328E-01 0.61342900E+02</pdfrwt>
<pdfrwt beam="2">  1        1 0.20363286E-01 0.13956440E+03</pdfrwt>
<totfact> 0.18234892E+03</totfact>
</mgrwt>
</event>
<event>
 7    1  0.3113530E-004  0.4366197E+02  0.7546771E-02  0.1567922E+00
          2   -1    0    0  503    0  0.00000000000E+00  0.00000000000E+00  0.10923905088E+04  0.10923905088E+04  0.00000000000E+00 0. -1.
         -1   -1    0    0    0  501 -0.00000000000E+00 -0.00000000000E+00 -0.10530999058E+02  0.10530999058E+02  0.00000000000E+00 0.  1.
         25    2    1    2    0    0  0.35244588380E+01  0.64300095041E+02  0.67774492378E+03  0.69217725667E+03  0.12499699563E+03 0.  0.
          4    1    3    3  502    0 -0.42215950393E+02  0.69916591196E+02  0.55651204465E+03  0.56247469715E+03  0.12700000000E+01 0. -1.
         -4    1    3    3    0  502  0.45740409231E+02 -0.56164961553E+01  0.12123287912E+03  0.12970255952E+03  0.12700000000E+01 0. -1.
          2    1    1    2  503    0  0.22728532072E+01 -0.40171328065E+02  0.33304839983E+03  0.33547002562E+03  0.00000000000E+00 0. -1.
         -1    1    1    2    0  501 -0.57973120452E+01 -0.24128766976E+02  0.71066186141E+02  0.75274225572E+02  0.00000000000E+00 0.  1.
<mgrwt>
<rscale>  0 0.32916426E+02</rscale>
<asrwt>0</asrwt>
<pdfrwt beam="1">  1        2 0.16805999E+00 0.43661968E+02</pdfrwt>
<pdfrwt beam="2">  1       -1 0.16201546E-02 0.24815443E+02</pdfrwt>
<totfact> 0.18981886E+04</totfact>
</mgrwt>
</event>
<event>
 7    1  0.3113530E-004  0.1937969E+03  0.7546771E-02  0.1301619E+00
         -1   -1    0    0    0  501 -0.00000000000E+00  0.00000000000E+00  0.14330918898E+04  0.14330918898E+04  0.00000000000E+00 0.  1.
          2   -1    0    0  503    0  0.00000000000E+00 -0.00000000000E+00 -0.93469614852E+03  0.93469614852E+03  0.00000000000E+00 0. -1.
         25    2    1    2    0    0 -0.87388475699E+02 -0.20948069051E+03 -0.58705006740E+02  0.26568691586E+03  0.12499741621E+03 0.  0.
          4    1    3    3  502    0  0.15749775079E+02 -0.33762401582E+02  0.25556727141E+02  0.45196397841E+02  0.12700000000E+01 0. -1.
         -4    1    3    3    0  502 -0.10313825078E+03 -0.17571828893E+03 -0.84261733881E+02  0.22049051802E+03  0.12700000000E+01 0. -1.
          2    1    1    2  503    0 -0.68687624182E+01  0.41710687830E+02 -0.76495072192E+03  0.76611785538E+03  0.00000000000E+00 0. -1.
         -1    1    1    2    0  501  0.94257238117E+02  0.16777000268E+03  0.13220514699E+04  0.13359832670E+04  0.00000000000E+00 0.  1.
<mgrwt>
<rscale>  0 0.90511172E+02</rscale>
<asrwt>0</asrwt>
<pdfrwt beam="2">  1        2 0.14379941E+00 0.42272466E+02</pdfrwt>
<pdfrwt beam="1">  1       -1 0.22047567E+00 0.19379689E+03</pdfrwt>
<totfact> 0.45982642E+00</totfact>
</mgrwt>
</event>
<event>
 7    1  0.3113530E-004  0.1805410E+03  0.7546771E-02  0.1185724E+00
          1   -1    0    0  503    0  0.00000000000E+00  0.00000000000E+00  0.12861498285E+04  0.12861498285E+04  0.00000000000E+00 0. -1.
         -2   -1    0    0    0  501 -0.00000000000E+00 -0.00000000000E+00 -0.28122441370E+04  0.28122441370E+04  0.00000000000E+00 0.  1.
         25    2    1    2    0    0 -0.72998944573E+02 -0.48314988301E+02 -0.27892654104E+03  0.31795445594E+03  0.12502734403E+03 0.  0.
          4    1    3    3  502    0  0.67659955067E+01  0.29552759650E+02 -0.12033688607E+03  0.12410367983E+03  0.12700000000E+01 0.  1.
         -4    1    3    3    0  502 -0.79764940079E+02 -0.77867747951E+02 -0.15858965497E+03  0.19385077612E+03  0.12700000000E+01 0.  1.
          1    1    1    2  503    0 -0.13024805070E+03  0.67179252228E+02  0.12582321661E+04  0.12667382486E+04  0.00000000000E+00 0. -1.
         -2    1    1    2    0  501  0.20324699527E+03 -0.18864263927E+02 -0.25053999336E+04  0.25137012609E+04  0.00000000000E+00 0.  1.
<mgrwt>
<rscale>  0 0.16266137E+03</rscale>
<asrwt>0</asrwt>
<pdfrwt beam="1">  1        1 0.19786921E+00 0.14655240E+03</pdfrwt>
<pdfrwt beam="2">  1       -2 0.43265294E+00 0.18054103E+03</pdfrwt>
<totfact> 0.55265032E-02</totfact>
</mgrwt>
</event>
<event>
 7    1  0.3113530E-004  0.9591415E+02  0.7546771E-02  0.1470664E+00
          1   -1    0    0  503    0  0.00000000000E+00  0.00000000000E+00  0.97645426846E+03  0.97645426846E+03  0.00000000000E+00 0. -1.
         -2   -1    0    0    0  501 -0.00000000000E+00 -0.00000000000E+00 -0.22900206841E+02  0.22900206841E+02  0.00000000000E+00 0.  1.
         25    2    1    2    0    0 -0.25484814215E+02  0.85978930793E+02  0.72600956829E+03  0.74213118696E+03  0.12500781225E+03 0.  0.
          4    1    3    3  502    0  0.27555927790E+02  0.75257954057E+02  0.23812760239E+03  0.25125575959E+03  0.12700000000E+01 0.  1.
         -4    1    3    3    0  502 -0.53040742006E+02  0.10720976736E+02  0.48788196589E+03  0.49087542737E+03  0.12700000000E+01 0.  1.
          1    1    1    2  503    0 -0.21674083204E+02  0.34258571276E-01  0.35966119872E+02  0.41992009181E+02  0.00000000000E+00 0. -1.
         -2    1    1    2    0  501  0.47158897419E+02 -0.86013189365E+02  0.19157837346E+03  0.21523127916E+03  0.00000000000E+00 0.  1.
<mgrwt>
<rscale>  0 0.45594449E+02</rscale>
<asrwt>0</asrwt>
<pdfrwt beam="1">  1        1 0.15022370E+00 0.21674110E+02</pdfrwt>
<pdfrwt beam="2">  1       -2 0.35231095E-02 0.95914146E+02</pdfrwt>
<totfact> 0.51730333E+03</totfact>
</mgrwt>
</event>
<event>
 7    1  0.3113530E-004  0.3746061E+02  0.7546771E-02  0.1604515E+00
          1   -1    0    0  503    0 -0.00000000000E+00  0.00000000000E+00  0.47693180285E+03  0.47693180285E+03  0.00000000000E+00 0. -1.
          2   -1    0    0  502    0  0.00000000000E+00 -0.00000000000E+00 -0.44065589048E+03  0.44065589048E+03  0.00000000000E+00 0. -1.
         25    2    1    2    0    0  0.50519963396E+02 -0.30810165616E+02  0.51595615509E+02  0.14760959337E+03  0.12499980603E+03 0.  0.
          4    1    3    3  501    0 -0.71699631077E+01 -0.68750798787E+02  0.22956013989E+02  0.72846909221E+02  0.12700000000E+01 0. -1.
         -4    1    3    3    0  501  0.57689926504E+02  0.37940633171E+02  0.28639601520E+02  0.74762684146E+02  0.12700000000E+01 0. -1.
          2    1    1    2  502    0 -0.21973066282E+02  0.71773030424E+01 -0.39139710638E+03  0.39207910452E+03  0.00000000000E+00 0. -1.
          1    1    1    2  503    0 -0.28546897114E+02  0.23632862574E+02  0.37607740324E+03  0.37789899544E+03  0.00000000000E+00 0. -1.
<mgrwt>
<rscale>  0 0.29426570E+02</rscale>
<asrwt>0</asrwt>
<pdfrwt beam="2">  1        2 0.67793214E-01 0.23115564E+02</pdfrwt>
<pdfrwt beam="1">  1        1 0.73374124E-01 0.37460605E+02</pdfrwt>
<totfact> 0.49882301E+02</totfact>
</mgrwt>
</event>
<event>
 7    1  0.3113530E-004  0.3450914E+02  0.7546771E-02  0.1554637E+00
          2   -1    0    0  503    0  0.00000000000E+00  0.00000000000E+00  0.68903290423E+03  0.68903290423E+03  0.00000000000E+00 0. -1.
         -1   -1    0    0    0  501 -0.00000000000E+00 -0.00000000000E+00 -0.20341638431E+02  0.20341638431E+02  0.00000000000E+00 0.  1.
         25    2    1    2    0    0 -0.21867924983E+02  0.89143871503E+01  0.23079628603E+03  0.26353793867E+03  0.12501058769E+03 0.  0.
          4    1    3    3  502    0 -0.16299471202E+00  0.65937696202E+02  0.12800146501E+03  0.14399234109E+03  0.12700000000E+01 0.  1.
         -4    1    3    3    0  502 -0.21704930271E+02 -0.57023309052E+02  0.10279482101E+03  0.11954559758E+03  0.12700000000E+01 0.  1.
          2    1    1    2  503    0 -0.22367551183E+02 -0.25806360460E+02  0.23631864884E+03  0.23877348969E+03  0.00000000000E+00 0. -1.
         -1    1    1    2    0  501  0.44235476166E+02  0.16891973310E+02  0.20157633094E+03  0.20706311431E+03  0.00000000000E+00 0.  1.
<mgrwt>
<rscale>  0 0.34329490E+02</rscale>
<asrwt>0</asrwt>
<pdfrwt beam="1">  1        2 0.10600504E+00 0.34150777E+02</pdfrwt>
<pdfrwt beam="2">  1       -1 0.31294834E-02 0.34509139E+02</pdfrwt>
<totfact> 0.14361081E+04</totfact>
</mgrwt>
</event>
<event>
 7    1  0.3113530E-004  0.1495357E+03  0.7546771E-02  0.1316129E+00
          2   -1    0    0  503    0  0.00000000000E+00  0.00000000000E+00  0.30265288086E+04  0.30265288086E+04  0.00000000000E+00 0. -1.
         -1   -1    0    0    0  501 -0.00000000000E+00 -0.00000000000E+00 -0.13805100237E+02  0.13805100237E+02  0.00000000000E+00 0.  1.
         25    2    1    2    0    0 -0.14552904691E+03 -0.87909037363E+02  0.12840967875E+04  0.13013223879E+04  0.12501477995E+03 0.  0.
          4    1    3    3  502    0 -0.95056377394E+02 -0.25159261796E+02  0.10319560109E+04  0.10366308526E+04  0.12700000000E+01 0.  1.
         -4    1    3    3    0  502 -0.50472669516E+02 -0.62749775567E+02  0.25214077662E+03  0.26469153526E+03  0.12700000000E+01 0.  1.
          2    1    1    2  503    0  0.47784943243E+02 -0.46892683523E+01  0.69426790048E+03  0.69592622287E+03  0.00000000000E+00 0. -1.
         -1    1    1    2    0  501  0.97744103668E+02  0.92598305715E+02  0.10343590204E+04  0.10430852981E+04  0.00000000000E+00 0.  1.
<mgrwt>
<rscale>  0 0.84734161E+02</rscale>
<asrwt>0</asrwt>
<pdfrwt beam="1">  1        2 0.46561929E+00 0.48014477E+02</pdfrwt>
<pdfrwt beam="2">  1       -1 0.21238640E-02 0.14953569E+03</pdfrwt>
<totfact> 0.17762083E+03</totfact>
</mgrwt>
</event>
<event>
 7    1  0.3113530E-004  0.2532152E+03  0.7546771E-02  0.1156443E+00
          2   -1    0    0  502    0  0.00000000000E+00  0.00000000000E+00  0.10177871478E+04  0.10177871478E+04  0.00000000000E+00 0. -1.
          2   -1    0    0  503    0 -0.00000000000E+00 -0.00000000000E+00 -0.30179424058E+03  0.30179424058E+03  0.00000000000E+00 0. -1.
         25    2    1    2    0    0  0.42157550722E+02  0.11876643802E+03 -0.99026000606E+02  0.20325883877E+03  0.12500112343E+03 0.  0.
          4    1    3    3  501    0  0.67824309767E+02  0.12051303056E+03 -0.10853920952E+03  0.17580074071E+03  0.12700000000E+01 0. -1.
         -4    1    3    3    0  501 -0.25666759045E+02 -0.17465925353E+01  0.95132089159E+01  0.27458098063E+02  0.12700000000E+01 0. -1.
          2    1    1    2  502    0 -0.12324500870E+03 -0.24014364654E+03  0.90530349346E+03  0.94468657152E+03  0.00000000000E+00 0. -1.
          2    1    1    2  503    0  0.81087457980E+02  0.12137720852E+03 -0.90284585593E+02  0.17163597812E+03  0.00000000000E+00 0. -1.
<mgrwt>
<rscale>  0 0.19225539E+03</rscale>
<asrwt>0</asrwt>
<pdfrwt beam="1">  1        2 0.15658264E+00 0.25321518E+03</pdfrwt>
<pdfrwt beam="2">  1        2 0.46429883E-01 0.14597124E+03</pdfrwt>
<totfact> 0.43265099E+02</totfact>
</mgrwt>
</event>
<event>
 7    1  0.3113530E-004  0.5586059E+02  0.7546771E-02  0.1441294E+00
          1   -1    0    0  503    0  0.00000000000E+00  0.00000000000E+00  0.44075464830E+02  0.44075464830E+02  0.00000000000E+00 0. -1.
         -2   -1    0    0    0  501 -0.00000000000E+00 -0.00000000000E+00 -0.35572967396E+03  0.35572967396E+03  0.00000000000E+00 0.  1.
         25    2    1    2    0    0 -0.52548291542E+02 -0.41013097071E+02 -0.13788297422E+03  0.19768702541E+03  0.12500019343E+03 0.  0.
          4    1    3    3  502    0  0.24280194100E+02  0.16681243014E+02  0.17015189038E+00  0.29486158544E+02  0.12700000000E+01 0. -1.
         -4    1    3    3    0  502 -0.76828485642E+02 -0.57694340085E+02 -0.13805312611E+03  0.16820086686E+03  0.12700000000E+01 0. -1.
          1    1    1    2  503    0  0.43622411767E+02 -0.14977619871E+02 -0.69125973460E+02  0.83100205248E+02  0.00000000000E+00 0. -1.
         -2    1    1    2    0  501  0.89258797746E+01  0.55990716943E+02 -0.10464526145E+03  0.11901790814E+03  0.00000000000E+00 0.  1.
<mgrwt>
<rscale>  0 0.50758301E+02</rscale>
<asrwt>0</asrwt>
<pdfrwt beam="1">  1        1 0.67808404E-02 0.46122054E+02</pdfrwt>
<pdfrwt beam="2">  1       -2 0.54727645E-01 0.55860588E+02</pdfrwt>
<totfact> 0.26827757E+03</totfact>
</mgrwt>
</event>
<event>
 7    1  0.3113530E-004  0.3369832E+02  0.7546771E-02  0.1610421E+00
          1   -1    0    0  503    0  0.00000000000E+00  0.00000000000E+00  0.20147135651E+04  0.20147135651E+04  0.00000000000E+00 0. -1.
          1   -1    0    0  502    0 -0.00000000000E+00 -0.00000000000E+00 -0.30162711127E+03  0.30162711127E+03  0.00000000000E+00 0. -1.
         25    2    1    2    0    0  0.29309755556E+02 -0.50501187501E+02  0.51359884809E+03  0.53180732391E+03  0.12500328512E+03 0.  0.
          4    1    3    3  501    0  0.72550976707E+02 -0.32468627956E+02  0.41613783737E+03  0.42366280060E+03  0.12700000000E+01 0.  1.
         -4    1    3    3    0  501 -0.43241221151E+02 -0.18032559544E+02  0.97461010721E+02  0.10814452331E+03  0.12700000000E+01 0.  1.
          1    1    1    2  502    0 -0.18100262354E+02  0.28370459959E+02 -0.29145147014E+03  0.29338790354E+03  0.00000000000E+00 0. -1.
          1    1    1    2  503    0 -0.11209493202E+02  0.22130727542E+02  0.14909390759E+04  0.14911454489E+04  0.00000000000E+00 0. -1.
<mgrwt>
<rscale>  0 0.28913278E+02</rscale>
<asrwt>0</asrwt>
<pdfrwt beam="1">  1        1 0.30995592E+00 0.24807697E+02</pdfrwt>
<pdfrwt beam="2">  1        1 0.46404172E-01 0.33698317E+02</pdfrwt>
<totfact> 0.46888033E+01</totfact>
</mgrwt>
</event>
<event>
 7    1  0.3113530E-004  0.1301144E+03  0.7546771E-02  0.1379703E+00
          3   -1    0    0  503    0  0.00000000000E+00  0.00000000000E+00  0.63121767507E+03  0.63121767507E+03  0.00000000000E+00 0. -1.
         -1   -1    0    0    0  501 -0.00000000000E+00 -0.00000000000E+00 -0.26925875163E+03  0.26925875163E+03  0.00000000000E+00 0.  1.
         25    2    1    2    0    0  0.25270421009E+02  0.13582730441E+03 -0.10300168080E+03  0.21289014630E+03  0.12500086937E+03 0.  0.
          4    1    3    3  502    0 -0.18485941455E+02  0.14093826707E+03 -0.81421285261E+02  0.16381808127E+03  0.12700000000E+01 0.  1.
         -4    1    3    3    0  502  0.43756362464E+02 -0.51109626572E+01 -0.21580395535E+02  0.49072065035E+02  0.12700000000E+01 0.  1.
          3    1    1    2  503    0 -0.30496526254E+02 -0.97441118144E+01  0.53988150071E+03  0.54082993689E+03  0.00000000000E+00 0. -1.
         -1    1    1    2    0  501  0.52261052454E+01 -0.12608319260E+03 -0.74920896476E+02  0.14675634351E+03  0.00000000000E+00 0.  1.
<mgrwt>
<rscale>  0 0.64541955E+02</rscale>
<asrwt>0</asrwt>
<pdfrwt beam="1">  1        3 0.97110412E-01 0.32015400E+02</pdfrwt>
<pdfrwt beam="2">  1       -1 0.41424423E-01 0.13011438E+03</pdfrwt>
<totfact> 0.24458295E+01</totfact>
</mgrwt>
</event>
<event>
 7    1  0.3113530E-004  0.5614317E+02  0.7546771E-02  0.1428834E+00
          2   -1    0    0  503    0  0.00000000000E+00  0.00000000000E+00  0.17771400229E+03  0.17771400229E+03  0.00000000000E+00 0. -1.
         -1   -1    0    0    0  501 -0.00000000000E+00 -0.00000000000E+00 -0.17052915354E+03  0.17052915354E+03  0.00000000000E+00 0.  1.
         25    2    1    2    0    0 -0.45569260826E+02 -0.81651042832E+02 -0.99854083823E+02  0.18530167590E+03  0.12498969040E+03 0.  0.
          4    1    3    3  502    0 -0.26095904384E+02 -0.10275104805E+03 -0.30642882230E+02  0.11036019768E+03  0.12700000000E+01 0.  1.
         -4    1    3    3    0  502 -0.19473356442E+02  0.21100005219E+02 -0.69211201593E+02  0.74941478217E+02  0.12700000000E+01 0.  1.
          2    1    1    2  503    0  0.30291807817E+01  0.54621197022E+02  0.97276493455E+02  0.11160361678E+03  0.00000000000E+00 0. -1.
         -1    1    1    2    0  501  0.42540080045E+02  0.27029845810E+02  0.97624391169E+01  0.51337863144E+02  0.00000000000E+00 0.  1.
<mgrwt>
<rscale>  0 0.53194712E+02</rscale>
<asrwt>0</asrwt>
<pdfrwt beam="1">  1        2 0.27340616E-01 0.56143165E+02</pdfrwt>
<pdfrwt beam="2">  1       -1 0.26235254E-01 0.50401101E+02</pdfrwt>
<totfact> 0.26259670E+03</totfact>
</mgrwt>
</event>
<event>
 7    1  0.3113530E-004  0.1246702E+03  0.7546771E-02  0.1404322E+00
          2   -1    0    0  503    0  0.00000000000E+00  0.00000000000E+00  0.34259394806E+03  0.34259394806E+03  0.00000000000E+00 0. -1.
         -1   -1    0    0    0  501 -0.00000000000E+00 -0.00000000000E+00 -0.34760713505E+03  0.34760713505E+03  0.00000000000E+00 0.  1.
         25    2    1    2    0    0  0.40030723372E+02  0.13572709207E+03 -0.94879934700E+02  0.21131040427E+03  0.12500233042E+03 0.  0.
          4    1    3    3  502    0  0.80437724596E+01  0.90806106070E+02  0.11091123759E+02  0.91842675817E+02  0.12700000000E+01 0.  1.
         -4    1    3    3    0  502  0.31986950913E+02  0.44920985996E+02 -0.10597105846E+03  0.11946772846E+03  0.12700000000E+01 0.  1.
          2    1    1    2  503    0 -0.20995451672E+02 -0.17654994202E+02  0.26522051955E+03  0.26663539113E+03  0.00000000000E+00 0. -1.
         -1    1    1    2    0  501 -0.19035271700E+02 -0.11807209786E+03 -0.17535377183E+03  0.21225528771E+03  0.00000000000E+00 0.  1.
<mgrwt>
<rscale>  0 0.58480242E+02</rscale>
<asrwt>0</asrwt>
<pdfrwt beam="1">  1        2 0.52706761E-01 0.27431876E+02</pdfrwt>
<pdfrwt beam="2">  1       -1 0.53478021E-01 0.12467025E+03</pdfrwt>
<totfact> 0.39351291E+02</totfact>
</mgrwt>
</event>
<event>
 7    1  0.3113530E-004  0.1472654E+03  0.7546771E-02  0.1344108E+00
          3   -1    0    0  503    0  0.00000000000E+00  0.00000000000E+00  0.30557440172E+03  0.30557440172E+03  0.00000000000E+00 0. -1.
         -3   -1    0    0    0  501 -0.00000000000E+00 -0.00000000000E+00 -0.20961426500E+03  0.20961426500E+03  0.00000000000E+00 0.  1.
         25    2    1    2    0    0 -0.12371718515E+03  0.13344013051E+02  0.55771605647E+02  0.18498435454E+03  0.12499893936E+03 0.  0.
          4    1    3    3  502    0  0.13823969062E+01  0.26593886840E+02  0.52793782378E+02  0.59143403658E+02  0.12700000000E+01 0.  1.
         -4    1    3    3    0  502 -0.12509958206E+03 -0.13249873789E+02  0.29778232687E+01  0.12584095088E+03  0.12700000000E+01 0.  1.
          3    1    1    2  503    0  0.15991280274E+03 -0.13895922276E+01  0.14673933886E+03  0.21704024745E+03  0.00000000000E+00 0. -1.
         -3    1    1    2    0  501 -0.36195617585E+02 -0.11954420823E+02 -0.10655080777E+03  0.11316406473E+03  0.00000000000E+00 0.  1.
<mgrwt>
<rscale>  0 0.74923688E+02</rscale>
<asrwt>0</asrwt>
<pdfrwt beam="1">  1        3 0.47011446E-01 0.14726545E+03</pdfrwt>
<pdfrwt beam="2">  1       -3 0.32248348E-01 0.38118643E+02</pdfrwt>
<totfact> 0.90166081E+01</totfact>
</mgrwt>
</event>
<event>
 7    1  0.3113530E-004  0.9030962E+02  0.7546771E-02  0.1400651E+00
          1   -1    0    0  503    0 -0.00000000000E+00  0.00000000000E+00  0.49676235331E+03  0.49676235331E+03  0.00000000000E+00 0.  1.
          2   -1    0    0  502    0  0.00000000000E+00 -0.00000000000E+00 -0.57822797475E+03  0.57822797475E+03  0.00000000000E+00 0.  1.
         25    2    1    2    0    0 -0.41520696904E+02 -0.45301820345E+02 -0.91755551249E+02  0.16679532877E+03  0.12500150926E+03 0.  0.
          4    1    3    3  501    0  0.18244190740E+02  0.33957876711E+02 -0.36874603282E+02  0.53360445591E+02  0.12700000000E+01 0. -1.
         -4    1    3    3    0  501 -0.59764887644E+02 -0.79259697055E+02 -0.54880947967E+02  0.11343488318E+03  0.12700000000E+01 0. -1.
          2    1    1    2  502    0  0.42577523634E+02  0.84269370799E+02 -0.44314311790E+03  0.45308938999E+03  0.00000000000E+00 0.  1.
          1    1    1    2  503    0 -0.10568267302E+01 -0.38967550454E+02  0.45343304770E+03  0.45510560931E+03  0.00000000000E+00 0.  1.
<mgrwt>
<rscale>  0 0.59333284E+02</rscale>
<asrwt>0</asrwt>
<pdfrwt beam="2">  1        2 0.88958150E-01 0.90309617E+02</pdfrwt>
<pdfrwt beam="1">  1        1 0.76424978E-01 0.38981879E+02</pdfrwt>
<totfact> 0.35088570E+02</totfact>
</mgrwt>
</event>
<event>
 7    1  0.3113530E-004  0.3781640E+02  0.7546771E-02  0.1604581E+00
         -2   -1    0    0    0  501 -0.00000000000E+00  0.00000000000E+00  0.14812320124E+03  0.14812320124E+03  0.00000000000E+00 0.  1.
          1   -1    0    0  503    0  0.00000000000E+00 -0.00000000000E+00 -0.10304735105E+03  0.10304735105E+03  0.00000000000E+00 0. -1.
         25    2    1    2    0    0 -0.65915294924E+01  0.56254839335E+01  0.94602218883E+02  0.15699704610E+03  0.12499359318E+03 0.  0.
          4    1    3    3  502    0 -0.35527214830E+02 -0.35625510883E+02  0.59765217054E+00  0.50332197522E+02  0.12700000000E+01 0.  1.
         -4    1    3    3    0  502  0.28935685338E+02  0.41250994816E+02  0.94004566713E+02  0.10666484858E+03  0.12700000000E+01 0.  1.
          1    1    1    2  503    0 -0.32591258704E+02 -0.19180462155E+02 -0.30365601040E+02  0.48498969050E+02  0.00000000000E+00 0. -1.
         -2    1    1    2    0  501  0.39182788197E+02  0.13554978221E+02 -0.19160767656E+02  0.45674537136E+02  0.00000000000E+00 0.  1.
<mgrwt>
<rscale>  0 0.29420732E+02</rscale>
<asrwt>0</asrwt>
<pdfrwt beam="2">  1        1 0.15853439E-01 0.37816402E+02</pdfrwt>
<pdfrwt beam="1">  1       -2 0.22788185E-01 0.22888997E+02</pdfrwt>
<totfact> 0.42224021E+03</totfact>
</mgrwt>
</event>
<event>
 7    1  0.3113530E-004  0.1272552E+03  0.7546771E-02  0.1302272E+00
          1   -1    0    0  503    0 -0.00000000000E+00  0.00000000000E+00  0.86070380526E+03  0.86070380526E+03  0.00000000000E+00 0. -1.
          2   -1    0    0  502    0  0.00000000000E+00 -0.00000000000E+00 -0.54399350155E+03  0.54399350155E+03  0.00000000000E+00 0. -1.
         25    2    1    2    0    0  0.10368098785E+03 -0.14107542681E+03  0.70244454085E+02  0.22634586920E+03  0.12508455493E+03 0.  0.
          4    1    3    3  501    0  0.75474595336E+02 -0.12105597426E+03  0.10512158147E+03  0.17720926397E+03  0.12700000000E+01 0. -1.
         -4    1    3    3    0  501  0.28206392511E+02 -0.20019452544E+02 -0.34877127384E+02  0.49136605227E+02  0.12700000000E+01 0. -1.
          2    1    1    2  502    0 -0.44525402176E+02  0.11667210973E+03 -0.45609508766E+03  0.47288224921E+03  0.00000000000E+00 0. -1.
          1    1    1    2  503    0 -0.59155585672E+02  0.24403317076E+02  0.70256093728E+03  0.70546918841E+03  0.00000000000E+00 0. -1.
<mgrwt>
<rscale>  0 0.90239909E+02</rscale>
<asrwt>0</asrwt>
<pdfrwt beam="2">  1        2 0.83691308E-01 0.12725515E+03</pdfrwt>
<pdfrwt beam="1">  1        1 0.13241597E+00 0.63991446E+02</pdfrwt>
<totfact> 0.17428017E+02</totfact>
</mgrwt>
</event>
<event>
 7    1  0.3113530E-004  0.1325287E+03  0.7546771E-02  0.1289920E+00
          1   -1    0    0  503    0  0.00000000000E+00  0.00000000000E+00  0.35501508998E+04  0.35501508998E+04  0.00000000000E+00 0. -1.
         -1   -1    0    0    0  501 -0.00000000000E+00 -0.00000000000E+00 -0.52805968736E+03  0.52805968736E+03  0.00000000000E+00 0.  1.
         25    2    1    2    0    0  0.97338435181E+02  0.93038485194E+02  0.94904920532E+03  0.96666965469E+03  0.12499958591E+03 0.  0.
          4    1    3    3  502    0 -0.19533884260E+02  0.19365696087E+02  0.38356559789E+03  0.38455270588E+03  0.12700000000E+01 0.  1.
         -4    1    3    3    0  502  0.11687231944E+03  0.73672789106E+02  0.56548360744E+03  0.58211694881E+03  0.12700000000E+01 0.  1.
          1    1    1    2  503    0  0.31474805440E+02 -0.61294738463E+02  0.25833505778E+04  0.25842693196E+04  0.00000000000E+00 0. -1.
         -1    1    1    2    0  501 -0.12881324062E+03 -0.31743746731E+02 -0.51030857069E+03  0.52727161287E+03  0.00000000000E+00 0.  1.
<mgrwt>
<rscale>  0 0.95559979E+02</rscale>
<asrwt>0</asrwt>
<pdfrwt beam="1">  1        1 0.54617705E+00 0.68903616E+02</pdfrwt>
<pdfrwt beam="2">  1       -1 0.81239954E-01 0.13252874E+03</pdfrwt>
<totfact> 0.61412129E-01</totfact>
</mgrwt>
</event>
<event>
 7    1  0.3113530E-004  0.7077945E+02  0.7546771E-02  0.1486077E+00
          1   -1    0    0  503    0 -0.00000000000E+00  0.00000000000E+00  0.19089555892E+03  0.19089555892E+03  0.00000000000E+00 0. -1.
          2   -1    0    0  502    0  0.00000000000E+00 -0.00000000000E+00 -0.43343983785E+03  0.43343983785E+03  0.00000000000E+00 0. -1.
         25    2    1    2    0    0  0.51234046459E+02  0.75441245059E+02 -0.16067747278E+03  0.22306763846E+03  0.12500244837E+03 0.  0.
          4    1    3    3  501    0 -0.40290320381E+02  0.35549794284E+02 -0.43695403272E+02  0.69267589514E+02  0.12700000000E+01 0. -1.
         -4    1    3    3    0  501  0.91524366840E+02  0.39891450776E+02 -0.11698206951E+03  0.15380004895E+03  0.12700000000E+01 0. -1.
          2    1    1    2  502    0 -0.29050692020E+02 -0.61249112751E+02 -0.23567019607E+03  0.24522609533E+03  0.00000000000E+00 0. -1.
          1    1    1    2  503    0 -0.22183354439E+02 -0.14192132308E+02  0.15380338992E+03  0.15604166297E+03  0.00000000000E+00 0. -1.
<mgrwt>
<rscale>  0 0.43173574E+02</rscale>
<asrwt>0</asrwt>
<pdfrwt beam="2">  1        2 0.66683052E-01 0.70779450E+02</pdfrwt>
<pdfrwt beam="1">  1        1 0.29368548E-01 0.26334727E+02</pdfrwt>
<totfact> 0.14833771E+03</totfact>
</mgrwt>
</event>
<event>
 7    1  0.3113530E-004  0.7040388E+02  0.7546771E-02  0.1471615E+00
          2   -1    0    0  503    0  0.00000000000E+00  0.00000000000E+00  0.21997536033E+04  0.21997536033E+04  0.00000000000E+00 0. -1.
         -1   -1    0    0    0  501 -0.00000000000E+00 -0.00000000000E+00 -0.92453331168E+01  0.92453331168E+01  0.00000000000E+00 0.  1.
         25    2    1    2    0    0  0.64036472009E+02  0.50098565931E+02  0.82562664853E+03  0.83898441719E+03  0.12499981384E+03 0.  0.
          4    1    3    3  502    0  0.96285818513E+02  0.18211653062E+02  0.66080004447E+03  0.66802764526E+03  0.12700000000E+01 0. -1.
         -4    1    3    3    0  502 -0.32249346504E+02  0.31886912869E+02  0.16482660406E+03  0.17095677193E+03  0.12700000000E+01 0. -1.
          2    1    1    2  503    0 -0.15359729659E+01 -0.29287215008E+02  0.90118803881E+03  0.90166511603E+03  0.00000000000E+00 0. -1.
         -1    1    1    2    0  501 -0.62500499043E+02 -0.20811350922E+02  0.46369358282E+03  0.46834940318E+03  0.00000000000E+00 0.  1.
<mgrwt>
<rscale>  0 0.45439711E+02</rscale>
<asrwt>0</asrwt>
<pdfrwt beam="1">  1        2 0.33842322E+00 0.29327465E+02</pdfrwt>
<pdfrwt beam="2">  1       -1 0.14223607E-02 0.70403882E+02</pdfrwt>
<totfact> 0.81751324E+03</totfact>
</mgrwt>
</event>
<event>
 7    1  0.3113530E-004  0.5270185E+02  0.7546771E-02  0.1533305E+00
          1   -1    0    0  503    0  0.00000000000E+00  0.00000000000E+00  0.23181649344E+03  0.23181649344E+03  0.00000000000E+00 0. -1.
         -2   -1    0    0    0  501 -0.00000000000E+00 -0.00000000000E+00 -0.52551777494E+02  0.52551777494E+02  0.00000000000E+00 0.  1.
         25    2    1    2    0    0  0.35956299721E+01  0.38922775578E+02  0.12320988913E+03  0.17981329160E+03  0.12499692814E+03 0.  0.
          4    1    3    3  502    0 -0.37280467018E+02 -0.49115326380E+01  0.11287411703E+03  0.11897955946E+03  0.12700000000E+01 0.  1.
         -4    1    3    3    0  502  0.40876096990E+02  0.43834308216E+02  0.10335772107E+02  0.60833732147E+02  0.12700000000E+01 0.  1.
          1    1    1    2  503    0 -0.20444213068E+02  0.15530367345E+02  0.35817836983E+02  0.44068986872E+02  0.00000000000E+00 0. -1.
         -2    1    1    2    0  501  0.16848583096E+02 -0.54453142923E+02  0.20236989831E+02  0.60485992460E+02  0.00000000000E+00 0.  1.
<mgrwt>
<rscale>  0 0.36784119E+02</rscale>
<asrwt>0</asrwt>
<pdfrwt beam="1">  1        1 0.35664075E-01 0.25674076E+02</pdfrwt>
<pdfrwt beam="2">  1       -2 0.80848890E-02 0.52701854E+02</pdfrwt>
<totfact> 0.84736853E+03</totfact>
</mgrwt>
</event>
<event>
 7    1  0.3113530E-004  0.7603058E+02  0.7546771E-02  0.1398773E+00
         -1   -1    0    0    0  501 -0.00000000000E+00  0.00000000000E+00  0.24727564612E+03  0.24727564612E+03  0.00000000000E+00 0.  1.
          3   -1    0    0  503    0  0.00000000000E+00 -0.00000000000E+00 -0.30465737387E+03  0.30465737387E+03  0.00000000000E+00 0. -1.
         25    2    1    2    0    0  0.23085668111E+02 -0.42641075429E+02 -0.65600458997E+02  0.14926459956E+03  0.12500116429E+03 0.  0.
          4    1    3    3  502    0 -0.45451245867E+02 -0.41659746037E+02 -0.48902574566E+02  0.78704668794E+02  0.12700000000E+01 0.  1.
         -4    1    3    3    0  502  0.68536913978E+02 -0.98132939155E+00 -0.16697884432E+02  0.70559930764E+02  0.12700000000E+01 0.  1.
          3    1    1    2  503    0 -0.30759950812E+02 -0.35532370737E+02 -0.18669654970E+03  0.19252097447E+03  0.00000000000E+00 0. -1.
         -1    1    1    2    0  501  0.76742827011E+01  0.78173446165E+02  0.19491528094E+03  0.21014744596E+03  0.00000000000E+00 0.  1.
<mgrwt>
<rscale>  0 0.59776364E+02</rscale>
<asrwt>0</asrwt>
<pdfrwt beam="2">  1        3 0.46870365E-01 0.46997063E+02</pdfrwt>
<pdfrwt beam="1">  1       -1 0.38042407E-01 0.76030575E+02</pdfrwt>
<totfact> 0.12812640E+02</totfact>
</mgrwt>
</event>
<event>
 7    1  0.3113530E-004  0.5613035E+02  0.7546771E-02  0.1431048E+00
         -1   -1    0    0    0  501 -0.00000000000E+00  0.00000000000E+00  0.22269811579E+03  0.22269811579E+03  0.00000000000E+00 0.  1.
          2   -1    0    0  503    0  0.00000000000E+00 -0.00000000000E+00 -0.97362923069E+03  0.97362923069E+03  0.00000000000E+00 0. -1.
         25    2    1    2    0    0 -0.35208605965E+02  0.10116349236E+01 -0.13483722456E+03  0.18720835403E+03  0.12500088540E+03 0.  0.
          4    1    3    3  502    0 -0.87410495939E+01  0.25861392019E+02  0.16263985027E+02  0.31801692630E+02  0.12700000000E+01 0.  1.
         -4    1    3    3    0  502 -0.26467556371E+02 -0.24849757096E+02 -0.15110120959E+03  0.15540666140E+03  0.12700000000E+01 0.  1.
          2    1    1    2  503    0  0.76023071023E+01  0.48987375683E+02 -0.80768048823E+03  0.80920042580E+03  0.00000000000E+00 0. -1.
         -1    1    1    2    0  501  0.27606298863E+02 -0.49999010606E+02  0.19158659790E+03  0.19991856665E+03  0.00000000000E+00 0.  1.
<mgrwt>
<rscale>  0 0.52750286E+02</rscale>
<asrwt>0</asrwt>
<pdfrwt beam="2">  1        2 0.14978911E+00 0.49573764E+02</pdfrwt>
<pdfrwt beam="1">  1       -1 0.34261249E-01 0.56130350E+02</pdfrwt>
<totfact> 0.27182257E+02</totfact>
</mgrwt>
</event>
<event>
 7    1  0.3113530E-004  0.1091971E+03  0.7546771E-02  0.1395492E+00
          2   -1    0    0  503    0  0.00000000000E+00  0.00000000000E+00  0.33694948057E+03  0.33694948057E+03  0.00000000000E+00 0. -1.
         -1   -1    0    0    0  501 -0.00000000000E+00 -0.00000000000E+00 -0.73919471225E+03  0.73919471225E+03  0.00000000000E+00 0.  1.
         25    2    1    2    0    0  0.74178305800E+02 -0.19937180886E+02  0.17005787187E+03  0.22460039150E+03  0.12500297535E+03 0.  0.
          4    1    3    3  502    0 -0.32784400084E+01 -0.55053557748E+02  0.36121441018E+02  0.65939470659E+02  0.12700000000E+01 0. -1.
         -4    1    3    3    0  502  0.77456745808E+02  0.35116376861E+02  0.13393643085E+03  0.15866092085E+03  0.12700000000E+01 0. -1.
          2    1    1    2  503    0  0.29952353517E+02 -0.15197847790E+02  0.13328324321E+03  0.13745013997E+03  0.00000000000E+00 0. -1.
         -1    1    1    2    0  501 -0.10413065932E+03  0.35135028676E+02 -0.70558634676E+03  0.71409366135E+03  0.00000000000E+00 0.  1.
<mgrwt>
<rscale>  0 0.60561157E+02</rscale>
<asrwt>0</asrwt>
<pdfrwt beam="1">  1        2 0.51838382E-01 0.33587469E+02</pdfrwt>
<pdfrwt beam="2">  1       -1 0.11372226E+00 0.10919709E+03</pdfrwt>
<totfact> 0.86413675E+01</totfact>
</mgrwt>
</event>
<event>
 7    1  0.3113530E-004  0.1060473E+03  0.7546771E-02  0.1343269E+00
          1   -1    0    0  503    0  0.00000000000E+00  0.00000000000E+00  0.33612466258E+03  0.33612466258E+03  0.00000000000E+00 0. -1.
         -1   -1    0    0    0  501 -0.00000000000E+00 -0.00000000000E+00 -0.44417755718E+03  0.44417755718E+03  0.00000000000E+00 0.  1.
         25    2    1    2    0    0 -0.48715306583E+02  0.95106059434E+02 -0.31419523555E+02  0.16742277631E+03  0.12499942372E+03 0.  0.
          4    1    3    3  502    0 -0.14203713924E+02  0.45621375305E+02 -0.77802767869E+02  0.91312315500E+02  0.12700000000E+01 0.  1.
         -4    1    3    3    0  502 -0.34511592659E+02  0.49484684129E+02  0.46383244314E+02  0.76110460807E+02  0.12700000000E+01 0.  1.
          1    1    1    2  503    0 -0.40271797083E+02 -0.34942770056E+02  0.25695232357E+03  0.26242582077E+03  0.00000000000E+00 0. -1.
         -1    1    1    2    0  501  0.88987103667E+02 -0.60163289378E+02 -0.33358569461E+03  0.35045362269E+03  0.00000000000E+00 0.  1.
<mgrwt>
<rscale>  0 0.75194635E+02</rscale>
<asrwt>0</asrwt>
<pdfrwt beam="1">  1        1 0.51711487E-01 0.53318053E+02</pdfrwt>
<pdfrwt beam="2">  1       -1 0.68335008E-01 0.10604725E+03</pdfrwt>
<totfact> 0.17744612E+02</totfact>
</mgrwt>
</event>
<event>
 7    1  0.3113530E-004  0.1761338E+03  0.7546771E-02  0.1338593E+00
          2   -1    0    0  503    0  0.00000000000E+00  0.00000000000E+00  0.10293650688E+04  0.10293650688E+04  0.00000000000E+00 0. -1.
          2   -1    0    0  502    0 -0.00000000000E+00 -0.00000000000E+00 -0.11625785935E+04  0.11625785935E+04  0.00000000000E+00 0. -1.
         25    2    1    2    0    0  0.10172229213E+03 -0.11011890636E+03  0.37991811948E+02  0.19885140122E+03  0.12499961494E+03 0.  0.
          4    1    3    3  501    0  0.74739103005E+02 -0.50486281193E+02  0.80414252683E+02  0.12084230650E+03  0.12700000000E+01 0. -1.
         -4    1    3    3    0  501  0.26983189123E+02 -0.59632625170E+02 -0.42422440735E+02  0.78009094712E+02  0.12700000000E+01 0. -1.
          2    1    1    2  502    0 -0.10517256464E+03  0.14336752919E+03 -0.10745337045E+04  0.10891456280E+04  0.00000000000E+00 0. -1.
          2    1    1    2  503    0  0.34502725116E+01 -0.33248622826E+02  0.90332836789E+03  0.90394663312E+03  0.00000000000E+00 0. -1.
<mgrwt>
<rscale>  0 0.76731054E+02</rscale>
<asrwt>0</asrwt>
<pdfrwt beam="1">  1        2 0.15836386E+00 0.33427164E+02</pdfrwt>
<pdfrwt beam="2">  1        2 0.17885824E+00 0.17613383E+03</pdfrwt>
<totfact> 0.94889828E+01</totfact>
</mgrwt>
</event>
<event>
 7    1  0.3113530E-004  0.5996875E+02  0.7546771E-02  0.1417855E+00
          1   -1    0    0  503    0  0.00000000000E+00  0.00000000000E+00  0.15978293622E+03  0.15978293622E+03  0.00000000000E+00 0. -1.
          1   -1    0    0  502    0 -0.00000000000E+00 -0.00000000000E+00 -0.27540875550E+03  0.27540875550E+03  0.00000000000E+00 0. -1.
         25    2    1    2    0    0  0.24784921098E+02 -0.58551095657E+02 -0.50933867550E+01  0.14033973063E+03  0.12500709695E+03 0.  0.
          4    1    3    3  501    0 -0.47126980042E+02 -0.17143290308E+02 -0.23399768481E+02  0.55353470672E+02  0.12700000000E+01 0. -1.
         -4    1    3    3    0  501  0.71911901140E+02 -0.41407805349E+02  0.18306381726E+02  0.84986259955E+02  0.12700000000E+01 0. -1.
          1    1    1    2  502    0  0.26423946570E+02  0.55141958564E+02 -0.19036578994E+03  0.19994497874E+03  0.00000000000E+00 0. -1.
          1    1    1    2  503    0 -0.51208867668E+02  0.34091370934E+01  0.79833357407E+02  0.94906982348E+02  0.00000000000E+00 0. -1.
<mgrwt>
<rscale>  0 0.55477285E+02</rscale>
<asrwt>0</asrwt>
<pdfrwt beam="1">  1        1 0.24581990E-01 0.51322221E+02</pdfrwt>
<pdfrwt beam="2">  1        1 0.42370577E-01 0.59968745E+02</pdfrwt>
<totfact> 0.21666111E+03</totfact>
</mgrwt>
</event>
<event>
 7    1  0.3113530E-004  0.9474222E+02  0.7546771E-02  0.1428814E+00
          2   -1    0    0  502    0  0.00000000000E+00  0.00000000000E+00  0.10574205988E+04  0.10574205988E+04  0.00000000000E+00 0. -1.
          1   -1    0    0  503    0 -0.00000000000E+00 -0.00000000000E+00 -0.68409159192E+03  0.68409159192E+03  0.00000000000E+00 0. -1.
         25    2    1    2    0    0  0.61122584393E+02 -0.10369019073E+03 -0.28431399078E+03  0.33308730781E+03  0.12500033318E+03 0.  0.
          4    1    3    3  501    0  0.67073513247E+02 -0.21128750025E+02 -0.54993572976E+02  0.89281499907E+02  0.12700000000E+01 0. -1.
         -4    1    3    3    0  501 -0.59509288540E+01 -0.82561440708E+02 -0.22932041781E+03  0.24380580791E+03  0.12700000000E+01 0. -1.
          2    1    1    2  502    0 -0.59021469085E+02  0.73892527822E+02  0.10302705708E+04  0.10346018986E+04  0.00000000000E+00 0. -1.
          1    1    1    2  503    0 -0.21011153083E+01  0.29797662912E+02 -0.37262757310E+03  0.37382298436E+03  0.00000000000E+00 0. -1.
<mgrwt>
<rscale>  0 0.53198744E+02</rscale>
<asrwt>0</asrwt>
<pdfrwt beam="1">  1        2 0.16268009E+00 0.94742223E+02</pdfrwt>
<pdfrwt beam="2">  1        1 0.10524486E+00 0.29871649E+02</pdfrwt>
<totfact> 0.11211327E+02</totfact>
</mgrwt>
</event>
<event>
 7    1  0.3113530E-004  0.8830878E+02  0.7546771E-02  0.1468850E+00
          2   -1    0    0  502    0  0.00000000000E+00  0.00000000000E+00  0.66147665488E+03  0.66147665488E+03  0.00000000000E+00 0. -1.
          2   -1    0    0  503    0 -0.00000000000E+00 -0.00000000000E+00 -0.27037805591E+03  0.27037805591E+03  0.00000000000E+00 0. -1.
         25    2    1    2    0    0  0.17840576719E+02 -0.86682188835E+02 -0.86015364228E+02  0.17566175256E+03  0.12500528145E+03 0.  0.
          4    1    3    3  501    0  0.19934710599E+02 -0.11716632715E+03 -0.51465239130E+02  0.12952074986E+03  0.12700000000E+01 0.  1.
         -4    1    3    3    0  501 -0.20941338800E+01  0.30484138319E+02 -0.34550125099E+02  0.46141002700E+02  0.12700000000E+01 0.  1.
          2    1    1    2  502    0 -0.40298965446E+02  0.78658002187E+02  0.61243866161E+03  0.61878283926E+03  0.00000000000E+00 0. -1.
          2    1    1    2  503    0  0.22458388727E+02  0.80241866474E+01 -0.13532469842E+03  0.13741011898E+03  0.00000000000E+00 0. -1.
<mgrwt>
<rscale>  0 0.45891843E+02</rscale>
<asrwt>0</asrwt>
<pdfrwt beam="1">  1        2 0.10176564E+00 0.88308781E+02</pdfrwt>
<pdfrwt beam="2">  1        2 0.41596624E-01 0.23848832E+02</pdfrwt>
<totfact> 0.85112774E+02</totfact>
</mgrwt>
</event>
<event>
 7    1  0.3113530E-004  0.4596259E+02  0.7546771E-02  0.1495862E+00
         -1   -1    0    0    0  501 -0.00000000000E+00  0.00000000000E+00  0.44094800355E+03  0.44094800355E+03  0.00000000000E+00 0.  1.
          1   -1    0    0  503    0  0.00000000000E+00 -0.00000000000E+00 -0.31795986834E+03  0.31795986834E+03  0.00000000000E+00 0. -1.
         25    2    1    2    0    0  0.38604327179E+02 -0.72464411031E+02  0.89850808267E+02  0.17446541768E+03  0.12499451699E+03 0.  0.
          4    1    3    3  502    0  0.56683298395E+02  0.12767159469E+02  0.16096569079E+02  0.60305133397E+02  0.12700000000E+01 0.  1.
         -4    1    3    3    0  502 -0.18078971216E+02 -0.85231570500E+02  0.73754239188E+02  0.11416028429E+03  0.12700000000E+01 0.  1.
          1    1    1    2  503    0 -0.21156982351E+02  0.31426757178E+02 -0.27272642365E+03  0.27534516725E+03  0.00000000000E+00 0. -1.
         -1    1    1    2    0  501 -0.17447344828E+02  0.41037653853E+02  0.30586375060E+03  0.30909728696E+03  0.00000000000E+00 0.  1.
<mgrwt>
<rscale>  0 0.41728695E+02</rscale>
<asrwt>0</asrwt>
<pdfrwt beam="2">  1        1 0.48916903E-01 0.37884812E+02</pdfrwt>
<pdfrwt beam="1">  1       -1 0.67838155E-01 0.45962588E+02</pdfrwt>
<totfact> 0.19541605E+02</totfact>
</mgrwt>
</event>
<event>
 7    1  0.3113530E-004  0.5422872E+02  0.7546771E-02  0.1432298E+00
          1   -1    0    0  503    0  0.00000000000E+00  0.00000000000E+00  0.15791238494E+03  0.15791238494E+03  0.00000000000E+00 0. -1.
         -1   -1    0    0    0  501 -0.00000000000E+00 -0.00000000000E+00 -0.11233381516E+03  0.11233381516E+03  0.00000000000E+00 0.  1.
         25    2    1    2    0    0  0.62071275808E+02  0.40834708256E+01 -0.20671580901E+02  0.14114248754E+03  0.12499747805E+03 0.  0.
          4    1    3    3  502    0 -0.23483805853E+01 -0.48687029982E+02 -0.30137708441E+02  0.57322213407E+02  0.12700000000E+01 0. -1.
         -4    1    3    3    0  502  0.64419656393E+02  0.52770500807E+02  0.94661275397E+01  0.83820274134E+02  0.12700000000E+01 0. -1.
          1    1    1    2  503    0 -0.22442545997E+02 -0.45606499183E+02  0.17379395589E+02  0.53718377019E+02  0.00000000000E+00 0. -1.
         -1    1    1    2    0  501 -0.39628729810E+02  0.41523028357E+02  0.48870755092E+02  0.75385335534E+02  0.00000000000E+00 0.  1.
<mgrwt>
<rscale>  0 0.52501516E+02</rscale>
<asrwt>0</asrwt>
<pdfrwt beam="1">  1        1 0.24294213E-01 0.50829329E+02</pdfrwt>
<pdfrwt beam="2">  1       -1 0.17282125E-01 0.54228715E+02</pdfrwt>
<totfact> 0.45335528E+03</totfact>
</mgrwt>
</event>
<event>
 7    1  0.3113530E-004  0.9286017E+02  0.7546771E-02  0.1446183E+00
         -1   -1    0    0    0  501 -0.00000000000E+00  0.00000000000E+00  0.27161820446E+03  0.27161820446E+03  0.00000000000E+00 0.  1.
          1   -1    0    0  503    0  0.00000000000E+00 -0.00000000000E+00 -0.13560141660E+03  0.13560141660E+03  0.00000000000E+00 0. -1.
         25    2    1    2    0    0  0.83763050162E+02 -0.42398854017E+02 -0.63677499804E+02  0.16880275288E+03  0.12500253599E+03 0.  0.
          4    1    3    3  502    0  0.72643124927E+02 -0.81366297295E+02 -0.67177512257E+02  0.12810905115E+03  0.12700000000E+01 0.  1.
         -4    1    3    3    0  502  0.11119925235E+02  0.38967443278E+02  0.35000124523E+01  0.40693701724E+02  0.12700000000E+01 0.  1.
          1    1    1    2  503    0 -0.67795505054E+02  0.63866378200E+02  0.10661858066E+03  0.14157212477E+03  0.00000000000E+00 0. -1.
         -1    1    1    2    0  501 -0.15967545107E+02 -0.21467524184E+02  0.93075707008E+02  0.96844743411E+02  0.00000000000E+00 0.  1.
<mgrwt>
<rscale>  0 0.49844270E+02</rscale>
<asrwt>0</asrwt>
<pdfrwt beam="2">  1        1 0.20861756E-01 0.92860166E+02</pdfrwt>
<pdfrwt beam="1">  1       -1 0.41787416E-01 0.26754758E+02</pdfrwt>
<totfact> 0.13238697E+03</totfact>
</mgrwt>
</event>
<event>
 7    1  0.3113530E-004  0.1370888E+03  0.7546771E-02  0.1378305E+00
         -1   -1    0    0    0  501  0.00000000000E+00  0.00000000000E+00  0.87611293410E+03  0.87611293410E+03  0.00000000000E+00 0.  1.
         -3   -1    0    0    0  502 -0.00000000000E+00 -0.00000000000E+00 -0.31435948681E+04  0.31435948681E+04  0.00000000000E+00 0.  1.
         25    2    1    2    0    0  0.10523470204E+03  0.21003854407E+02 -0.40072935104E+02  0.16954847422E+03  0.12500136228E+03 0.  0.
          4    1    3    3  503    0  0.26871707539E+02  0.37271441795E+01  0.45021469740E+02  0.52578759089E+02  0.12700000000E+01 0.  1.
         -4    1    3    3    0  503  0.78362994497E+02  0.17276710227E+02 -0.85094404844E+02  0.11696971513E+03  0.12700000000E+01 0.  1.
         -1    1    1    2    0  501  0.30687283979E+02  0.17225342152E+01  0.80952097292E+03  0.81010424151E+03  0.00000000000E+00 0.  1.
         -3    1    1    2    0  502 -0.13592198601E+03 -0.22726388622E+02 -0.30369299718E+04  0.30400550864E+04  0.00000000000E+00 0.  1.
<mgrwt>
<rscale>  0 0.64911526E+02</rscale>
<asrwt>0</asrwt>
<pdfrwt beam="1">  1       -1 0.13478661E+00 0.30735590E+02</pdfrwt>
<pdfrwt beam="2">  1       -3 0.48362998E+00 0.13708883E+03</pdfrwt>
<totfact> 0.13142394E-02</totfact>
</mgrwt>
</event>
<event>
 7    1  0.3113530E-004  0.1479532E+03  0.7546771E-02  0.1390630E+00
         -3   -1    0    0    0  501 -0.00000000000E+00  0.00000000000E+00  0.16077731427E+03  0.16077731427E+03  0.00000000000E+00 0.  1.
          2   -1    0    0  503    0  0.00000000000E+00 -0.00000000000E+00 -0.14899475470E+04  0.14899475470E+04  0.00000000000E+00 0. -1.
         25    2    1    2    0    0 -0.15917989439E+03  0.55635623282E+02 -0.75141492403E+03  0.78018132843E+03  0.12499982327E+03 0.  0.
          4    1    3    3  502    0 -0.11290520622E+03  0.10663238354E+02 -0.24869201794E+03  0.27333244032E+03  0.12700000000E+01 0. -1.
         -4    1    3    3    0  502 -0.46274688174E+02  0.44972384927E+02 -0.50272290609E+03  0.50684888811E+03  0.12700000000E+01 0. -1.
          2    1    1    2  503    0  0.16664270817E+02 -0.19660102257E+02 -0.68695161121E+03  0.68743489414E+03  0.00000000000E+00 0. -1.
         -3    1    1    2    0  501  0.14251562357E+03 -0.35975521024E+02  0.10919630252E+03  0.18310863868E+03  0.00000000000E+00 0.  1.
<mgrwt>
<rscale>  0 0.61750391E+02</rscale>
<asrwt>0</asrwt>
<pdfrwt beam="2">  1        2 0.22922270E+00 0.25772418E+02</pdfrwt>
<pdfrwt beam="1">  1       -3 0.24734971E-01 0.14795316E+03</pdfrwt>
<totfact> 0.15598383E+02</totfact>
</mgrwt>
</event>
<event>
 7    1  0.3113530E-004  0.3174632E+02  0.7546771E-02  0.1591868E+00
         -1   -1    0    0    0  501 -0.00000000000E+00  0.00000000000E+00  0.40641493489E+01  0.40641493489E+01  0.00000000000E+00 0.  1.
          2   -1    0    0  503    0  0.00000000000E+00 -0.00000000000E+00 -0.26982916213E+04  0.26982916213E+04  0.00000000000E+00 0. -1.
         25    2    1    2    0    0 -0.34506009170E+00  0.68699532383E+01 -0.13034071918E+04  0.13094054064E+04  0.12499958069E+03 0.  0.
          4    1    3    3  502    0  0.41652458742E+02 -0.12056442246E+02 -0.18379225112E+03  0.18884249943E+03  0.12700000000E+01 0. -1.
         -4    1    3    3    0  502 -0.41997518834E+02  0.18926395484E+02 -0.11196149407E+04  0.11205629069E+04  0.12700000000E+01 0. -1.
          2    1    1    2  503    0 -0.22163988543E+02 -0.25842124549E+02 -0.11232040556E+04  0.11237198977E+04  0.00000000000E+00 0. -1.
         -1    1    1    2    0  501  0.22509048634E+02  0.18972171311E+02 -0.26761622450E+03  0.26923046665E+03  0.00000000000E+00 0.  1.
<mgrwt>
<rscale>  0 0.30570424E+02</rscale>
<asrwt>0</asrwt>
<pdfrwt beam="2">  1        2 0.41512248E+00 0.31746323E+02</pdfrwt>
<pdfrwt beam="1">  1       -1 0.62525270E-03 0.29438080E+02</pdfrwt>
<totfact> 0.11995790E+04</totfact>
</mgrwt>
</event>
<event>
 7    1  0.3113530E-004  0.3492004E+02  0.7546771E-02  0.1579796E+00
          2   -1    0    0  503    0  0.00000000000E+00  0.00000000000E+00  0.51918395990E+03  0.51918395990E+03  0.00000000000E+00 0. -1.
         -1   -1    0    0    0  501 -0.00000000000E+00 -0.00000000000E+00 -0.21413443615E+02  0.21413443615E+02  0.00000000000E+00 0.  1.
         25    2    1    2    0    0 -0.69489108046E+00  0.18010210899E+02  0.33042431768E+03  0.35373876637E+03  0.12500413813E+03 0.  0.
          4    1    3    3  502    0 -0.51284510093E+02  0.34753857992E+02  0.10343696395E+03  0.12057673918E+03  0.12700000000E+01 0.  1.
         -4    1    3    3    0  502  0.50589619013E+02 -0.16743647092E+02  0.22698735373E+03  0.23316202719E+03  0.12700000000E+01 0.  1.
          2    1    1    2  503    0  0.34756541803E+02 -0.33751621839E+01  0.35089762539E+02  0.49504548810E+02  0.00000000000E+00 0. -1.
         -1    1    1    2    0  501 -0.34061650723E+02 -0.14635048716E+02  0.13225643607E+03  0.13735408833E+03  0.00000000000E+00 0.  1.
<mgrwt>
<rscale>  0 0.31722292E+02</rscale>
<asrwt>0</asrwt>
<pdfrwt beam="1">  1        2 0.79874446E-01 0.34920036E+02</pdfrwt>
<pdfrwt beam="2">  1       -1 0.32943763E-02 0.28817376E+02</pdfrwt>
<totfact> 0.17593025E+04</totfact>
</mgrwt>
</event>
<event>
 7    1  0.3113530E-004  0.4923847E+02  0.7546771E-02  0.1482679E+00
         -1   -1    0    0    0  501 -0.00000000000E+00  0.00000000000E+00  0.29768950715E+02  0.29768950715E+02  0.00000000000E+00 0.  1.
          2   -1    0    0  503    0  0.00000000000E+00 -0.00000000000E+00 -0.62032468661E+03  0.62032468661E+03  0.00000000000E+00 0. -1.
         25    2    1    2    0    0 -0.40800917495E+02  0.73964004182E+02 -0.38544236306E+03  0.41391806870E+03  0.12500785405E+03 0.  0.
          4    1    3    3  502    0 -0.92897511593E+00  0.35786630515E+02 -0.14105514838E+02  0.38498368371E+02  0.12700000000E+01 0.  1.
         -4    1    3    3    0  502 -0.39871942379E+02  0.38177373667E+02 -0.37133684822E+03  0.37541970033E+03  0.12700000000E+01 0.  1.
          2    1    1    2  503    0  0.16823952449E+02 -0.34929076920E+02 -0.17960509085E+03  0.18374186907E+03  0.00000000000E+00 0. -1.
         -1    1    1    2    0  501  0.23976965046E+02 -0.39034927262E+02 -0.25508281991E+02  0.52433699558E+02  0.00000000000E+00 0.  1.
<mgrwt>
<rscale>  0 0.43691625E+02</rscale>
<asrwt>0</asrwt>
<pdfrwt beam="2">  1        2 0.95434561E-01 0.38769650E+02</pdfrwt>
<pdfrwt beam="1">  1       -1 0.45798388E-02 0.49238465E+02</pdfrwt>
<totfact> 0.98242664E+03</totfact>
</mgrwt>
</event>
<event>
 7    1  0.3113530E-004  0.5819279E+02  0.7546771E-02  0.1534072E+00
          2   -1    0    0  503    0  0.00000000000E+00  0.00000000000E+00  0.95617881582E+03  0.95617881582E+03  0.00000000000E+00 0. -1.
         -1   -1    0    0    0  501 -0.00000000000E+00 -0.00000000000E+00 -0.13015308963E+02  0.13015308963E+02  0.00000000000E+00 0.  1.
         25    2    1    2    0    0  0.42971880907E+02  0.25889654759E+01  0.54508553773E+03  0.56088923728E+03  0.12500083104E+03 0.  0.
          4    1    3    3  502    0  0.66729754032E+02  0.14311416029E+02  0.14871186831E+03  0.16362918254E+03  0.12700000000E+01 0. -1.
         -4    1    3    3    0  502 -0.23757873125E+02 -0.11722450553E+02  0.39637366943E+03  0.39726005475E+03  0.12700000000E+01 0. -1.
          2    1    1    2  503    0  0.22062776549E+02 -0.69605430593E+01  0.15154655722E+03  0.15330223180E+03  0.00000000000E+00 0. -1.
         -1    1    1    2    0  501 -0.65034657456E+02  0.43715775834E+01  0.24653141191E+03  0.25500265571E+03  0.00000000000E+00 0.  1.
<mgrwt>
<rscale>  0 0.36691605E+02</rscale>
<asrwt>0</asrwt>
<pdfrwt beam="1">  1        2 0.14710438E+00 0.23134720E+02</pdfrwt>
<pdfrwt beam="2">  1       -1 0.20023560E-02 0.58192788E+02</pdfrwt>
<totfact> 0.20196257E+04</totfact>
</mgrwt>
</event>
<event>
 7    1  0.3113530E-004  0.1188005E+03  0.7546771E-02  0.1263614E+00
          2   -1    0    0  503    0  0.00000000000E+00  0.00000000000E+00  0.46094825542E+03  0.46094825542E+03  0.00000000000E+00 0. -1.
         -1   -1    0    0    0  501 -0.00000000000E+00 -0.00000000000E+00 -0.39880769295E+03  0.39880769295E+03  0.00000000000E+00 0.  1.
         25    2    1    2    0    0 -0.17098493822E+03 -0.42198927024E+02 -0.21139713219E+03  0.30220891429E+03  0.12499952735E+03 0.  0.
          4    1    3    3  502    0 -0.12069476242E+03  0.30945936586E+02 -0.14601856433E+03  0.19195809620E+03  0.12700000000E+01 0. -1.
         -4    1    3    3    0  502 -0.50290175792E+02 -0.73144863610E+02 -0.65378567867E+02  0.11025081809E+03  0.12700000000E+01 0. -1.
          2    1    1    2  503    0  0.81741236569E+02  0.84727938808E+02  0.38848689069E+03  0.40593412964E+03  0.00000000000E+00 0. -1.
         -1    1    1    2    0  501  0.89243701648E+02 -0.42529011783E+02 -0.11494919602E+03  0.15161290444E+03  0.00000000000E+00 0.  1.
<mgrwt>
<rscale>  0 0.10837219E+03</rscale>
<asrwt>0</asrwt>
<pdfrwt beam="1">  1        2 0.70915116E-01 0.11880052E+03</pdfrwt>
<pdfrwt beam="2">  1       -1 0.61355030E-01 0.98859269E+02</pdfrwt>
<totfact> 0.22428876E+02</totfact>
</mgrwt>
</event>
<event>
 7    1  0.3113530E-004  0.6396100E+02  0.7546771E-02  0.1432230E+00
         -2   -1    0    0    0  501 -0.00000000000E+00  0.00000000000E+00  0.28831157986E+02  0.28831157986E+02  0.00000000000E+00 0.  1.
          2   -1    0    0  503    0  0.00000000000E+00 -0.00000000000E+00 -0.72878611667E+03  0.72878611667E+03  0.00000000000E+00 0. -1.
         25    2    1    2    0    0 -0.96192647106E+02 -0.12537557767E+02 -0.35636418083E+03  0.38991190525E+03  0.12500259505E+03 0.  0.
          4    1    3    3  502    0  0.19033039183E+02  0.28268254998E+02 -0.10499187302E+03  0.11039138155E+03  0.12700000000E+01 0. -1.
         -4    1    3    3    0  502 -0.11522568629E+03 -0.40805812765E+02 -0.25137230781E+03  0.27952052370E+03  0.12700000000E+01 0. -1.
          2    1    1    2  503    0  0.42463830294E+02 -0.74782752867E+01 -0.27475959848E+03  0.27812216460E+03  0.00000000000E+00 0. -1.
         -2    1    1    2    0  501  0.53728816812E+02  0.20015833054E+02 -0.68831179381E+02  0.89583204809E+02  0.00000000000E+00 0.  1.
<mgrwt>
<rscale>  0 0.52515002E+02</rscale>
<asrwt>0</asrwt>
<pdfrwt beam="2">  1        2 0.11212094E+00 0.43117299E+02</pdfrwt>
<pdfrwt beam="1">  1       -2 0.44355628E-02 0.63960997E+02</pdfrwt>
<totfact> 0.86566349E+03</totfact>
</mgrwt>
</event>
<event>
 7    1  0.3113530E-004  0.4921626E+02  0.7546771E-02  0.1486797E+00
         -1   -1    0    0    0  501 -0.00000000000E+00  0.00000000000E+00  0.15341137406E+02  0.15341137406E+02  0.00000000000E+00 0.  1.
          1   -1    0    0  503    0  0.00000000000E+00 -0.00000000000E+00 -0.10019151001E+04  0.10019151001E+04  0.00000000000E+00 0. -1.
         25    2    1    2    0    0  0.38542082507E+02 -0.30768392859E+02 -0.68644429760E+03  0.69947378774E+03  0.12500247959E+03 0.  0.
          4    1    3    3  502    0  0.39099049325E+02 -0.76138392320E+02 -0.51779373092E+03  0.52482163744E+03  0.12700000000E+01 0.  1.
         -4    1    3    3    0  502 -0.55696681845E+00  0.45369999461E+02 -0.16865056668E+03  0.17465215030E+03  0.12700000000E+01 0.  1.
          1    1    1    2  503    0 -0.53247425776E+02 -0.39260436304E+01 -0.24663661556E+03  0.25234960334E+03  0.00000000000E+00 0. -1.
         -1    1    1    2    0  501  0.14705343269E+02  0.34694436489E+02 -0.53493049559E+02  0.65432846454E+02  0.00000000000E+00 0.  1.
<mgrwt>
<rscale>  0 0.43064823E+02</rscale>
<asrwt>0</asrwt>
<pdfrwt beam="2">  1        1 0.15414088E+00 0.49216264E+02</pdfrwt>
<pdfrwt beam="1">  1       -1 0.23601735E-02 0.37682238E+02</pdfrwt>
<totfact> 0.74432283E+03</totfact>
</mgrwt>
</event>
<event>
 7    1  0.3113530E-004  0.1718506E+03  0.7546771E-02  0.1313965E+00
          2   -1    0    0  503    0  0.00000000000E+00  0.00000000000E+00  0.24573684026E+04  0.24573684026E+04  0.00000000000E+00 0. -1.
         -2   -1    0    0    0  501 -0.00000000000E+00 -0.00000000000E+00 -0.61564244030E+02  0.61564244030E+02  0.00000000000E+00 0.  1.
         25    2    1    2    0    0  0.20529105450E+03 -0.45240267206E+01  0.15530151144E+04  0.15715108748E+04  0.12500240130E+03 0.  0.
          4    1    3    3  502    0  0.67909232723E+02  0.48382494811E+02  0.79262220934E+03  0.79699693182E+03  0.12700000000E+01 0. -1.
         -4    1    3    3    0  502  0.13738182178E+03 -0.52906521531E+02  0.76039290503E+03  0.77451394299E+03  0.12700000000E+01 0. -1.
          2    1    1    2  503    0 -0.37972903515E+02 -0.19312623133E+02  0.75642986380E+03  0.75762857501E+03  0.00000000000E+00 0. -1.
         -2    1    1    2    0  501 -0.16731815099E+03  0.23836649854E+02  0.86359180448E+02  0.18979319686E+03  0.00000000000E+00 0.  1.
<mgrwt>
<rscale>  0 0.85563757E+02</rscale>
<asrwt>0</asrwt>
<pdfrwt beam="1">  1        2 0.37805660E+00 0.42601864E+02</pdfrwt>
<pdfrwt beam="2">  1       -2 0.94714241E-02 0.17185062E+03</pdfrwt>
<totfact> 0.38218809E+02</totfact>
</mgrwt>
</event>
<event>
 7    1  0.3113530E-004  0.7055678E+02  0.7546771E-02  0.1506425E+00
          2   -1    0    0  502    0  0.00000000000E+00  0.00000000000E+00  0.17714488313E+02  0.17714488313E+02  0.00000000000E+00 0. -1.
          1   -1    0    0  503    0 -0.00000000000E+00 -0.00000000000E+00 -0.16265185734E+04  0.16265185734E+04  0.00000000000E+00 0. -1.
         25    2    1    2    0    0  0.23259381316E+02  0.48661683071E+02 -0.47907990778E+03  0.49804652861E+03  0.12499531352E+03 0.  0.
          4    1    3    3  501    0 -0.33611437678E+02  0.26525906273E+02 -0.55588319265E+02  0.70178533649E+02  0.12700000000E+01 0. -1.
         -4    1    3    3    0  501  0.56870818994E+02  0.22135776798E+02 -0.42349158852E+03  0.42786799496E+03  0.12700000000E+01 0. -1.
          2    1    1    2  502    0 -0.30469274120E+02 -0.70454016804E+02 -0.17391155743E+03  0.19009832970E+03  0.00000000000E+00 0. -1.
          1    1    1    2  503    0  0.72098928036E+01  0.21792333733E+02 -0.95581261990E+03  0.95608820342E+03  0.00000000000E+00 0. -1.
<mgrwt>
<rscale>  0 0.40243804E+02</rscale>
<asrwt>0</asrwt>
<pdfrwt beam="1">  1        2 0.27253046E-02 0.70556778E+02</pdfrwt>
<pdfrwt beam="2">  1        1 0.25023375E+00 0.22954049E+02</pdfrwt>
<totfact> 0.32269598E+03</totfact>
</mgrwt>
</event>
<event>
 7    1  0.3113530E-004  0.4590759E+02  0.7546771E-02  0.1573832E+00
          2   -1    0    0  502    0  0.00000000000E+00  0.00000000000E+00  0.13251499427E+04  0.13251499427E+04  0.00000000000E+00 0. -1.
          1   -1    0    0  503    0 -0.00000000000E+00 -0.00000000000E+00 -0.22510690754E+03  0.22510690754E+03  0.00000000000E+00 0. -1.
         25    2    1    2    0    0  0.63548422687E+02 -0.25676721406E+02  0.60912749388E+03  0.62558695531E+03  0.12500015523E+03 0.  0.
          4    1    3    3  501    0 -0.30618797017E+02 -0.34169096723E+02  0.25243696879E+03  0.25657566918E+03  0.12700000000E+01 0. -1.
         -4    1    3    3    0  501  0.94167219704E+02  0.84923753165E+01  0.35669052508E+03  0.36901128613E+03  0.12700000000E+01 0. -1.
          2    1    1    2  502    0 -0.21400443973E+02  0.77068857379E+01  0.70518730492E+03  0.70555404478E+03  0.00000000000E+00 0. -1.
          1    1    1    2  503    0 -0.42147978714E+02  0.17969835669E+02 -0.21427176362E+03  0.21911585016E+03  0.00000000000E+00 0. -1.
<mgrwt>
<rscale>  0 0.32314218E+02</rscale>
<asrwt>0</asrwt>
<pdfrwt beam="1">  1        2 0.20386922E+00 0.22745881E+02</pdfrwt>
<pdfrwt beam="2">  1        1 0.34631833E-01 0.45907594E+02</pdfrwt>
<totfact> 0.34344100E+02</totfact>
</mgrwt>
</event>
<event>
 7    1  0.3113530E-004  0.4789943E+02  0.7546771E-02  0.1569889E+00
          1   -1    0    0  503    0 -0.00000000000E+00  0.00000000000E+00  0.17384272841E+03  0.17384272841E+03  0.00000000000E+00 0. -1.
          2   -1    0    0  502    0  0.00000000000E+00 -0.00000000000E+00 -0.27645366013E+04  0.27645366013E+04  0.00000000000E+00 0. -1.
         25    2    1    2    0    0  0.74801564088E+01 -0.35587536218E+02 -0.12652118596E+03  0.18153396038E+03  0.12499817118E+03 0.  0.
          4    1    3    3  501    0  0.26150947918E+02 -0.58678229475E+02 -0.13593566894E+03  0.15035666158E+03  0.12700000000E+01 0. -1.
         -4    1    3    3    0  501 -0.18670791509E+02  0.23090693257E+02  0.94144829763E+01  0.31177298799E+02  0.12700000000E+01 0. -1.
          2    1    1    2  502    0 -0.29721293340E+02  0.37719814493E+02 -0.26094339597E+04  0.26098758074E+04  0.00000000000E+00 0. -1.
          1    1    1    2  503    0  0.22241136931E+02 -0.21322782751E+01  0.14526127278E+03  0.14696956199E+03  0.00000000000E+00 0. -1.
<mgrwt>
<rscale>  0 0.32714256E+02</rscale>
<asrwt>0</asrwt>
<pdfrwt beam="2">  1        2 0.42531331E+00 0.47899434E+02</pdfrwt>
<pdfrwt beam="1">  1        1 0.26745036E-01 0.22343115E+02</pdfrwt>
<totfact> 0.82581906E+01</totfact>
</mgrwt>
</event>
<event>
 7    1  0.3113530E-004  0.1422175E+03  0.7546771E-02  0.1389430E+00
         -1   -1    0    0    0  501 -0.00000000000E+00  0.00000000000E+00  0.76636936828E+02  0.76636936828E+02  0.00000000000E+00 0.  1.
          1   -1    0    0  503    0  0.00000000000E+00 -0.00000000000E+00 -0.22713775347E+04  0.22713775347E+04  0.00000000000E+00 0. -1.
         25    2    1    2    0    0  0.16495219089E+03 -0.24618792335E+02 -0.26072298785E+03  0.33379218489E+03  0.12500174433E+03 0.  0.
          4    1    3    3  502    0  0.14214988101E+02 -0.46139478577E+02 -0.10712206692E+03  0.11750603172E+03  0.12700000000E+01 0. -1.
         -4    1    3    3    0  502  0.15073720279E+03  0.21520686242E+02 -0.15360092093E+03  0.21628615317E+03  0.12700000000E+01 0. -1.
          1    1    1    2  503    0 -0.13796706792E+03  0.26778320670E+02 -0.19667389729E+04  0.19717540866E+04  0.00000000000E+00 0. -1.
         -1    1    1    2    0  501 -0.26985122973E+02 -0.21595283347E+01  0.32721362916E+02  0.42468200051E+02  0.00000000000E+00 0.  1.
<mgrwt>
<rscale>  0 0.62048585E+02</rscale>
<asrwt>0</asrwt>
<pdfrwt beam="2">  1        1 0.34944265E+00 0.14221753E+03</pdfrwt>
<pdfrwt beam="1">  1       -1 0.11790300E-01 0.27071395E+02</pdfrwt>
<totfact> 0.99546064E+01</totfact>
</mgrwt>
</event>
<event>
 7    1  0.3113530E-004  0.6699380E+02  0.7546771E-02  0.1419948E+00
          1   -1    0    0  503    0 -0.00000000000E+00  0.00000000000E+00  0.15914358427E+04  0.15914358427E+04  0.00000000000E+00 0. -1.
          2   -1    0    0  502    0  0.00000000000E+00 -0.00000000000E+00 -0.62955718068E+03  0.62955718068E+03  0.00000000000E+00 0. -1.
         25    2    1    2    0    0  0.68779692148E+02  0.63285317490E+01  0.22978174915E+03  0.27054582330E+03  0.12499877557E+03 0.  0.
          4    1    3    3  501    0  0.24218215098E+02 -0.19625668493E+02 -0.37156349965E+01  0.31418269363E+02  0.12700000000E+01 0. -1.
         -4    1    3    3    0  501  0.44561477050E+02  0.25954200242E+02  0.23349738415E+03  0.23912755393E+03  0.12700000000E+01 0. -1.
          2    1    1    2  502    0 -0.12400736154E+02 -0.43471809004E+02 -0.60748516813E+03  0.60916484299E+03  0.00000000000E+00 0. -1.
          1    1    1    2  503    0 -0.56378955994E+02  0.37143277255E+02  0.13395820810E+04  0.13412823571E+04  0.00000000000E+00 0. -1.
<mgrwt>
<rscale>  0 0.55031965E+02</rscale>
<asrwt>0</asrwt>
<pdfrwt beam="2">  1        2 0.96854951E-01 0.45205934E+02</pdfrwt>
<pdfrwt beam="1">  1        1 0.24483628E+00 0.66993798E+02</pdfrwt>
<totfact> 0.48911569E+01</totfact>
</mgrwt>
</event>
<event>
 7    1  0.3113530E-004  0.4747429E+02  0.7546771E-02  0.1488757E+00
         -1   -1    0    0    0  501 -0.00000000000E+00  0.00000000000E+00  0.12174120254E+02  0.12174120254E+02  0.00000000000E+00 0.  1.
          2   -1    0    0  503    0  0.00000000000E+00 -0.00000000000E+00 -0.14887659421E+04  0.14887659421E+04  0.00000000000E+00 0. -1.
         25    2    1    2    0    0 -0.21271925056E+02 -0.59496226773E+02 -0.50910499892E+03  0.52801598733E+03  0.12498274743E+03 0.  0.
          4    1    3    3  502    0  0.23391064203E+02 -0.85280103690E+02 -0.32588789615E+03  0.33767494981E+03  0.12700000000E+01 0. -1.
         -4    1    3    3    0  502 -0.44662989258E+02  0.25783876917E+02 -0.18321710277E+03  0.19034103752E+03  0.12700000000E+01 0. -1.
          2    1    1    2  503    0  0.34454991040E+02  0.17253421789E+02 -0.74955576572E+03  0.75054558349E+03  0.00000000000E+00 0. -1.
         -1    1    1    2    0  501 -0.13183065985E+02  0.42242804983E+02 -0.21793105722E+03  0.22237849155E+03  0.00000000000E+00 0.  1.
<mgrwt>
<rscale>  0 0.42770883E+02</rscale>
<asrwt>0</asrwt>
<pdfrwt beam="2">  1        2 0.22904075E+00 0.38533453E+02</pdfrwt>
<pdfrwt beam="1">  1       -1 0.18729429E-02 0.47474293E+02</pdfrwt>
<totfact> 0.11065779E+04</totfact>
</mgrwt>
</event>
<event>
 7    1  0.3113530E-004  0.8698105E+02  0.7546771E-02  0.1325028E+00
          2   -1    0    0  502    0  0.00000000000E+00  0.00000000000E+00  0.72837895412E+03  0.72837895412E+03  0.00000000000E+00 0. -1.
          1   -1    0    0  503    0 -0.00000000000E+00 -0.00000000000E+00 -0.18139921968E+04  0.18139921968E+04  0.00000000000E+00 0. -1.
         25    2    1    2    0    0 -0.60443210842E+01  0.16550753844E+02 -0.22957619133E+02  0.12830547032E+03  0.12499912067E+03 0.  0.
          4    1    3    3  501    0 -0.36598116584E+02 -0.17506281762E+02 -0.57907492759E+02  0.70716212118E+02  0.12700000000E+01 0.  1.
         -4    1    3    3    0  501  0.30553795500E+02  0.34057035606E+02  0.34949873626E+02  0.57589258202E+02  0.12700000000E+01 0.  1.
          2    1    1    2  502    0 -0.24225117005E+02 -0.86526780518E+02  0.67187675510E+03  0.67785847644E+03  0.00000000000E+00 0. -1.
          1    1    1    2  503    0  0.30269438090E+02  0.69976026674E+02 -0.17345323787E+04  0.17362072042E+04  0.00000000000E+00 0. -1.
<mgrwt>
<rscale>  0 0.81434837E+02</rscale>
<asrwt>0</asrwt>
<pdfrwt beam="1">  1        2 0.11205830E+00 0.86981053E+02</pdfrwt>
<pdfrwt beam="2">  1        1 0.27907572E+00 0.76242266E+02</pdfrwt>
<totfact> 0.29144069E+01</totfact>
</mgrwt>
</event>
<event>
 7    1  0.3113530E-004  0.4959963E+02  0.7546771E-02  0.1493907E+00
          2   -1    0    0  503    0  0.00000000000E+00  0.00000000000E+00  0.73624591372E+03  0.73624591372E+03  0.00000000000E+00 0. -1.
         -2   -1    0    0    0  501 -0.00000000000E+00 -0.00000000000E+00 -0.26955425479E+03  0.26955425479E+03  0.00000000000E+00 0. -1.
         25    2    1    2    0    0 -0.11674797939E+02 -0.85036614701E+01 -0.87314285031E+02  0.15315813637E+03  0.12500006880E+03 0.  0.
          4    1    3    3  502    0 -0.34223912024E+02 -0.56272649855E+02 -0.22669884634E+02  0.69666518825E+02  0.12700000000E+01 0. -1.
         -4    1    3    3    0  502  0.22549114084E+02  0.47768988385E+02 -0.64644400397E+02  0.83491617543E+02  0.12700000000E+01 0. -1.
          2    1    1    2  503    0  0.43744458164E+02  0.23925076432E+02  0.70030487317E+03  0.70207756145E+03  0.00000000000E+00 0. -1.
         -2    1    1    2    0  501 -0.32069660225E+02 -0.15421414962E+02 -0.14629892921E+03  0.15056447069E+03  0.00000000000E+00 0. -1.
<mgrwt>
<rscale>  0 0.42011861E+02</rscale>
<asrwt>0</asrwt>
<pdfrwt beam="1">  1        2 0.11326860E+00 0.49599628E+02</pdfrwt>
<pdfrwt beam="2">  1       -2 0.41469886E-01 0.35584872E+02</pdfrwt>
<totfact> 0.22924553E+02</totfact>
</mgrwt>
</event>
<event>
 7    1  0.3695383E-004  0.5619522E+02  0.7546771E-02  0.1419780E+00
          2   -1    0    0  503    0  0.00000000000E+00  0.00000000000E+00  0.16078376588E+02  0.16078376588E+02  0.00000000000E+00 0. -1.
         -1   -1    0    0    0  501 -0.00000000000E+00 -0.00000000000E+00 -0.10189012384E+04  0.10189012384E+04  0.00000000000E+00 0.  1.
         25    2    1    2    0    0  0.38816992698E+01 -0.74863663300E+02 -0.60362705777E+03  0.62097418826E+03  0.12499472764E+03 0.  0.
          4    1    3    3  502    0  0.23883642378E+02 -0.10478802804E+03 -0.49490045228E+03  0.50643758723E+03  0.12700000000E+01 0. -1.
         -4    1    3    3    0  502 -0.20001943108E+02  0.29924364742E+02 -0.10872660549E+03  0.11453660103E+03  0.12700000000E+01 0. -1.
          2    1    1    2  503    0 -0.41379882403E+02  0.34635933739E+02 -0.17302486273E+03  0.18124443632E+03  0.00000000000E+00 0. -1.
         -1    1    1    2    0  501  0.37498183133E+02  0.40227729561E+02 -0.22617094134E+03  0.23276099044E+03  0.00000000000E+00 0.  1.
<mgrwt>
<rscale>  0 0.55067505E+02</rscale>
<asrwt>0</asrwt>
<pdfrwt beam="1">  1        2 0.24735960E-02 0.53962418E+02</pdfrwt>
<pdfrwt beam="2">  1       -1 0.15675406E+00 0.56195223E+02</pdfrwt>
<totfact> 0.14496461E+03</totfact>
</mgrwt>
</event>
<event>
 7    1  0.3113530E-004  0.1020293E+03  0.7546771E-02  0.1325765E+00
          2   -1    0    0  503    0  0.00000000000E+00  0.00000000000E+00  0.63429565383E+03  0.63429565383E+03  0.00000000000E+00 0. -1.
          2   -1    0    0  502    0 -0.00000000000E+00 -0.00000000000E+00 -0.95456838079E+03  0.95456838079E+03  0.00000000000E+00 0. -1.
         25    2    1    2    0    0  0.40560458295E+02 -0.58542579336E+02 -0.48667924674E+02  0.15187367321E+03  0.12499864539E+03 0.  0.
          4    1    3    3  501    0  0.69852856146E+02 -0.58751681220E+02 -0.70482499240E+02  0.11532812821E+03  0.12700000000E+01 0. -1.
         -4    1    3    3    0  501 -0.29292397850E+02  0.20910188346E+00  0.21814574566E+02  0.36545544994E+02  0.12700000000E+01 0. -1.
          2    1    1    2  502    0 -0.45867353166E+02 -0.45453813680E+02 -0.84840852288E+03  0.85086243598E+03  0.00000000000E+00 0. -1.
          2    1    1    2  503    0  0.53068948702E+01  0.10399639302E+03  0.57680372059E+03  0.58612792544E+03  0.00000000000E+00 0. -1.
<mgrwt>
<rscale>  0 0.81169504E+02</rscale>
<asrwt>0</asrwt>
<pdfrwt beam="1">  1        2 0.97583947E-01 0.10202929E+03</pdfrwt>
<pdfrwt beam="2">  1        2 0.14685667E+00 0.64574478E+02</pdfrwt>
<totfact> 0.22659183E+02</totfact>
</mgrwt>
</event>
<event>
 7    1  0.3113530E-004  0.6103818E+02  0.7546771E-02  0.1452994E+00
         -1   -1    0    0    0  501 -0.00000000000E+00  0.00000000000E+00  0.48039521385E+02  0.48039521385E+02  0.00000000000E+00 0.  1.
          2   -1    0    0  503    0  0.00000000000E+00 -0.00000000000E+00 -0.33167644632E+03  0.33167644632E+03  0.00000000000E+00 0. -1.
         25    2    1    2    0    0  0.60646007475E+02 -0.24967225567E+02 -0.11729565647E+03  0.18353192500E+03  0.12499758354E+03 0.  0.
          4    1    3    3  502    0  0.89431507806E+02 -0.48848651822E+02 -0.72014511447E+02  0.12478737169E+03  0.12700000000E+01 0. -1.
         -4    1    3    3    0  502 -0.28785500330E+02  0.23881426254E+02 -0.45281145021E+02  0.58744553310E+02  0.12700000000E+01 0. -1.
          2    1    1    2  503    0  0.45434339948E+00  0.38707622850E+02 -0.43021402871E+02  0.57873375567E+02  0.00000000000E+00 0. -1.
         -1    1    1    2    0  501 -0.61100350875E+02 -0.13740397283E+02 -0.12331986560E+03  0.13831066714E+03  0.00000000000E+00 0.  1.
<mgrwt>
<rscale>  0 0.48608698E+02</rscale>
<asrwt>0</asrwt>
<pdfrwt beam="2">  1        2 0.51027145E-01 0.38710289E+02</pdfrwt>
<pdfrwt beam="1">  1       -1 0.73906957E-02 0.61038177E+02</pdfrwt>
<totfact> 0.95823869E+03</totfact>
</mgrwt>
</event>
<event>
 7    1  0.3113530E-004  0.6240160E+02  0.7546771E-02  0.1390821E+00
          3   -1    0    0  503    0 -0.00000000000E+00  0.00000000000E+00  0.52159249023E+02  0.52159249023E+02  0.00000000000E+00 0. -1.
          2   -1    0    0  502    0  0.00000000000E+00 -0.00000000000E+00 -0.66291431124E+03  0.66291431124E+03  0.00000000000E+00 0. -1.
         25    2    1    2    0    0 -0.53938082044E+02 -0.56389583810E+02 -0.14420433556E+03  0.20617734652E+03  0.12500042388E+03 0.  0.
          4    1    3    3  501    0 -0.81995591327E+02 -0.47703492052E+02 -0.49486528187E+02  0.10700200710E+03  0.12700000000E+01 0.  1.
         -4    1    3    3    0  501  0.28057509284E+02 -0.86860917580E+01 -0.94717807370E+02  0.99175339426E+02  0.12700000000E+01 0.  1.
          2    1    1    2  502    0 -0.67377870724E+01  0.62784939934E+02 -0.43620953469E+03  0.44075628709E+03  0.00000000000E+00 0. -1.
          3    1    1    2  503    0  0.60675869116E+02 -0.63953561236E+01 -0.30341191967E+02  0.68139926643E+02  0.00000000000E+00 0. -1.
<mgrwt>
<rscale>  0 0.61702877E+02</rscale>
<asrwt>0</asrwt>
<pdfrwt beam="2">  1        2 0.10198680E+00 0.62401598E+02</pdfrwt>
<pdfrwt beam="1">  1        3 0.80245009E-02 0.61011980E+02</pdfrwt>
<totfact> 0.26352117E+03</totfact>
</mgrwt>
</event>
<event>
 7    1  0.3113530E-004  0.2252456E+03  0.7546771E-02  0.1143242E+00
          2   -1    0    0  502    0  0.00000000000E+00  0.00000000000E+00  0.17760113493E+04  0.17760113493E+04  0.00000000000E+00 0. -1.
          1   -1    0    0  503    0 -0.00000000000E+00 -0.00000000000E+00 -0.25450571548E+03  0.25450571548E+03  0.00000000000E+00 0. -1.
         25    2    1    2    0    0 -0.12584767437E+03  0.21826446449E+03  0.88773440574E+03  0.93122254754E+03  0.12500417714E+03 0.  0.
          4    1    3    3  501    0 -0.13141936286E+03  0.17000919876E+03  0.55834661105E+03  0.59826977825E+03  0.12700000000E+01 0. -1.
         -4    1    3    3    0  501  0.55716884937E+01  0.48255265729E+02  0.32938779469E+03  0.33295276929E+03  0.12700000000E+01 0. -1.
          2    1    1    2  502    0  0.23140393483E+03 -0.58022154944E+02  0.80654506761E+03  0.84108816280E+03  0.00000000000E+00 0. -1.
          1    1    1    2  503    0 -0.10555626046E+03 -0.16024230954E+03 -0.17277383948E+03  0.25820635449E+03  0.00000000000E+00 0. -1.
<mgrwt>
<rscale>  0 0.20789701E+03</rscale>
<asrwt>0</asrwt>
<pdfrwt beam="1">  1        2 0.27323251E+00 0.22524556E+03</pdfrwt>
<pdfrwt beam="2">  1        1 0.39154726E-01 0.19188466E+03</pdfrwt>
<totfact> 0.14606035E+02</totfact>
</mgrwt>
</event>
<event>
 7    1  0.3113530E-004  0.1419625E+03  0.7546771E-02  0.1324157E+00
          2   -1    0    0  502    0  0.00000000000E+00  0.00000000000E+00  0.14534650139E+04  0.14534650139E+04  0.00000000000E+00 0.  1.
          1   -1    0    0  503    0 -0.00000000000E+00 -0.00000000000E+00 -0.56754381005E+03  0.56754381005E+03  0.00000000000E+00 0. -1.
         25    2    1    2    0    0 -0.50127561788E+02 -0.12248882965E+03  0.20470078849E+03  0.27394178714E+03  0.12500161638E+03 0.  0.
          4    1    3    3  501    0 -0.49751101133E+02 -0.10568176349E+03  0.22132793211E+03  0.25026280912E+03  0.12700000000E+01 0.  1.
         -4    1    3    3    0  501 -0.37646065450E+00 -0.16807066155E+02 -0.16627143617E+02  0.23678978023E+02  0.12700000000E+01 0.  1.
          2    1    1    2  502    0  0.94974918465E+02  0.10817461468E+03  0.12088252176E+04  0.12173661688E+04  0.00000000000E+00 0.  1.
          1    1    1    2  503    0 -0.44847356677E+02  0.14314214964E+02 -0.52760480223E+03  0.52970086794E+03  0.00000000000E+00 0. -1.
<mgrwt>
<rscale>  0 0.81750075E+02</rscale>
<asrwt>0</asrwt>
<pdfrwt beam="1">  1        2 0.22361000E+00 0.14196249E+03</pdfrwt>
<pdfrwt beam="2">  1        1 0.87314433E-01 0.47076344E+02</pdfrwt>
<totfact> 0.83471487E+01</totfact>
</mgrwt>
</event>
<event>
 7    1  0.3113530E-004  0.4700974E+03  0.7546771E-02  0.1154899E+00
          2   -1    0    0  502    0  0.00000000000E+00  0.00000000000E+00  0.96430064662E+03  0.96430064662E+03  0.00000000000E+00 0. -1.
          2   -1    0    0  503    0 -0.00000000000E+00 -0.00000000000E+00 -0.10671728058E+04  0.10671728058E+04  0.00000000000E+00 0. -1.
         25    2    1    2    0    0  0.37631223198E+02  0.43903645371E+03  0.21406091322E+03  0.50558927208E+03  0.12501728212E+03 0.  0.
          4    1    3    3  501    0 -0.34522733784E+02  0.43725486152E+02  0.18752458620E+02  0.58796299981E+02  0.12700000000E+01 0. -1.
         -4    1    3    3    0  501  0.72153956981E+02  0.39531096756E+03  0.19530845460E+03  0.44679297210E+03  0.12700000000E+01 0. -1.
          2    1    1    2  502    0 -0.10615855958E+03 -0.48043815797E+03  0.50207499198E+03  0.70297209118E+03  0.00000000000E+00 0. -1.
          2    1    1    2  503    0  0.68527336379E+02  0.41401704261E+02 -0.81900806438E+03  0.82291208915E+03  0.00000000000E+00 0. -1.
<mgrwt>
<rscale>  0 0.19400372E+03</rscale>
<asrwt>0</asrwt>
<pdfrwt beam="1">  1        2 0.14835395E+00 0.47009736E+03</pdfrwt>
<pdfrwt beam="2">  1        2 0.16418043E+00 0.80063081E+02</pdfrwt>
<totfact> 0.10764382E+02</totfact>
</mgrwt>
</event>
<event>
 7    1  0.3113530E-004  0.5964323E+02  0.7546771E-02  0.1444550E+00
         -3   -1    0    0    0  501 -0.00000000000E+00  0.00000000000E+00  0.10981663245E+02  0.10981663245E+02  0.00000000000E+00 0.  1.
          2   -1    0    0  503    0  0.00000000000E+00 -0.00000000000E+00 -0.29609776110E+04  0.29609776110E+04  0.00000000000E+00 0. -1.
         25    2    1    2    0    0  0.12416127709E+02 -0.27529884466E+02 -0.80354743155E+03  0.81377419942E+03  0.12501167196E+03 0.  0.
          4    1    3    3  502    0  0.44041556025E+02  0.14405828156E+02 -0.12709779007E+03  0.13528727835E+03  0.12700000000E+01 0.  1.
         -4    1    3    3    0  502 -0.31625428316E+02 -0.41935712622E+02 -0.67644964148E+03  0.67848692108E+03  0.12700000000E+01 0.  1.
          2    1    1    2  503    0 -0.12946874654E+02 -0.40125958135E+02 -0.19491920200E+04  0.19496479797E+04  0.00000000000E+00 0. -1.
         -3    1    1    2    0  501  0.53074694492E+00  0.67655842601E+02 -0.19725649622E+03  0.20853709510E+03  0.00000000000E+00 0.  1.
<mgrwt>
<rscale>  0 0.50147128E+02</rscale>
<asrwt>0</asrwt>
<pdfrwt beam="2">  1        2 0.45553525E+00 0.42162947E+02</pdfrwt>
<pdfrwt beam="1">  1       -3 0.16894858E-02 0.59643232E+02</pdfrwt>
<totfact> 0.18181664E+03</totfact>
</mgrwt>
</event>
<event>
 7    1  0.3113530E-004  0.6483577E+02  0.7546771E-02  0.1429820E+00
          2   -1    0    0  503    0  0.00000000000E+00  0.00000000000E+00  0.76539481202E+03  0.76539481202E+03  0.00000000000E+00 0. -1.
         -1   -1    0    0    0  501 -0.00000000000E+00 -0.00000000000E+00 -0.27468816778E+02  0.27468816778E+02  0.00000000000E+00 0.  1.
         25    2    1    2    0    0 -0.41984204641E+02  0.63702824173E+02  0.22455009466E+03  0.26808216506E+03  0.12499831586E+03 0.  0.
          4    1    3    3  502    0  0.25987111799E+02  0.40267413041E+02  0.17322073415E+03  0.17973266306E+03  0.12700000000E+01 0. -1.
         -4    1    3    3    0  502 -0.67971316440E+02  0.23435411132E+02  0.51329360513E+02  0.88349502003E+02  0.12700000000E+01 0. -1.
          2    1    1    2  503    0 -0.13190791896E+01 -0.64849638835E+02  0.33493272623E+03  0.34115560485E+03  0.00000000000E+00 0. -1.
         -1    1    1    2    0  501  0.43303283831E+02  0.11468146625E+01  0.17844317436E+03  0.18362585888E+03  0.00000000000E+00 0.  1.
<mgrwt>
<rscale>  0 0.52996097E+02</rscale>
<asrwt>0</asrwt>
<pdfrwt beam="1">  1        2 0.11775303E+00 0.64835774E+02</pdfrwt>
<pdfrwt beam="2">  1       -1 0.42259724E-02 0.43318467E+02</pdfrwt>
<totfact> 0.84299171E+03</totfact>
</mgrwt>
</event>
<event>
 7    1  0.3113530E-004  0.1037584E+03  0.7546771E-02  0.1343052E+00
         -2   -1    0    0    0  501 -0.00000000000E+00  0.00000000000E+00  0.15827086020E+02  0.15827086020E+02  0.00000000000E+00 0.  1.
          2   -1    0    0  503    0  0.00000000000E+00 -0.00000000000E+00 -0.21270220707E+04  0.21270220707E+04  0.00000000000E+00 0. -1.
         25    2    1    2    0    0  0.13588396078E+03  0.32248110398E+02 -0.14208516950E+04  0.14331594043E+04  0.12498778999E+03 0.  0.
          4    1    3    3  502    0  0.15838598528E+03  0.15452211561E+02 -0.12284410114E+04  0.12387065119E+04  0.12700000000E+01 0. -1.
         -4    1    3    3    0  502 -0.22502024505E+02  0.16795898837E+02 -0.19241068356E+03  0.19445289242E+03  0.12700000000E+01 0. -1.
          2    1    1    2  503    0 -0.84499473728E+02 -0.13797505703E+02 -0.58306560753E+03  0.58931827980E+03  0.00000000000E+00 0. -1.
         -2    1    1    2    0  501 -0.51384487048E+02 -0.18450604694E+02 -0.10727768214E+03  0.12037147256E+03  0.00000000000E+00 0.  1.
<mgrwt>
<rscale>  0 0.75265252E+02</rscale>
<asrwt>0</asrwt>
<pdfrwt beam="2">  1        2 0.32723408E+00 0.10375841E+03</pdfrwt>
<pdfrwt beam="1">  1       -2 0.24349369E-02 0.54596615E+02</pdfrwt>
<totfact> 0.33752090E+03</totfact>
</mgrwt>
</event>
<event>
 7    1  0.3113530E-004  0.3484236E+02  0.7546771E-02  0.1553885E+00
         -1   -1    0    0    0  501 -0.00000000000E+00  0.00000000000E+00  0.11003691031E+03  0.11003691031E+03  0.00000000000E+00 0.  1.
          3   -1    0    0  503    0  0.00000000000E+00 -0.00000000000E+00 -0.10691085854E+03  0.10691085854E+03  0.00000000000E+00 0. -1.
         25    2    1    2    0    0  0.78948349248E+00 -0.75137258627E+01  0.70812661097E+01  0.12542988672E+03  0.12500173116E+03 0.  0.
          4    1    3    3  502    0 -0.20445086762E+02  0.49955937289E+02  0.27816042968E+02  0.60736664294E+02  0.12700000000E+01 0. -1.
         -4    1    3    3    0  502  0.21234570254E+02 -0.57469663152E+02 -0.20734776858E+02  0.64693222428E+02  0.12700000000E+01 0. -1.
          3    1    1    2  503    0  0.23368830772E+02 -0.24678226944E+02 -0.28517716027E+02  0.44366397917E+02  0.00000000000E+00 0. -1.
         -1    1    1    2    0  501 -0.24158314265E+02  0.32191952807E+02  0.24562501694E+02  0.47151484209E+02  0.00000000000E+00 0.  1.
<mgrwt>
<rscale>  0 0.34412032E+02</rscale>
<asrwt>0</asrwt>
<pdfrwt beam="2">  1        3 0.16447824E-01 0.33987014E+02</pdfrwt>
<pdfrwt beam="1">  1       -1 0.16928755E-01 0.34842365E+02</pdfrwt>
<totfact> 0.28450398E+03</totfact>
</mgrwt>
</event>
<event>
 7    1  0.3113530E-004  0.1567986E+03  0.7546771E-02  0.1351869E+00
          2   -1    0    0  503    0  0.00000000000E+00  0.00000000000E+00  0.12645700660E+04  0.12645700660E+04  0.00000000000E+00 0. -1.
         -2   -1    0    0    0  501 -0.00000000000E+00 -0.00000000000E+00 -0.96928108949E+02  0.96928108949E+02  0.00000000000E+00 0.  1.
         25    2    1    2    0    0  0.12337313466E+03 -0.39834936106E+02  0.44969237176E+03  0.48441360174E+03  0.12500222335E+03 0.  0.
          4    1    3    3  502    0 -0.69031090787E+01 -0.65553686046E+01  0.20486780739E+03  0.20509280138E+03  0.12700000000E+01 0.  1.
         -4    1    3    3    0  502  0.13027624374E+03 -0.33279567502E+02  0.24482456436E+03  0.27932080036E+03  0.12700000000E+01 0.  1.
          2    1    1    2  503    0  0.33490484599E+02  0.82198427460E+00  0.71462333941E+03  0.71540813906E+03  0.00000000000E+00 0. -1.
         -2    1    1    2    0  501 -0.15686361926E+03  0.39012951832E+02  0.33262459183E+01  0.16167643418E+03  0.00000000000E+00 0.  1.
<mgrwt>
<rscale>  0 0.72476490E+02</rscale>
<asrwt>0</asrwt>
<pdfrwt beam="1">  1        2 0.19454923E+00 0.33500570E+02</pdfrwt>
<pdfrwt beam="2">  1       -2 0.14912018E-01 0.15679857E+03</pdfrwt>
<totfact> 0.71842860E+02</totfact>
</mgrwt>
</event>
<event>
 7    1  0.3113530E-004  0.1261271E+03  0.7546771E-02  0.1362409E+00
          2   -1    0    0  503    0  0.00000000000E+00  0.00000000000E+00  0.53515609964E+03  0.53515609964E+03  0.00000000000E+00 0. -1.
          2   -1    0    0  502    0 -0.00000000000E+00 -0.00000000000E+00 -0.76480109238E+03  0.76480109238E+03  0.00000000000E+00 0. -1.
         25    2    1    2    0    0 -0.88158740774E+02 -0.87710074347E+02 -0.40583728634E+03  0.44248658428E+03  0.12500181425E+03 0.  0.
          4    1    3    3  501    0 -0.86967672306E+02 -0.11201251360E+03 -0.38547165285E+03  0.41073128354E+03  0.12700000000E+01 0.  1.
         -4    1    3    3    0  501 -0.11910684674E+01  0.24302439249E+02 -0.20365633493E+02  0.31755300740E+02  0.12700000000E+01 0.  1.
          2    1    1    2  502    0  0.29509148342E+02 -0.24103669186E+02 -0.33182118945E+03  0.33400161448E+03  0.00000000000E+00 0. -1.
          2    1    1    2  503    0  0.58649592432E+02  0.11181374353E+03  0.50801348305E+03  0.52346899325E+03  0.00000000000E+00 0. -1.
<mgrwt>
<rscale>  0 0.69323284E+02</rscale>
<asrwt>0</asrwt>
<pdfrwt beam="1">  1        2 0.82331708E-01 0.12612708E+03</pdfrwt>
<pdfrwt beam="2">  1        2 0.11766171E+00 0.38102188E+02</pdfrwt>
<totfact> 0.36568041E+02</totfact>
</mgrwt>
</event>
<event>
 7    1  0.3113530E-004  0.8490937E+02  0.7546771E-02  0.1337684E+00
          1   -1    0    0  503    0  0.00000000000E+00  0.00000000000E+00  0.90858156049E+03  0.90858156049E+03  0.00000000000E+00 0. -1.
         -1   -1    0    0    0  501 -0.00000000000E+00 -0.00000000000E+00 -0.62222970346E+02  0.62222970346E+02  0.00000000000E+00 0.  1.
         25    2    1    2    0    0 -0.81360671237E+02  0.30835527003E+02  0.16802407068E+03  0.22677533038E+03  0.12499829435E+03 0.  0.
          4    1    3    3  502    0 -0.79415854425E+02  0.49352826038E+02  0.47627242417E+02  0.10494068083E+03  0.12700000000E+01 0.  1.
         -4    1    3    3    0  502 -0.19448168115E+01 -0.18517299035E+02  0.12039682826E+03  0.12183464955E+03  0.12700000000E+01 0.  1.
          1    1    1    2  503    0  0.45475393084E+02  0.53071456220E+02  0.64201646945E+03  0.64580936652E+03  0.00000000000E+00 0. -1.
         -1    1    1    2    0  501  0.35885278153E+02 -0.83906983224E+02  0.36318050018E+02  0.98219833939E+02  0.00000000000E+00 0.  1.
<mgrwt>
<rscale>  0 0.77034427E+02</rscale>
<asrwt>0</asrwt>
<pdfrwt beam="1">  1        1 0.13978177E+00 0.69889848E+02</pdfrwt>
<pdfrwt beam="2">  1       -1 0.95727653E-02 0.84909369E+02</pdfrwt>
<totfact> 0.12357072E+03</totfact>
</mgrwt>
</event>
<event>
 7    1  0.3113530E-004  0.9690566E+02  0.7546771E-02  0.1312698E+00
         -2   -1    0    0    0  501 -0.00000000000E+00  0.00000000000E+00  0.13792558068E+03  0.13792558068E+03  0.00000000000E+00 0.  1.
          2   -1    0    0  503    0  0.00000000000E+00 -0.00000000000E+00 -0.10453271419E+04  0.10453271419E+04  0.00000000000E+00 0. -1.
         25    2    1    2    0    0 -0.10245997090E+03  0.10736258614E+03 -0.58836229023E+02  0.20275904398E+03  0.12499903012E+03 0.  0.
          4    1    3    3  502    0  0.47514481708E+00 -0.16607865470E+02 -0.36441991902E+02  0.40070920027E+02  0.12700000000E+01 0. -1.
         -4    1    3    3    0  502 -0.10293511571E+03  0.12397045161E+03 -0.22394237121E+02  0.16268812395E+03  0.12700000000E+01 0. -1.
          2    1    1    2  503    0  0.90115748883E+02 -0.31947875927E+02 -0.88893879248E+03  0.89406582070E+03  0.00000000000E+00 0. -1.
         -2    1    1    2    0  501  0.12344222014E+02 -0.75414710212E+02  0.40373460257E+02  0.86427857931E+02  0.00000000000E+00 0.  1.
<mgrwt>
<rscale>  0 0.86054443E+02</rscale>
<asrwt>0</asrwt>
<pdfrwt beam="2">  1        2 0.16081956E+00 0.96905663E+02</pdfrwt>
<pdfrwt beam="1">  1       -2 0.21219320E-01 0.76418312E+02</pdfrwt>
<totfact> 0.47646077E+02</totfact>
</mgrwt>
</event>
<event>
 7    1  0.3113530E-004  0.1003242E+03  0.7546771E-02  0.1368820E+00
          2   -1    0    0  503    0  0.00000000000E+00  0.00000000000E+00  0.19802817083E+03  0.19802817083E+03  0.00000000000E+00 0.  1.
         -3   -1    0    0    0  501 -0.00000000000E+00 -0.00000000000E+00 -0.24276022559E+03  0.24276022559E+03  0.00000000000E+00 0.  1.
         25    2    1    2    0    0  0.59224566236E+02 -0.80006178720E+02  0.77197988510E+02  0.17746117055E+03  0.12499759896E+03 0.  0.
          4    1    3    3  502    0  0.91780506525E+02 -0.44513683145E+02  0.79339936789E+02  0.12923454583E+03  0.12700000000E+01 0.  1.
         -4    1    3    3    0  502 -0.32555940289E+02 -0.35492495575E+02 -0.21419482786E+01  0.48226624728E+02  0.12700000000E+01 0.  1.
          2    1    1    2  503    0 -0.40892474347E+02 -0.19746115000E+02  0.47592506588E+02  0.65781077820E+02  0.00000000000E+00 0.  1.
         -3    1    1    2    0  501 -0.18332091889E+02  0.99752293720E+02 -0.16952254986E+03  0.19754614804E+03  0.00000000000E+00 0.  1.
<mgrwt>
<rscale>  0 0.67496383E+02</rscale>
<asrwt>0</asrwt>
<pdfrwt beam="1">  1        2 0.30465872E-01 0.45410390E+02</pdfrwt>
<pdfrwt beam="2">  1       -3 0.37347727E-01 0.10032422E+03</pdfrwt>
<totfact> 0.69382931E+02</totfact>
</mgrwt>
</event>
<event>
 7    1  0.3113530E-004  0.6087853E+02  0.7546771E-02  0.1448171E+00
          2   -1    0    0  503    0  0.00000000000E+00  0.00000000000E+00  0.71459172921E+03  0.71459172921E+03  0.00000000000E+00 0. -1.
          2   -1    0    0  502    0 -0.00000000000E+00 -0.00000000000E+00 -0.11221175460E+04  0.11221175460E+04  0.00000000000E+00 0. -1.
         25    2    1    2    0    0  0.12938458887E+02 -0.34945700820E+02 -0.10517820605E+04  0.10598404254E+04  0.12501047515E+03 0.  0.
          4    1    3    3  501    0  0.68259860596E+02 -0.10005039380E+02 -0.61574905730E+03  0.61960311801E+03  0.12700000000E+01 0. -1.
         -4    1    3    3    0  501 -0.55321401708E+02 -0.24940661440E+02 -0.43603300319E+03  0.44023730743E+03  0.12700000000E+01 0. -1.
          2    1    1    2  502    0  0.39939242144E+02  0.46958929100E+01 -0.58768055143E+02  0.71210103065E+02  0.00000000000E+00 0. -1.
          2    1    1    2  503    0 -0.52877701031E+02  0.30249807910E+02  0.70302429881E+03  0.70565874674E+03  0.00000000000E+00 0. -1.
<mgrwt>
<rscale>  0 0.49479198E+02</rscale>
<asrwt>0</asrwt>
<pdfrwt beam="1">  1        2 0.10993719E+00 0.60878532E+02</pdfrwt>
<pdfrwt beam="2">  1        2 0.17263347E+00 0.40214357E+02</pdfrwt>
<totfact> 0.16592928E+02</totfact>
</mgrwt>
</event>
<event>
 7    1  0.3113530E-004  0.2347039E+03  0.7546771E-02  0.1187511E+00
          2   -1    0    0  502    0  0.00000000000E+00  0.00000000000E+00  0.16053608443E+04  0.16053608443E+04  0.00000000000E+00 0. -1.
          2   -1    0    0  503    0 -0.00000000000E+00 -0.00000000000E+00 -0.10832872964E+03  0.10832872964E+03  0.00000000000E+00 0. -1.
         25    2    1    2    0    0 -0.23999754469E+03  0.19889683577E+03  0.57511799672E+03  0.66599080391E+03  0.12499707196E+03 0.  0.
          4    1    3    3  501    0 -0.25610237438E+02 -0.14439496719E+02  0.86201934893E+02  0.91086606076E+02  0.12700000000E+01 0. -1.
         -4    1    3    3    0  501 -0.21438730725E+03  0.21333633249E+03  0.48891606183E+03  0.57490419783E+03  0.12700000000E+01 0. -1.
          2    1    1    2  502    0  0.10468128827E+03 -0.35434615915E+02  0.79030803525E+03  0.79799785382E+03  0.00000000000E+00 0. -1.
          2    1    1    2  503    0  0.13531625642E+03 -0.16346221985E+03  0.13160608272E+03  0.24970091625E+03  0.00000000000E+00 0. -1.
<mgrwt>
<rscale>  0 0.16105445E+03</rscale>
<asrwt>0</asrwt>
<pdfrwt beam="1">  1        2 0.24697858E+00 0.11051599E+03</pdfrwt>
<pdfrwt beam="2">  1        2 0.16665960E-01 0.23470392E+03</pdfrwt>
<totfact> 0.68305859E+02</totfact>
</mgrwt>
</event>
<event>
 7    1  0.3113530E-004  0.1339168E+03  0.7546771E-02  0.1241558E+00
          2   -1    0    0  502    0  0.00000000000E+00  0.00000000000E+00  0.54290047529E+03  0.54290047529E+03  0.00000000000E+00 0. -1.
          1   -1    0    0  503    0 -0.00000000000E+00 -0.00000000000E+00 -0.16105772778E+03  0.16105772778E+03  0.00000000000E+00 0. -1.
         25    2    1    2    0    0 -0.36575986902E+02  0.12274272776E+02  0.51672843616E+02  0.14065334658E+03  0.12499928219E+03 0.  0.
          4    1    3    3  501    0 -0.97793399317E+01 -0.54462483529E+02  0.65257713160E+01  0.55731465017E+02  0.12700000000E+01 0. -1.
         -4    1    3    3    0  501 -0.26796646970E+02  0.66736756305E+02  0.45147072300E+02  0.84921881563E+02  0.12700000000E+01 0. -1.
          2    1    1    2  502    0 -0.20891808670E+02 -0.13323356135E+03  0.39291669182E+03  0.41541687045E+03  0.00000000000E+00 0. -1.
          1    1    1    2  503    0  0.57467795571E+02  0.12095928857E+03 -0.62746787931E+02  0.14788798604E+03  0.00000000000E+00 0. -1.
<mgrwt>
<rscale>  0 0.12093761E+03</rscale>
<asrwt>0</asrwt>
<pdfrwt beam="1">  1        2 0.83523149E-01 0.10921640E+03</pdfrwt>
<pdfrwt beam="2">  1        1 0.24778112E-01 0.13391675E+03</pdfrwt>
<totfact> 0.14902407E+03</totfact>
</mgrwt>
</event>
<event>
 7    1  0.3113530E-004  0.1188859E+03  0.7546771E-02  0.1307032E+00
         -3   -1    0    0    0  502 -0.00000000000E+00  0.00000000000E+00  0.16171728031E+03  0.16171728031E+03  0.00000000000E+00 0.  1.
         -1   -1    0    0    0  501  0.00000000000E+00 -0.00000000000E+00 -0.13022920796E+04  0.13022920796E+04  0.00000000000E+00 0.  1.
         25    2    1    2    0    0 -0.11322226481E+02  0.13770765617E+03 -0.15935253467E+03  0.24517228891E+03  0.12499851823E+03 0.  0.
          4    1    3    3  503    0 -0.67972206111E+02  0.64426299037E+02 -0.78021546469E+02  0.12190136761E+03  0.12700000000E+01 0. -1.
         -4    1    3    3    0  503  0.56649979631E+02  0.73281357137E+02 -0.81330988205E+02  0.12327092130E+03  0.12700000000E+01 0. -1.
         -1    1    1    2    0  501 -0.53002200037E+02 -0.38614281893E+02 -0.10694056846E+04  0.10714143989E+04  0.00000000000E+00 0.  1.
         -3    1    1    2    0  502  0.64324426517E+02 -0.99093374281E+02  0.88183420000E+02  0.14742267206E+03  0.00000000000E+00 0.  1.
<mgrwt>
<rscale>  0 0.88295726E+02</rscale>
<asrwt>0</asrwt>
<pdfrwt beam="2">  1       -1 0.20035262E+00 0.65576642E+02</pdfrwt>
<pdfrwt beam="1">  1       -3 0.24879582E-01 0.11888586E+03</pdfrwt>
<totfact> 0.12549144E+01</totfact>
</mgrwt>
</event>
<event>
 7    1  0.3113530E-004  0.7724642E+02  0.7546771E-02  0.1390019E+00
          1   -1    0    0  503    0  0.00000000000E+00  0.00000000000E+00  0.25906857060E+03  0.25906857060E+03  0.00000000000E+00 0. -1.
         -2   -1    0    0    0  501 -0.00000000000E+00 -0.00000000000E+00 -0.17263843120E+03  0.17263843120E+03  0.00000000000E+00 0.  1.
         25    2    1    2    0    0  0.10996432979E+02 -0.27753106003E+02  0.13914003009E+03  0.18941534851E+03  0.12500827911E+03 0.  0.
          4    1    3    3  502    0 -0.39093093513E+02 -0.96174343239E+01 -0.15161718461E+00  0.40279037863E+02  0.12700000000E+01 0.  1.
         -4    1    3    3    0  502  0.50089526492E+02 -0.18135671679E+02  0.13929164728E+03  0.14913631064E+03  0.12700000000E+01 0.  1.
          1    1    1    2  503    0 -0.77464322340E+02 -0.11604594123E+02  0.64805145939E+02  0.10166166820E+03  0.00000000000E+00 0. -1.
         -2    1    1    2    0  501  0.66467889361E+02  0.39357700127E+02 -0.11751503663E+03  0.14062998510E+03  0.00000000000E+00 0.  1.
<mgrwt>
<rscale>  0 0.61902015E+02</rscale>
<asrwt>0</asrwt>
<pdfrwt beam="1">  1        1 0.39856703E-01 0.49605661E+02</pdfrwt>
<pdfrwt beam="2">  1       -2 0.26559759E-01 0.77246417E+02</pdfrwt>
<totfact> 0.11387762E+03</totfact>
</mgrwt>
</event>
<event>
 7    1  0.3113530E-004  0.1077535E+03  0.7546771E-02  0.1304511E+00
          2   -1    0    0  502    0  0.00000000000E+00  0.00000000000E+00  0.11870723726E+04  0.11870723726E+04  0.00000000000E+00 0. -1.
          1   -1    0    0  503    0 -0.00000000000E+00 -0.00000000000E+00 -0.98660449608E+03  0.98660449608E+03  0.00000000000E+00 0. -1.
         25    2    1    2    0    0  0.16231429832E+03 -0.78572832293E+02 -0.31636241008E+03  0.38500600853E+03  0.12499932271E+03 0.  0.
          4    1    3    3  501    0  0.27764090572E+02 -0.71242320068E+02 -0.16796678647E+03  0.18455559366E+03  0.12700000000E+01 0. -1.
         -4    1    3    3    0  501  0.13455020775E+03 -0.73305122250E+01 -0.14839562361E+03  0.20045041487E+03  0.12700000000E+01 0. -1.
          2    1    1    2  502    0 -0.10013893214E+03  0.38377097172E+02  0.11480882786E+04  0.11530859911E+04  0.00000000000E+00 0. -1.
          1    1    1    2  503    0 -0.62175366182E+02  0.40195735122E+02 -0.63125799202E+03  0.63558486906E+03  0.00000000000E+00 0. -1.
<mgrwt>
<rscale>  0 0.89318205E+02</rscale>
<asrwt>0</asrwt>
<pdfrwt beam="1">  1        2 0.18262652E+00 0.10775349E+03</pdfrwt>
<pdfrwt beam="2">  1        1 0.15178531E+00 0.74036972E+02</pdfrwt>
<totfact> 0.52495048E+01</totfact>
</mgrwt>
</event>
<event>
 7    1  0.3113530E-004  0.5818291E+02  0.7546771E-02  0.1554099E+00
          3   -1    0    0  503    0 -0.00000000000E+00  0.00000000000E+00  0.53145011679E+03  0.53145011679E+03  0.00000000000E+00 0. -1.
          2   -1    0    0  502    0  0.00000000000E+00 -0.00000000000E+00 -0.67116477163E+02  0.67116477163E+02  0.00000000000E+00 0. -1.
         25    2    1    2    0    0 -0.48499809289E+02 -0.48249259146E+02  0.13865268896E+03  0.19882003373E+03  0.12499846059E+03 0.  0.
          4    1    3    3  501    0 -0.71424654452E+02  0.98103143652E+01  0.10644228219E+03  0.12856630923E+03  0.12700000000E+01 0. -1.
         -4    1    3    3    0  501  0.22924845163E+02 -0.58059573511E+02  0.32210406763E+02  0.70253724498E+02  0.12700000000E+01 0. -1.
          2    1    1    2  502    0 -0.18109360439E+01  0.20244110536E+02 -0.31754950982E+02  0.37702525281E+02  0.00000000000E+00 0. -1.
          3    1    1    2  503    0  0.50310745333E+02  0.28005148610E+02  0.35743590165E+03  0.36204403494E+03  0.00000000000E+00 0. -1.
<mgrwt>
<rscale>  0 0.34388438E+02</rscale>
<asrwt>0</asrwt>
<pdfrwt beam="2">  1        2 0.10325612E-01 0.20324948E+02</pdfrwt>
<pdfrwt beam="1">  1        3 0.81761554E-01 0.58182912E+02</pdfrwt>
<totfact> 0.43304392E+02</totfact>
</mgrwt>
</event>
<event>
 7    1  0.3113530E-004  0.1322854E+03  0.7546771E-02  0.1366086E+00
          1   -1    0    0  503    0  0.00000000000E+00  0.00000000000E+00  0.21084995257E+04  0.21084995257E+04  0.00000000000E+00 0. -1.
         -3   -1    0    0    0  501 -0.00000000000E+00 -0.00000000000E+00 -0.31380802713E+03  0.31380802713E+03  0.00000000000E+00 0.  1.
         25    2    1    2    0    0 -0.96720178635E+02  0.33708436939E+02  0.25475460701E+03  0.30169015094E+03  0.12500394277E+03 0.  0.
          4    1    3    3  502    0  0.22953708882E+02 -0.96881647620E+01  0.90509218912E+02  0.93884316560E+02  0.12700000000E+01 0. -1.
         -4    1    3    3    0  502 -0.11967388752E+03  0.43396601701E+02  0.16424538809E+03  0.20780583438E+03  0.12700000000E+01 0. -1.
          1    1    1    2  503    0 -0.34556268990E+02 -0.68580576595E+01  0.18146372254E+04  0.18149791812E+04  0.00000000000E+00 0. -1.
         -3    1    1    2    0  501  0.13127644762E+03 -0.26850379280E+02 -0.27470033377E+03  0.30563822068E+03  0.00000000000E+00 0.  1.
<mgrwt>
<rscale>  0 0.68267436E+02</rscale>
<asrwt>0</asrwt>
<pdfrwt beam="1">  1        1 0.32438453E+00 0.35230224E+02</pdfrwt>
<pdfrwt beam="2">  1       -3 0.48278159E-01 0.13228536E+03</pdfrwt>
<totfact> 0.85810556E+00</totfact>
</mgrwt>
</event>
<event>
 7    1  0.3113530E-004  0.3556736E+02  0.7546771E-02  0.1570639E+00
          2   -1    0    0  503    0  0.00000000000E+00  0.00000000000E+00  0.12407738709E+02  0.12407738709E+02  0.00000000000E+00 0. -1.
         -1   -1    0    0    0  501 -0.00000000000E+00 -0.00000000000E+00 -0.92574817115E+03  0.92574817115E+03  0.00000000000E+00 0.  1.
         25    2    1    2    0    0 -0.31378090407E+02 -0.40321905450E+01 -0.56034842981E+03  0.57499676921E+03  0.12502031316E+03 0.  0.
          4    1    3    3  502    0 -0.62451272930E+02 -0.11423685922E+02 -0.51831132544E+03  0.52218665731E+03  0.12700000000E+01 0.  1.
         -4    1    3    3    0  502  0.31073182524E+02  0.73914953774E+01 -0.42037104364E+02  0.52810111905E+02  0.12700000000E+01 0.  1.
          2    1    1    2  503    0  0.35740637597E+01  0.29735198289E+02 -0.53746173022E+02  0.61527287146E+02  0.00000000000E+00 0. -1.
         -1    1    1    2    0  501  0.27804026647E+02 -0.25703007744E+02 -0.29924582961E+03  0.30163185350E+03  0.00000000000E+00 0.  1.
<mgrwt>
<rscale>  0 0.32637628E+02</rscale>
<asrwt>0</asrwt>
<pdfrwt beam="1">  1        2 0.19088825E-02 0.29949223E+02</pdfrwt>
<pdfrwt beam="2">  1       -1 0.14242282E+00 0.35567359E+02</pdfrwt>
<totfact> 0.24355148E+03</totfact>
</mgrwt>
</event>
<event>
 7    1  0.3113530E-004  0.9349349E+02  0.7546771E-02  0.1415864E+00
          2   -1    0    0  502    0  0.00000000000E+00  0.00000000000E+00  0.35167393301E+03  0.35167393301E+03  0.00000000000E+00 0. -1.
          1   -1    0    0  503    0 -0.00000000000E+00 -0.00000000000E+00 -0.23297299948E+03  0.23297299948E+03  0.00000000000E+00 0. -1.
         25    2    1    2    0    0 -0.60554779837E+02 -0.48693473701E+02  0.17789760619E+03  0.23089028246E+03  0.12499931401E+03 0.  0.
          4    1    3    3  501    0 -0.38813948647E+02 -0.88725687585E+02  0.14622911574E+03  0.17539480447E+03  0.12700000000E+01 0. -1.
         -4    1    3    3    0  501 -0.21740831190E+02  0.40032213884E+02  0.31668490449E+02  0.55495477983E+02  0.12700000000E+01 0. -1.
          2    1    1    2  502    0  0.10709810911E+02 -0.31667554485E+02  0.13429495944E+03  0.13839317247E+03  0.00000000000E+00 0. -1.
          1    1    1    2  503    0  0.49844968926E+02  0.80361028186E+02 -0.19349163209E+03  0.21536347756E+03  0.00000000000E+00 0. -1.
<mgrwt>
<rscale>  0 0.55905673E+02</rscale>
<asrwt>0</asrwt>
<pdfrwt beam="1">  1        2 0.54103682E-01 0.33429539E+02</pdfrwt>
<pdfrwt beam="2">  1        1 0.35842000E-01 0.93493491E+02</pdfrwt>
<totfact> 0.14880630E+03</totfact>
</mgrwt>
</event>
<event>
 7    1  0.4175652E-004  0.1462779E+03  0.7546771E-02  0.1329071E+00
          2   -1    0    0  503    0  0.00000000000E+00  0.00000000000E+00  0.22487107243E+03  0.22487107243E+03  0.00000000000E+00 0. -1.
         -1   -1    0    0    0  501 -0.00000000000E+00 -0.00000000000E+00 -0.24678458787E+03  0.24678458787E+03  0.00000000000E+00 0.  1.
         25    2    1    2    0    0  0.15507581320E+03 -0.89693365872E+01  0.13201366489E+03  0.23911805691E+03  0.12498352126E+03 0.  0.
          4    1    3    3  502    0  0.96484240518E+01 -0.13383823913E+02  0.84427915937E+02  0.86034322911E+02  0.12700000000E+01 0. -1.
         -4    1    3    3    0  502  0.14542738915E+03  0.44144873257E+01  0.47585748949E+02  0.15308373400E+03  0.12700000000E+01 0. -1.
          2    1    1    2  503    0 -0.12545393671E+03 -0.23220034865E+02 -0.94617464899E+02  0.15884056447E+03  0.00000000000E+00 0. -1.
         -1    1    1    2    0  501 -0.29621876485E+02  0.32189371453E+02 -0.59309715431E+02  0.73697038920E+02  0.00000000000E+00 0.  1.
<mgrwt>
<rscale>  0 0.79993145E+02</rscale>
<asrwt>0</asrwt>
<pdfrwt beam="1">  1        2 0.34595550E-01 0.14627789E+03</pdfrwt>
<pdfrwt beam="2">  1       -1 0.37966859E-01 0.43744842E+02</pdfrwt>
<totfact> 0.11336015E+03</totfact>
</mgrwt>
</event>
<event>
 7    1  0.3113530E-004  0.1501097E+03  0.7546771E-02  0.1264876E+00
         -2   -1    0    0    0  501 -0.00000000000E+00  0.00000000000E+00  0.68380111813E+03  0.68380111813E+03  0.00000000000E+00 0.  1.
          1   -1    0    0  503    0  0.00000000000E+00 -0.00000000000E+00 -0.11260228572E+04  0.11260228572E+04  0.00000000000E+00 0. -1.
         25    2    1    2    0    0  0.18591348563E+02 -0.84818290091E+02 -0.14821267633E+02  0.15291905756E+03  0.12499915046E+03 0.  0.
          4    1    3    3  502    0  0.53094506046E+01 -0.11710422098E+03 -0.10068704985E+02  0.11766299570E+03  0.12700000000E+01 0.  1.
         -4    1    3    3    0  502  0.13281897959E+02  0.32285930887E+02 -0.47525626476E+01  0.35256061866E+02  0.12700000000E+01 0.  1.
          1    1    1    2  503    0 -0.24851145011E+02 -0.73177743615E+02 -0.10305143286E+04  0.10334081203E+04  0.00000000000E+00 0. -1.
         -2    1    1    2    0  501  0.62597964473E+01  0.15799603371E+03  0.60311385719E+03  0.62349679747E+03  0.00000000000E+00 0.  1.
<mgrwt>
<rscale>  0 0.10770715E+03</rscale>
<asrwt>0</asrwt>
<pdfrwt beam="2">  1        1 0.17323428E+00 0.77282350E+02</pdfrwt>
<pdfrwt beam="1">  1       -2 0.10520017E+00 0.15010970E+03</pdfrwt>
<totfact> 0.98017614E+00</totfact>
</mgrwt>
</event>
<event>
 7    1  0.3113530E-004  0.1564566E+03  0.7546771E-02  0.1261033E+00
          2   -1    0    0  502    0  0.00000000000E+00  0.00000000000E+00  0.11804400155E+04  0.11804400155E+04  0.00000000000E+00 0.  1.
          1   -1    0    0  503    0 -0.00000000000E+00 -0.00000000000E+00 -0.46050399696E+03  0.46050399696E+03  0.00000000000E+00 0. -1.
         25    2    1    2    0    0  0.10300891599E+03  0.14698430424E+03  0.21801852705E+02  0.21980669905E+03  0.12499776678E+03 0.  0.
          4    1    3    3  501    0  0.81144811634E+02  0.83488023079E+02 -0.45234918335E+02  0.12491013245E+03  0.12700000000E+01 0.  1.
         -4    1    3    3    0  501  0.21864104353E+02  0.63496281161E+02  0.67036771040E+02  0.94896566597E+02  0.12700000000E+01 0.  1.
          2    1    1    2  502    0  0.31932413568E+02 -0.70052541426E+02  0.10414633501E+04  0.10443050068E+04  0.00000000000E+00 0.  1.
          1    1    1    2  503    0 -0.13494132956E+03 -0.76931762813E+02 -0.34332918426E+03  0.37683230663E+03  0.00000000000E+00 0. -1.
<mgrwt>
<rscale>  0 0.10975046E+03</rscale>
<asrwt>0</asrwt>
<pdfrwt beam="1">  1        2 0.18160616E+00 0.76987256E+02</pdfrwt>
<pdfrwt beam="2">  1        1 0.70846769E-01 0.15645660E+03</pdfrwt>
<totfact> 0.15464483E+02</totfact>
</mgrwt>
</event>
<event>
 7    1  0.3113530E-004  0.9190416E+02  0.7546771E-02  0.1419873E+00
          1   -1    0    0  503    0  0.00000000000E+00  0.00000000000E+00  0.28914618538E+03  0.28914618538E+03  0.00000000000E+00 0. -1.
         -2   -1    0    0    0  501 -0.00000000000E+00 -0.00000000000E+00 -0.71685080397E+02  0.71685080397E+02  0.00000000000E+00 0.  1.
         25    2    1    2    0    0  0.55099631614E+01 -0.97660064994E+02  0.90093100198E+02  0.18251042763E+03  0.12500176600E+03 0.  0.
          4    1    3    3  502    0  0.24180336523E+02 -0.23012668868E+01  0.81386785913E+02  0.84943547871E+02  0.12700000000E+01 0.  1.
         -4    1    3    3    0  502 -0.18670373362E+02 -0.95358798107E+02  0.87063142852E+01  0.97566879761E+02  0.12700000000E+01 0.  1.
          1    1    1    2  503    0 -0.35457914525E+02  0.83866434752E+02  0.84346591624E+02  0.12411764620E+03  0.00000000000E+00 0. -1.
         -2    1    1    2    0  501  0.29947951363E+02  0.13793630242E+02  0.43021413158E+02  0.54203191938E+02  0.00000000000E+00 0.  1.
<mgrwt>
<rscale>  0 0.55047722E+02</rscale>
<asrwt>0</asrwt>
<pdfrwt beam="1">  1        1 0.44484028E-01 0.91904159E+02</pdfrwt>
<pdfrwt beam="2">  1       -2 0.11028474E-01 0.32971867E+02</pdfrwt>
<totfact> 0.39656985E+03</totfact>
</mgrwt>
</event>
<event>
 7    1  0.3113530E-004  0.5717894E+02  0.7546771E-02  0.1558126E+00
          1   -1    0    0  503    0  0.00000000000E+00  0.00000000000E+00  0.35581295901E+03  0.35581295901E+03  0.00000000000E+00 0. -1.
          1   -1    0    0  502    0 -0.00000000000E+00 -0.00000000000E+00 -0.12240113457E+03  0.12240113457E+03  0.00000000000E+00 0. -1.
         25    2    1    2    0    0  0.45467521220E+02  0.27638215807E+02  0.17991535909E+03  0.22545092725E+03  0.12500967043E+03 0.  0.
          4    1    3    3  501    0 -0.25129834841E+02 -0.14689938960E+02  0.12037793156E+03  0.12385379370E+03  0.12700000000E+01 0.  1.
         -4    1    3    3    0  501  0.70597356061E+02  0.42328154766E+02  0.59537427527E+02  0.10159713355E+03  0.12700000000E+01 0.  1.
          1    1    1    2  502    0 -0.56463560173E+02 -0.10743526685E+02 -0.90583627513E+02  0.10727977706E+03  0.00000000000E+00 0. -1.
          1    1    1    2  503    0  0.10996038953E+02 -0.16894689122E+02  0.14408009287E+03  0.14548338927E+03  0.00000000000E+00 0. -1.
<mgrwt>
<rscale>  0 0.33950124E+02</rscale>
<asrwt>0</asrwt>
<pdfrwt beam="1">  1        1 0.54740455E-01 0.20157961E+02</pdfrwt>
<pdfrwt beam="2">  1        1 0.18830944E-01 0.57178943E+02</pdfrwt>
<totfact> 0.22193562E+03</totfact>
</mgrwt>
</event>
<event>
 7    1  0.3113530E-004  0.9652696E+02  0.7546771E-02  0.1441544E+00
          1   -1    0    0  503    0  0.00000000000E+00  0.00000000000E+00  0.25787007334E+04  0.25787007334E+04  0.00000000000E+00 0. -1.
         -1   -1    0    0    0  501 -0.00000000000E+00 -0.00000000000E+00 -0.84675966889E+01  0.84675966889E+01  0.00000000000E+00 0.  1.
         25    2    1    2    0    0 -0.90342452069E+02 -0.20092789119E+02  0.10572349465E+04  0.10686141588E+04  0.12500003796E+03 0.  0.
          4    1    3    3  502    0  0.13525947154E+02  0.18305630761E+02  0.49786588786E+03  0.49838750241E+03  0.12700000000E+01 0. -1.
         -4    1    3    3    0  502 -0.10386839922E+03 -0.38398419880E+02  0.55936905865E+03  0.57022665641E+03  0.12700000000E+01 0. -1.
          1    1    1    2  503    0  0.98512441637E+02 -0.52647676780E+01  0.13264102933E+04  0.13300739397E+04  0.00000000000E+00 0. -1.
         -1    1    1    2    0  501 -0.81699895679E+01  0.25357556797E+02  0.18658789685E+03  0.18848023151E+03  0.00000000000E+00 0.  1.
<mgrwt>
<rscale>  0 0.50710903E+02</rscale>
<asrwt>0</asrwt>
<pdfrwt beam="1">  1        1 0.39672256E+00 0.96526962E+02</pdfrwt>
<pdfrwt beam="2">  1       -1 0.13027092E-02 0.26641216E+02</pdfrwt>
<totfact> 0.14519340E+03</totfact>
</mgrwt>
</event>
<event>
 7    1  0.3113530E-004  0.4511132E+02  0.7546771E-02  0.1481152E+00
         -1   -1    0    0    0  501 -0.00000000000E+00  0.00000000000E+00  0.40993428965E+03  0.40993428965E+03  0.00000000000E+00 0.  1.
          1   -1    0    0  503    0  0.00000000000E+00 -0.00000000000E+00 -0.13716479959E+04  0.13716479959E+04  0.00000000000E+00 0. -1.
         25    2    1    2    0    0 -0.29295149529E+02  0.54651805703E+02 -0.35830957160E+03  0.38451979019E+03  0.12499877719E+03 0.  0.
          4    1    3    3  502    0 -0.68095747750E+02  0.73577908001E+01 -0.25872021847E+03  0.26763582027E+03  0.12700000000E+01 0. -1.
         -4    1    3    3    0  502  0.38800598221E+02  0.47294014903E+02 -0.99589353129E+02  0.11688396992E+03  0.12700000000E+01 0. -1.
          1    1    1    2  503    0 -0.11990911943E+02 -0.43466746781E+02 -0.99857041690E+03  0.99958792387E+03  0.00000000000E+00 0. -1.
         -1    1    1    2    0  501  0.41286061473E+02 -0.11185058922E+02  0.39516628221E+03  0.39747457153E+03  0.00000000000E+00 0.  1.
<mgrwt>
<rscale>  0 0.43927295E+02</rscale>
<asrwt>0</asrwt>
<pdfrwt beam="2">  1        1 0.21102277E+00 0.45111324E+02</pdfrwt>
<pdfrwt beam="1">  1       -1 0.63066814E-01 0.42774343E+02</pdfrwt>
<totfact> 0.28268432E+01</totfact>
</mgrwt>
</event>
<event>
 7    1  0.3113530E-004  0.1148976E+03  0.7546771E-02  0.1258532E+00
         -1   -1    0    0    0  501 -0.00000000000E+00  0.00000000000E+00  0.25599156111E+03  0.25599156111E+03  0.00000000000E+00 0.  1.
          1   -1    0    0  503    0  0.00000000000E+00 -0.00000000000E+00 -0.35512107424E+03  0.35512107424E+03  0.00000000000E+00 0. -1.
         25    2    1    2    0    0  0.32466815271E+02  0.25979058454E+02 -0.76423997888E+02  0.15229783698E+03  0.12499999249E+03 0.  0.
          4    1    3    3  502    0  0.16800819765E+02  0.13168800202E+02  0.33924447638E+02  0.40101943732E+02  0.12700000000E+01 0.  1.
         -4    1    3    3    0  502  0.15665995506E+02  0.12810258253E+02 -0.11034844553E+03  0.11219589325E+03  0.12700000000E+01 0.  1.
          1    1    1    2  503    0 -0.92845053238E+02 -0.12373353371E+03 -0.19674001055E+03  0.25027349645E+03  0.00000000000E+00 0. -1.
         -1    1    1    2    0  501  0.60378237966E+02  0.97754475252E+02  0.17403449530E+03  0.20854130192E+03  0.00000000000E+00 0.  1.
<mgrwt>
<rscale>  0 0.11110771E+03</rscale>
<asrwt>0</asrwt>
<pdfrwt beam="2">  1        1 0.54634011E-01 0.10744279E+03</pdfrwt>
<pdfrwt beam="1">  1       -1 0.39383318E-01 0.11489765E+03</pdfrwt>
<totfact> 0.45424443E+02</totfact>
</mgrwt>
</event>
<event>
 7    1  0.3113530E-004  0.4150193E+02  0.7546771E-02  0.1524625E+00
          1   -1    0    0  503    0  0.00000000000E+00  0.00000000000E+00  0.54802420286E+03  0.54802420286E+03  0.00000000000E+00 0. -1.
         -2   -1    0    0    0  501 -0.00000000000E+00 -0.00000000000E+00 -0.28174171348E+02  0.28174171348E+02  0.00000000000E+00 0.  1.
         25    2    1    2    0    0  0.65402638922E+02  0.19023413112E+02  0.31062836622E+03  0.34168617899E+03  0.12498026879E+03 0.  0.
          4    1    3    3  502    0  0.84471775020E+02 -0.15498277551E+02  0.27644206592E+03  0.28947798896E+03  0.12700000000E+01 0.  1.
         -4    1    3    3    0  502 -0.19069136099E+02  0.34521690663E+02  0.34186300305E+02  0.52208190031E+02  0.12700000000E+01 0.  1.
          1    1    1    2  503    0 -0.26446959450E+02 -0.22195726017E+02  0.18572802024E+03  0.18891000350E+03  0.00000000000E+00 0. -1.
         -2    1    1    2    0  501 -0.38955679472E+02  0.31723129048E+01  0.23493645046E+02  0.45602191722E+02  0.00000000000E+00 0.  1.
<mgrwt>
<rscale>  0 0.37853984E+02</rscale>
<asrwt>0</asrwt>
<pdfrwt beam="1">  1        1 0.84311408E-01 0.34526684E+02</pdfrwt>
<pdfrwt beam="2">  1       -2 0.43344883E-02 0.41501933E+02</pdfrwt>
<totfact> 0.74471320E+03</totfact>
</mgrwt>
</event>
<event>
 7    1  0.3113530E-004  0.1102162E+03  0.7546771E-02  0.1404796E+00
          1   -1    0    0  502    0  0.00000000000E+00  0.00000000000E+00  0.33611827341E+03  0.33611827341E+03  0.00000000000E+00 0. -1.
          1   -1    0    0  503    0 -0.00000000000E+00 -0.00000000000E+00 -0.94341389915E+03  0.94341389915E+03  0.00000000000E+00 0. -1.
         25    2    1    2    0    0 -0.55281337030E+02 -0.58579225971E+02 -0.40004043684E+03  0.42677922802E+03  0.12498242444E+03 0.  0.
          4    1    3    3  501    0 -0.45099687472E+02 -0.78751856966E+02 -0.14722463357E+03  0.17295242819E+03  0.12700000000E+01 0.  1.
         -4    1    3    3    0  501 -0.10181649558E+02  0.20172630995E+02 -0.25281580327E+03  0.25382679983E+03  0.12700000000E+01 0.  1.
          1    1    1    2  502    0  0.70998483746E+02  0.85199767963E+02  0.31274888911E+03  0.33183075927E+03  0.00000000000E+00 0. -1.
          1    1    1    2  503    0 -0.15717146716E+02 -0.26620541992E+02 -0.52000407801E+03  0.52092218527E+03  0.00000000000E+00 0. -1.
<mgrwt>
<rscale>  0 0.58371516E+02</rscale>
<asrwt>0</asrwt>
<pdfrwt beam="1">  1        1 0.51710504E-01 0.11021615E+03</pdfrwt>
<pdfrwt beam="2">  1        1 0.14514060E+00 0.30914106E+02</pdfrwt>
<totfact> 0.18484088E+02</totfact>
</mgrwt>
</event>
<event>
 7    1  0.3113530E-004  0.1291648E+03  0.7546771E-02  0.1307190E+00
          1   -1    0    0  503    0 -0.00000000000E+00  0.00000000000E+00  0.16958617700E+04  0.16958617700E+04  0.00000000000E+00 0. -1.
          2   -1    0    0  502    0  0.00000000000E+00 -0.00000000000E+00 -0.68059588283E+02  0.68059588283E+02  0.00000000000E+00 0. -1.
         25    2    1    2    0    0  0.11841563195E+03  0.37268937326E+02  0.13811395627E+03  0.22385443630E+03  0.12499643257E+03 0.  0.
          4    1    3    3  501    0  0.12138982581E+03  0.44274685565E+02  0.55088133608E+02  0.14047082600E+03  0.12700000000E+01 0. -1.
         -4    1    3    3    0  501 -0.29741938644E+01 -0.70057482392E+01  0.83025822661E+02  0.83383610296E+02  0.12700000000E+01 0. -1.
          2    1    1    2  502    0 -0.14033291332E+03  0.18876200275E+02  0.18012337403E+03  0.22911583832E+03  0.00000000000E+00 0. -1.
          1    1    1    2  503    0  0.21917281368E+02 -0.56145137600E+02  0.13095648514E+04  0.13109510837E+04  0.00000000000E+00 0. -1.
<mgrwt>
<rscale>  0 0.88232322E+02</rscale>
<asrwt>0</asrwt>
<pdfrwt beam="2">  1        2 0.10470707E-01 0.12916475E+03</pdfrwt>
<pdfrwt beam="1">  1        1 0.26090178E+00 0.60271417E+02</pdfrwt>
<totfact> 0.49157384E+02</totfact>
</mgrwt>
</event>
<event>
 7    1  0.3113530E-004  0.8395444E+02  0.7546771E-02  0.1493749E+00
         -2   -1    0    0    0  501 -0.00000000000E+00  0.00000000000E+00  0.30047728057E+02  0.30047728057E+02  0.00000000000E+00 0.  1.
          1   -1    0    0  503    0  0.00000000000E+00 -0.00000000000E+00 -0.59140048447E+03  0.59140048447E+03  0.00000000000E+00 0. -1.
         25    2    1    2    0    0  0.39995977166E+02 -0.57114478944E+02 -0.41214080951E+03  0.43628266723E+03  0.12498310673E+03 0.  0.
          4    1    3    3  502    0  0.19104790231E+02  0.55402202303E+01 -0.33123649594E+03  0.33183567650E+03  0.12700000000E+01 0.  1.
         -4    1    3    3    0  502  0.20891186935E+02 -0.62654699175E+02 -0.80904313568E+02  0.10444699074E+03  0.12700000000E+01 0.  1.
          1    1    1    2  503    0  0.19056712554E+02 -0.89324650130E+01 -0.29079412390E+02  0.35896510269E+02  0.00000000000E+00 0. -1.
         -2    1    1    2    0  501 -0.59052689720E+02  0.66046943957E+02 -0.12013253451E+03  0.14926903503E+03  0.00000000000E+00 0.  1.
<mgrwt>
<rscale>  0 0.42034883E+02</rscale>
<asrwt>0</asrwt>
<pdfrwt beam="2">  1        1 0.90984682E-01 0.21046311E+02</pdfrwt>
<pdfrwt beam="1">  1       -2 0.46227278E-02 0.83954445E+02</pdfrwt>
<totfact> 0.67758261E+03</totfact>
</mgrwt>
</event>
<event>
 7    1  0.3113530E-004  0.2171485E+03  0.7546771E-02  0.1236468E+00
          2   -1    0    0  503    0  0.00000000000E+00  0.00000000000E+00  0.25772099241E+04  0.25772099241E+04  0.00000000000E+00 0. -1.
         -3   -1    0    0    0  501 -0.00000000000E+00 -0.00000000000E+00 -0.15413143953E+03  0.15413143953E+03  0.00000000000E+00 0.  1.
         25    2    1    2    0    0  0.25042797064E+03 -0.91272544532E+02  0.37014353430E+03  0.47294083303E+03  0.12498779821E+03 0.  0.
          4    1    3    3  502    0  0.26467683479E+03 -0.90222918982E+02  0.35704692551E+03  0.45351749900E+03  0.12700000000E+01 0.  1.
         -4    1    3    3    0  502 -0.14248864145E+02 -0.10496255496E+01  0.13096608792E+02  0.19423334036E+02  0.12700000000E+01 0.  1.
          2    1    1    2  503    0 -0.20995574233E+03  0.33018558236E+02  0.21374911662E+04  0.21480316861E+04  0.00000000000E+00 0. -1.
         -3    1    1    2    0  501 -0.40472228312E+02  0.58253986296E+02 -0.84556215930E+02  0.11036884450E+03  0.00000000000E+00 0.  1.
<mgrwt>
<rscale>  0 0.12410902E+03</rscale>
<asrwt>0</asrwt>
<pdfrwt beam="1">  1        2 0.39649380E+00 0.21714846E+03</pdfrwt>
<pdfrwt beam="2">  1       -3 0.23712531E-01 0.70933266E+02</pdfrwt>
<totfact> 0.35334944E+01</totfact>
</mgrwt>
</event>
<event>
 7    1  0.3113530E-004  0.3467941E+03  0.7546771E-02  0.1193018E+00
          2   -1    0    0  502    0  0.00000000000E+00  0.00000000000E+00  0.25492873211E+03  0.25492873211E+03  0.00000000000E+00 0. -1.
          2   -1    0    0  503    0 -0.00000000000E+00 -0.00000000000E+00 -0.22379659890E+04  0.22379659890E+04  0.00000000000E+00 0. -1.
         25    2    1    2    0    0 -0.26926904302E+03 -0.23487689650E+03 -0.23944429009E+01  0.37855405046E+03  0.12499784688E+03 0.  0.
          4    1    3    3  501    0 -0.14253267139E+03 -0.79896733832E+02 -0.53480746788E+02  0.17193270098E+03  0.12700000000E+01 0.  1.
         -4    1    3    3    0  501 -0.12673637163E+03 -0.15498016267E+03  0.51086303887E+02  0.20662134948E+03  0.12700000000E+01 0.  1.
          2    1    1    2  502    0  0.20284591227E+03  0.25815067420E+03 -0.34161631160E+03  0.47380369254E+03  0.00000000000E+00 0. -1.
          2    1    1    2  503    0  0.66423130754E+02 -0.23273777701E+02 -0.16390265024E+04  0.16405369781E+04  0.00000000000E+00 0. -1.
<mgrwt>
<rscale>  0 0.15623140E+03</rscale>
<asrwt>0</asrwt>
<pdfrwt beam="1">  1        2 0.39219806E-01 0.34679412E+03</pdfrwt>
<pdfrwt beam="2">  1        2 0.34430245E+00 0.70382534E+02</pdfrwt>
<totfact> 0.13229316E+02</totfact>
</mgrwt>
</event>
<event>
 7    1  0.3113530E-004  0.5201417E+02  0.7546771E-02  0.1498741E+00
         -1   -1    0    0    0  501 -0.00000000000E+00  0.00000000000E+00  0.24628036146E+03  0.24628036146E+03  0.00000000000E+00 0.  1.
          2   -1    0    0  503    0  0.00000000000E+00 -0.00000000000E+00 -0.66049024896E+02  0.66049024896E+02  0.00000000000E+00 0. -1.
         25    2    1    2    0    0  0.20983698743E+02 -0.68226567817E+02  0.99460092783E+02  0.17495989752E+03  0.12499390190E+03 0.  0.
          4    1    3    3  502    0 -0.34518919940E+02 -0.77357524770E+02  0.42065533832E+02  0.94587866606E+02  0.12700000000E+01 0. -1.
         -4    1    3    3    0  502  0.55502618683E+02  0.91309569527E+01  0.57394558951E+02  0.80372030911E+02  0.12700000000E+01 0. -1.
          2    1    1    2  503    0 -0.32305306580E+02  0.37422150683E+02 -0.79979841555E+00  0.49443805198E+02  0.00000000000E+00 0. -1.
         -1    1    1    2    0  501  0.11321607837E+02  0.30804417134E+02  0.81571042200E+02  0.87925683646E+02  0.00000000000E+00 0.  1.
<mgrwt>
<rscale>  0 0.41316538E+02</rscale>
<asrwt>0</asrwt>
<pdfrwt beam="2">  1        2 0.10161389E-01 0.52014170E+02</pdfrwt>
<pdfrwt beam="1">  1       -1 0.37889286E-01 0.32819063E+02</pdfrwt>
<totfact> 0.43080657E+03</totfact>
</mgrwt>
</event>
<event>
 7    1  0.3113530E-004  0.1027252E+03  0.7546771E-02  0.1426936E+00
         -1   -1    0    0    0  501 -0.00000000000E+00  0.00000000000E+00  0.57497688258E+03  0.57497688258E+03  0.00000000000E+00 0.  1.
          1   -1    0    0  503    0  0.00000000000E+00 -0.00000000000E+00 -0.33301814663E+03  0.33301814663E+03  0.00000000000E+00 0. -1.
         25    2    1    2    0    0 -0.18520769029E+02  0.81318963283E+02  0.87017093639E+02  0.17363972981E+03  0.12499195377E+03 0.  0.
          4    1    3    3  502    0  0.37772414607E+02 -0.75412134933E+01  0.23647545068E+01  0.38611269988E+02  0.12700000000E+01 0.  1.
         -4    1    3    3    0  502 -0.56293183636E+02  0.88860176776E+02  0.84652339132E+02  0.13502845982E+03  0.12700000000E+01 0.  1.
          1    1    1    2  503    0  0.42891159519E+02 -0.94997038152E+02 -0.27986863123E+03  0.29864785211E+03  0.00000000000E+00 0. -1.
         -1    1    1    2    0  501 -0.24370390490E+02  0.13678074869E+02  0.43481027354E+03  0.43570744731E+03  0.00000000000E+00 0.  1.
<mgrwt>
<rscale>  0 0.53579930E+02</rscale>
<asrwt>0</asrwt>
<pdfrwt beam="2">  1        1 0.51233561E-01 0.10272525E+03</pdfrwt>
<pdfrwt beam="1">  1       -1 0.88457982E-01 0.27946479E+02</pdfrwt>
<totfact> 0.11124876E+02</totfact>
</mgrwt>
</event>
<event>
 7    1  0.3113530E-004  0.1058718E+03  0.7546771E-02  0.1302167E+00
          2   -1    0    0  502    0  0.00000000000E+00  0.00000000000E+00  0.19956300547E+04  0.19956300547E+04  0.00000000000E+00 0. -1.
          2   -1    0    0  503    0 -0.00000000000E+00 -0.00000000000E+00 -0.69484745883E+03  0.69484745883E+03  0.00000000000E+00 0. -1.
         25    2    1    2    0    0  0.15013543983E+03 -0.19998600862E+02  0.13702507376E+03  0.23945994693E+03  0.12499840405E+03 0.  0.
          4    1    3    3  501    0  0.38173294055E+02 -0.63440343080E+02  0.35144709718E+02  0.81967316842E+02  0.12700000000E+01 0.  1.
         -4    1    3    3    0  501  0.11196214578E+03  0.43441742219E+02  0.10188036405E+03  0.15749263009E+03  0.12700000000E+01 0.  1.
          2    1    1    2  502    0 -0.85217359999E+02  0.61388792494E+02  0.18035519796E+04  0.18066074076E+04  0.00000000000E+00 0. -1.
          2    1    1    2  503    0 -0.64918079836E+02 -0.41390191632E+02 -0.63979445752E+03  0.64441015892E+03  0.00000000000E+00 0. -1.
<mgrwt>
<rscale>  0 0.90283436E+02</rscale>
<asrwt>0</asrwt>
<pdfrwt beam="1">  1        2 0.30702001E+00 0.10587177E+03</pdfrwt>
<pdfrwt beam="2">  1        2 0.10689961E+00 0.76990292E+02</pdfrwt>
<totfact> 0.56541662E+01</totfact>
</mgrwt>
</event>
<event>
 7    1  0.3113530E-004  0.4350001E+02  0.7546771E-02  0.1531105E+00
          2   -1    0    0  502    0  0.00000000000E+00  0.00000000000E+00  0.33233290528E+03  0.33233290528E+03  0.00000000000E+00 0. -1.
          2   -1    0    0  503    0 -0.00000000000E+00 -0.00000000000E+00 -0.10448968722E+04  0.10448968722E+04  0.00000000000E+00 0. -1.
         25    2    1    2    0    0  0.54782084611E+02 -0.45671759016E+02  0.16338812585E+03  0.21773231208E+03  0.12499877474E+03 0.  0.
          4    1    3    3  501    0  0.47237794260E+02  0.21428964795E+02  0.13471544049E+03  0.14436229614E+03  0.12700000000E+01 0.  1.
         -4    1    3    3    0  501  0.75442903510E+01 -0.67100723811E+02  0.28672685360E+02  0.73370015937E+02  0.12700000000E+01 0.  1.
          2    1    1    2  502    0 -0.34325109273E+02  0.21641702864E+02  0.13861875489E+03  0.14443592226E+03  0.00000000000E+00 0. -1.
          2    1    1    2  503    0 -0.20456975338E+02  0.24030056152E+02 -0.10145708477E+04  0.10150615432E+04  0.00000000000E+00 0. -1.
<mgrwt>
<rscale>  0 0.37051181E+02</rscale>
<asrwt>0</asrwt>
<pdfrwt beam="1">  1        2 0.51128140E-01 0.43500014E+02</pdfrwt>
<pdfrwt beam="2">  1        2 0.16075336E+00 0.31558381E+02</pdfrwt>
<totfact> 0.41886301E+02</totfact>
</mgrwt>
</event>
<event>
 7    1  0.3113530E-004  0.9907750E+02  0.7546771E-02  0.1331428E+00
          2   -1    0    0  503    0  0.00000000000E+00  0.00000000000E+00  0.80176611873E+03  0.80176611873E+03  0.00000000000E+00 0. -1.
         -2   -1    0    0    0  501 -0.00000000000E+00 -0.00000000000E+00 -0.47770809045E+03  0.47770809045E+03  0.00000000000E+00 0.  1.
         25    2    1    2    0    0 -0.10623833421E+03 -0.63451313535E+02  0.11336667123E+01  0.17589414948E+03  0.12499925510E+03 0.  0.
          4    1    3    3  502    0 -0.13038407102E+03 -0.36104583303E+02  0.16479666828E+02  0.13629651217E+03  0.12700000000E+01 0. -1.
         -4    1    3    3    0  502  0.24145736814E+02 -0.27346730232E+02 -0.15346000116E+02  0.39597637306E+02  0.12700000000E+01 0. -1.
          2    1    1    2  503    0  0.47382109379E+02  0.86641090508E+02  0.70723587655E+03  0.71409686173E+03  0.00000000000E+00 0. -1.
         -2    1    1    2    0  501  0.58856224830E+02 -0.23189776973E+02 -0.38431151497E+03  0.38948319797E+03  0.00000000000E+00 0.  1.
<mgrwt>
<rscale>  0 0.79168410E+02</rscale>
<asrwt>0</asrwt>
<pdfrwt beam="1">  1        2 0.12334863E+00 0.99077496E+02</pdfrwt>
<pdfrwt beam="2">  1       -2 0.73493553E-01 0.63259947E+02</pdfrwt>
<totfact> 0.65363120E+01</totfact>
</mgrwt>
</event>
<event>
 7    1  0.3113530E-004  0.7433036E+02  0.7546771E-02  0.1395098E+00
          1   -1    0    0  502    0  0.00000000000E+00  0.00000000000E+00  0.58128122112E+03  0.58128122112E+03  0.00000000000E+00 0. -1.
          3   -1    0    0  503    0 -0.00000000000E+00 -0.00000000000E+00 -0.19329471751E+04  0.19329471751E+04  0.00000000000E+00 0. -1.
         25    2    1    2    0    0 -0.33188056702E+02 -0.52995839528E+02 -0.11380518582E+04  0.11466023687E+04  0.12499981497E+03 0.  0.
          4    1    3    3  501    0 -0.18619338130E+02 -0.48625260058E+02 -0.15664529186E+03  0.16507712146E+03  0.12700000000E+01 0. -1.
         -4    1    3    3    0  501 -0.14568718573E+02 -0.43705794695E+01 -0.98140656638E+03  0.98152524723E+03  0.12700000000E+01 0. -1.
          1    1    1    2  502    0  0.37749939950E+02 -0.32014999942E+02  0.57364534917E+03  0.57577687068E+03  0.00000000000E+00 0. -1.
          3    1    1    2  503    0 -0.45618832473E+01  0.85010839470E+02 -0.78725944488E+03  0.79184915682E+03  0.00000000000E+00 0. -1.
<mgrwt>
<rscale>  0 0.60656233E+02</rscale>
<asrwt>0</asrwt>
<pdfrwt beam="1">  1        1 0.89427882E-01 0.49497658E+02</pdfrwt>
<pdfrwt beam="2">  1        3 0.29737648E+00 0.74330357E+02</pdfrwt>
<totfact> 0.10646084E+00</totfact>
</mgrwt>
</event>
<event>
 7    1  0.3113530E-004  0.7683367E+02  0.7546771E-02  0.1363052E+00
         -1   -1    0    0    0  501 -0.00000000000E+00  0.00000000000E+00  0.11283596829E+03  0.11283596829E+03  0.00000000000E+00 0.  1.
          2   -1    0    0  503    0  0.00000000000E+00 -0.00000000000E+00 -0.28002522992E+03  0.28002522992E+03  0.00000000000E+00 0. -1.
         25    2    1    2    0    0 -0.11591482753E+03  0.50113118696E+02 -0.12336079336E+02  0.17811997017E+03  0.12500789181E+03 0.  0.
          4    1    3    3  502    0 -0.11185236782E+03  0.74239791644E+02  0.21892434593E+02  0.13602716803E+03  0.12700000000E+01 0. -1.
         -4    1    3    3    0  502 -0.40624597091E+01 -0.24126672948E+02 -0.34228513929E+02  0.42092802143E+02  0.12700000000E+01 0. -1.
          2    1    1    2  503    0  0.53751032617E+02 -0.47668616365E+02 -0.12841274419E+03  0.14714381864E+03  0.00000000000E+00 0. -1.
         -1    1    1    2    0  501  0.62163794913E+02 -0.24445023306E+01 -0.26440438113E+02  0.67597409398E+02  0.00000000000E+00 0.  1.
<mgrwt>
<rscale>  0 0.69137284E+02</rscale>
<asrwt>0</asrwt>
<pdfrwt beam="2">  1        2 0.43080804E-01 0.76833671E+02</pdfrwt>
<pdfrwt beam="1">  1       -1 0.17359380E-01 0.62211840E+02</pdfrwt>
<totfact> 0.31765502E+03</totfact>
</mgrwt>
</event>
<event>
 7    1  0.3113530E-004  0.1232895E+03  0.7546771E-02  0.1340152E+00
          1   -1    0    0  503    0  0.00000000000E+00  0.00000000000E+00  0.12194693936E+04  0.12194693936E+04  0.00000000000E+00 0. -1.
         -2   -1    0    0    0  501 -0.00000000000E+00 -0.00000000000E+00 -0.66424297207E+02  0.66424297207E+02  0.00000000000E+00 0.  1.
         25    2    1    2    0    0  0.11360094557E+03 -0.12250247073E+03  0.10556165022E+04  0.10760359417E+04  0.12496046559E+03 0.  0.
          4    1    3    3  502    0  0.14091483433E+03 -0.97236413500E+02  0.88406139950E+03  0.90048769099E+03  0.12700000000E+01 0.  1.
         -4    1    3    3    0  502 -0.27313888753E+02 -0.25266057233E+02  0.17155510273E+03  0.17554825075E+03  0.12700000000E+01 0.  1.
          1    1    1    2  503    0 -0.35328569711E+02  0.31169699592E+02  0.73365638683E+02  0.87190452172E+02  0.00000000000E+00 0. -1.
         -2    1    1    2    0  501 -0.78272375863E+02  0.91332771142E+02  0.24062955510E+02  0.12266729693E+03  0.00000000000E+00 0.  1.
<mgrwt>
<rscale>  0 0.76213955E+02</rscale>
<asrwt>0</asrwt>
<pdfrwt beam="1">  1        1 0.18761066E+00 0.47113247E+02</pdfrwt>
<pdfrwt beam="2">  1       -2 0.10219124E-01 0.12328946E+03</pdfrwt>
<totfact> 0.68719352E+02</totfact>
</mgrwt>
</event>
<event>
 7    1  0.3113530E-004  0.3374306E+02  0.7546771E-02  0.1604781E+00
          1   -1    0    0  503    0  0.00000000000E+00  0.00000000000E+00  0.82431140840E+03  0.82431140840E+03  0.00000000000E+00 0. -1.
         -2   -1    0    0    0  501 -0.00000000000E+00 -0.00000000000E+00 -0.13617677023E+02  0.13617677023E+02  0.00000000000E+00 0.  1.
         25    2    1    2    0    0  0.14505042862E+02  0.16984139470E+01  0.60099761022E+03  0.61403239168E+03  0.12499747865E+03 0.  0.
          4    1    3    3  502    0 -0.92140660723E+01 -0.18579597316E+02  0.11577708143E+02  0.23785640119E+02  0.12700000000E+01 0.  1.
         -4    1    3    3    0  502  0.23719108934E+02  0.20278011263E+02  0.58941990208E+03  0.59024675156E+03  0.12700000000E+01 0.  1.
          1    1    1    2  503    0 -0.39970954886E+02 -0.45172799225E+01  0.18104734314E+03  0.18546218890E+03  0.00000000000E+00 0. -1.
         -2    1    1    2    0  501  0.25465912024E+02  0.28188659755E+01  0.28648778018E+02  0.38434504843E+02  0.00000000000E+00 0.  1.
<mgrwt>
<rscale>  0 0.29403167E+02</rscale>
<asrwt>0</asrwt>
<pdfrwt beam="1">  1        1 0.12681710E+00 0.33743064E+02</pdfrwt>
<pdfrwt beam="2">  1       -2 0.20950279E-02 0.25621450E+02</pdfrwt>
<totfact> 0.11183643E+04</totfact>
</mgrwt>
</event>
<event>
 7    1  0.3113530E-004  0.5585434E+02  0.7546771E-02  0.1553154E+00
         -2   -1    0    0    0  501 -0.00000000000E+00  0.00000000000E+00  0.39237966838E+03  0.39237966838E+03  0.00000000000E+00 0. -1.
          1   -1    0    0  503    0  0.00000000000E+00 -0.00000000000E+00 -0.28752780424E+03  0.28752780424E+03  0.00000000000E+00 0. -1.
         25    2    1    2    0    0 -0.33741251007E+02  0.45750071146E+02  0.19509690877E+02  0.13872702777E+03  0.12503207255E+03 0.  0.
          4    1    3    3  502    0 -0.63769091848E+02  0.80000583811E+01 -0.28807736506E+02  0.70441440870E+02  0.12700000000E+01 0.  1.
         -4    1    3    3    0  502  0.30027840841E+02  0.37750012765E+02  0.48317427383E+02  0.68285586900E+02  0.12700000000E+01 0.  1.
          1    1    1    2  503    0  0.14169796760E+02 -0.54156972975E+02 -0.22411012900E+03  0.23099591075E+03  0.00000000000E+00 0. -1.
         -2    1    1    2    0  501  0.19571454248E+02  0.84069018285E+01  0.30945230227E+03  0.31018453410E+03  0.00000000000E+00 0. -1.
<mgrwt>
<rscale>  0 0.34492519E+02</rscale>
<asrwt>0</asrwt>
<pdfrwt beam="2">  1        1 0.44235047E-01 0.55854336E+02</pdfrwt>
<pdfrwt beam="1">  1       -2 0.60366103E-01 0.21300653E+02</pdfrwt>
<totfact> 0.21508052E+02</totfact>
</mgrwt>
</event>
<event>
 7    1  0.3113530E-004  0.1623303E+03  0.7546771E-02  0.1269233E+00
          1   -1    0    0  503    0  0.00000000000E+00  0.00000000000E+00  0.11494685023E+04  0.11494685023E+04  0.00000000000E+00 0. -1.
         -2   -1    0    0    0  501 -0.00000000000E+00 -0.00000000000E+00 -0.34808933559E+03  0.34808933559E+03  0.00000000000E+00 0.  1.
         25    2    1    2    0    0  0.80078011765E+02 -0.54241474479E+02  0.45706578971E+03  0.48362127444E+03  0.12500310174E+03 0.  0.
          4    1    3    3  502    0  0.25128562018E+02 -0.73447313938E+01  0.61092259509E+01  0.26913291327E+02  0.12700000000E+01 0. -1.
         -4    1    3    3    0  502  0.54949449747E+02 -0.46896743085E+02  0.45095656376E+03  0.45670798311E+03  0.12700000000E+01 0. -1.
          1    1    1    2  503    0  0.58226143332E+02 -0.36086399983E+02  0.65685985064E+03  0.66042211912E+03  0.00000000000E+00 0. -1.
         -2    1    1    2    0  501 -0.13830415510E+03  0.90327874462E+02 -0.31254647361E+03  0.35351444438E+03  0.00000000000E+00 0.  1.
<mgrwt>
<rscale>  0 0.10545109E+03</rscale>
<asrwt>0</asrwt>
<pdfrwt beam="1">  1        1 0.17684131E+00 0.68501913E+02</pdfrwt>
<pdfrwt beam="2">  1       -2 0.53552206E-01 0.16233026E+03</pdfrwt>
<totfact> 0.41095597E+01</totfact>
</mgrwt>
</event>
<event>
 7    1  0.3113530E-004  0.1285848E+03  0.7546771E-02  0.1307109E+00
         -1   -1    0    0    0  501  0.00000000000E+00  0.00000000000E+00  0.16384629318E+04  0.16384629318E+04  0.00000000000E+00 0.  1.
         -1   -1    0    0    0  502 -0.00000000000E+00 -0.00000000000E+00 -0.83240562471E+03  0.83240562471E+03  0.00000000000E+00 0.  1.
         25    2    1    2    0    0 -0.92838513260E+02  0.70776834181E+02  0.11733454564E+04  0.11857456523E+04  0.12499936779E+03 0.  0.
          4    1    3    3  503    0 -0.26570341671E+02  0.58919408068E+02  0.20250799816E+03  0.21257606150E+03  0.12700000000E+01 0. -1.
         -4    1    3    3    0  503 -0.66268171588E+02  0.11857426114E+02  0.97083745825E+03  0.97316959075E+03  0.12700000000E+01 0. -1.
         -1    1    1    2    0  502  0.12555964336E+01  0.60574757362E+02 -0.81107311547E+03  0.81333294313E+03  0.00000000000E+00 0.  1.
         -1    1    1    2    0  501  0.91582916826E+02 -0.13135159154E+03  0.44378496615E+03  0.47178996115E+03  0.00000000000E+00 0.  1.
<mgrwt>
<rscale>  0 0.88264748E+02</rscale>
<asrwt>0</asrwt>
<pdfrwt beam="1">  1       -1 0.25207122E+00 0.12858479E+03</pdfrwt>
<pdfrwt beam="2">  1       -1 0.12806240E+00 0.60587769E+02</pdfrwt>
<totfact> 0.43776255E-01</totfact>
</mgrwt>
</event>
<event>
 7    1  0.3113530E-004  0.5382025E+02  0.7546771E-02  0.1515710E+00
         -1   -1    0    0    0  501 -0.00000000000E+00  0.00000000000E+00  0.81572438501E+01  0.81572438501E+01  0.00000000000E+00 0.  1.
          2   -1    0    0  503    0  0.00000000000E+00 -0.00000000000E+00 -0.26193035901E+04  0.26193035901E+04  0.00000000000E+00 0. -1.
         25    2    1    2    0    0 -0.55022533956E+02 -0.35604837586E+02 -0.21661978238E+04  0.21707911364E+04  0.12500384967E+03 0.  0.
          4    1    3    3  502    0 -0.11631917062E+02  0.45043357987E+02 -0.53329589524E+03  0.53532264137E+03  0.12700000000E+01 0. -1.
         -4    1    3    3    0  502 -0.43390616894E+02 -0.80648195574E+02 -0.16329019286E+04  0.16354684951E+04  0.12700000000E+01 0. -1.
          2    1    1    2  503    0  0.27097995434E+02  0.39941062898E+02 -0.40425608806E+03  0.40712722163E+03  0.00000000000E+00 0. -1.
         -1    1    1    2    0  501  0.27924538523E+02 -0.43362253116E+01 -0.40692434422E+02  0.49542475925E+02  0.00000000000E+00 0.  1.
<mgrwt>
<rscale>  0 0.38998944E+02</rscale>
<asrwt>0</asrwt>
<pdfrwt beam="2">  1        2 0.40296931E+00 0.53820255E+02</pdfrwt>
<pdfrwt beam="1">  1       -1 0.12549621E-02 0.28259206E+02</pdfrwt>
<totfact> 0.46580306E+03</totfact>
</mgrwt>
</event>
<event>
 7    1  0.3113530E-004  0.1088895E+03  0.7546771E-02  0.1292540E+00
          2   -1    0    0  502    0  0.00000000000E+00  0.00000000000E+00  0.30803143476E+03  0.30803143476E+03  0.00000000000E+00 0.  1.
          3   -1    0    0  503    0 -0.00000000000E+00 -0.00000000000E+00 -0.38354518831E+03  0.38354518831E+03  0.00000000000E+00 0. -1.
         25    2    1    2    0    0  0.14744051575E+03 -0.79077378680E+02 -0.14706554881E+03  0.25542826116E+03  0.12499353364E+03 0.  0.
          4    1    3    3  501    0  0.15732823073E+03 -0.35294944701E+02 -0.96979562887E+02  0.18816097849E+03  0.12700000000E+01 0. -1.
         -4    1    3    3    0  501 -0.98877149855E+01 -0.43782433979E+02 -0.50085985925E+02  0.67267282678E+02  0.12700000000E+01 0. -1.
          2    1    1    2  502    0 -0.81302447269E+02  0.93032753529E+01  0.23371583837E+03  0.24762821319E+03  0.00000000000E+00 0.  1.
          3    1    1    2  503    0 -0.66138068478E+02  0.69774103327E+02 -0.16216404310E+03  0.18852014871E+03  0.00000000000E+00 0. -1.
<mgrwt>
<rscale>  0 0.94396800E+02</rscale>
<asrwt>0</asrwt>
<pdfrwt beam="1">  1        2 0.47389452E-01 0.81832994E+02</pdfrwt>
<pdfrwt beam="2">  1        3 0.59006952E-01 0.10888953E+03</pdfrwt>
<totfact> 0.18134320E+02</totfact>
</mgrwt>
</event>
<event>
 7    1  0.3113530E-004  0.1418065E+03  0.7546771E-02  0.1347710E+00
          1   -1    0    0  503    0  0.00000000000E+00  0.00000000000E+00  0.90083653923E+03  0.90083653923E+03  0.00000000000E+00 0. -1.
         -1   -1    0    0    0  501 -0.00000000000E+00 -0.00000000000E+00 -0.39677268286E+02  0.39677268286E+02  0.00000000000E+00 0.  1.
         25    2    1    2    0    0  0.75880696642E+01  0.14937825958E+03  0.51445352093E+03  0.55013707152E+03  0.12496771195E+03 0.  0.
          4    1    3    3  502    0 -0.23007057931E+02  0.73803303303E+02  0.93348802627E+02  0.12121000018E+03  0.12700000000E+01 0.  1.
         -4    1    3    3    0  502  0.30595127595E+02  0.75574956277E+02  0.42110471830E+03  0.42892707133E+03  0.12700000000E+01 0.  1.
          1    1    1    2  503    0 -0.40558453645E+02 -0.12973066596E+03  0.22609734714E+03  0.26380872661E+03  0.00000000000E+00 0. -1.
         -1    1    1    2    0  501  0.32970383981E+02 -0.19647593617E+02  0.12060840288E+03  0.12656800938E+03  0.00000000000E+00 0.  1.
<mgrwt>
<rscale>  0 0.73774146E+02</rscale>
<asrwt>0</asrwt>
<pdfrwt beam="1">  1        1 0.13859022E+00 0.14180648E+03</pdfrwt>
<pdfrwt beam="2">  1       -1 0.61041958E-02 0.38380648E+02</pdfrwt>
<totfact> 0.21685190E+03</totfact>
</mgrwt>
</event>
<event>
 7    1  0.3113530E-004  0.5493548E+02  0.7546771E-02  0.1478735E+00
         -1   -1    0    0    0  501 -0.00000000000E+00  0.00000000000E+00  0.13893429852E+03  0.13893429852E+03  0.00000000000E+00 0.  1.
          2   -1    0    0  503    0  0.00000000000E+00 -0.00000000000E+00 -0.23413969930E+04  0.23413969930E+04  0.00000000000E+00 0. -1.
         25    2    1    2    0    0  0.62727713129E+02  0.29898414180E+02 -0.93424863688E+03  0.94513144265E+03  0.12499698880E+03 0.  0.
          4    1    3    3  502    0  0.39703541134E+02 -0.24010626100E+02 -0.11832111449E+03  0.12709988347E+03  0.12700000000E+01 0. -1.
         -4    1    3    3    0  502  0.23024171995E+02  0.53909040280E+02 -0.81592752239E+03  0.81803155918E+03  0.12700000000E+01 0. -1.
          2    1    1    2  503    0 -0.54149921989E+02  0.47863669840E+01 -0.13987787107E+04  0.13998346348E+04  0.00000000000E+00 0. -1.
         -1    1    1    2    0  501 -0.85777911398E+01 -0.34684781164E+02  0.13056465308E+03  0.13536521406E+03  0.00000000000E+00 0.  1.
<mgrwt>
<rscale>  0 0.44303826E+02</rscale>
<asrwt>0</asrwt>
<pdfrwt beam="2">  1        2 0.36021489E+00 0.54935478E+02</pdfrwt>
<pdfrwt beam="1">  1       -1 0.21374509E-01 0.35729715E+02</pdfrwt>
<totfact> 0.11541622E+02</totfact>
</mgrwt>
</event>
<event>
 7    1  0.3113530E-004  0.2526622E+02  0.7546771E-02  0.1695550E+00
         -2   -1    0    0    0  501 -0.00000000000E+00  0.00000000000E+00  0.21234776675E+02  0.21234776675E+02  0.00000000000E+00 0.  1.
          1   -1    0    0  503    0  0.00000000000E+00 -0.00000000000E+00 -0.50022544717E+03  0.50022544717E+03  0.00000000000E+00 0. -1.
         25    2    1    2    0    0 -0.32839224816E+01  0.18301752266E+02 -0.27976333846E+03  0.30698345697E+03  0.12500231606E+03 0.  0.
          4    1    3    3  502    0 -0.58521407770E+00  0.29685308596E+02 -0.28991973383E+03  0.29143888722E+03  0.12700000000E+01 0.  1.
         -4    1    3    3    0  502 -0.26987084039E+01 -0.11383556329E+02  0.10156395365E+02  0.15544569745E+02  0.12700000000E+01 0.  1.
          1    1    1    2  503    0 -0.19749494207E+02 -0.54559067900E+01 -0.18160614461E+03  0.18275831363E+03  0.00000000000E+00 0. -1.
         -2    1    1    2    0  501  0.23033416689E+02 -0.12845845476E+02 -0.17621187420E+02  0.31718453248E+02  0.00000000000E+00 0.  1.
<mgrwt>
<rscale>  0 0.22752714E+02</rscale>
<asrwt>0</asrwt>
<pdfrwt beam="2">  1        1 0.76957750E-01 0.20489252E+02</pdfrwt>
<pdfrwt beam="1">  1       -2 0.32668892E-02 0.25266222E+02</pdfrwt>
<totfact> 0.11720374E+04</totfact>
</mgrwt>
</event>
<event>
 7    1  0.3113530E-004  0.1780059E+03  0.7546771E-02  0.1274174E+00
          1   -1    0    0  503    0  0.00000000000E+00  0.00000000000E+00  0.96753838288E+03  0.96753838288E+03  0.00000000000E+00 0. -1.
         -1   -1    0    0    0  501 -0.00000000000E+00 -0.00000000000E+00 -0.18615214803E+03  0.18615214803E+03  0.00000000000E+00 0.  1.
         25    2    1    2    0    0  0.12801504546E+03  0.54683801408E+02  0.11587485403E+03  0.22006070958E+03  0.12498625566E+03 0.  0.
          4    1    3    3  502    0  0.13589039767E+03  0.81592179047E+02  0.92420419320E+02  0.18348468783E+03  0.12700000000E+01 0.  1.
         -4    1    3    3    0  502 -0.78753522078E+01 -0.26908377639E+02  0.23454434710E+02  0.36576021751E+02  0.12700000000E+01 0.  1.
          1    1    1    2  503    0 -0.18376720969E+03 -0.33720643625E+02  0.78134864444E+03  0.80337610951E+03  0.00000000000E+00 0. -1.
         -1    1    1    2    0  501  0.55752164230E+02 -0.20963157783E+02 -0.11583726361E+03  0.13025371182E+03  0.00000000000E+00 0.  1.
<mgrwt>
<rscale>  0 0.10296880E+03</rscale>
<asrwt>0</asrwt>
<pdfrwt beam="1">  1        1 0.14885206E+00 0.17800588E+03</pdfrwt>
<pdfrwt beam="2">  1       -1 0.28638793E-01 0.59563057E+02</pdfrwt>
<totfact> 0.18859799E+02</totfact>
</mgrwt>
</event>
<event>
 7    1  0.3113530E-004  0.1116824E+03  0.7546771E-02  0.1418589E+00
          2   -1    0    0  503    0  0.00000000000E+00  0.00000000000E+00  0.11793528165E+04  0.11793528165E+04  0.00000000000E+00 0. -1.
         -1   -1    0    0    0  501 -0.00000000000E+00 -0.00000000000E+00 -0.13535488342E+04  0.13535488342E+04  0.00000000000E+00 0.  1.
         25    2    1    2    0    0  0.43877304652E+02  0.11207439391E+03  0.38982354884E+03  0.42669932109E+03  0.12499609495E+03 0.  0.
          4    1    3    3  502    0  0.12630047168E+01 -0.13590385248E+02  0.16548684601E+03  0.16605361440E+03  0.12700000000E+01 0. -1.
         -4    1    3    3    0  502  0.42614299935E+02  0.12566477916E+03  0.22433670283E+03  0.26064570670E+03  0.12700000000E+01 0. -1.
          2    1    1    2  503    0 -0.16639483652E+02 -0.10907574704E+03  0.76700250817E+03  0.77489821173E+03  0.00000000000E+00 0. -1.
         -1    1    1    2    0  501 -0.27237821001E+02 -0.29986468733E+01 -0.13310220747E+04  0.13313041178E+04  0.00000000000E+00 0.  1.
<mgrwt>
<rscale>  0 0.55320568E+02</rscale>
<asrwt>0</asrwt>
<pdfrwt beam="1">  1        2 0.18143889E+00 0.11168244E+03</pdfrwt>
<pdfrwt beam="2">  1       -1 0.20823828E+00 0.27402386E+02</pdfrwt>
<totfact> 0.45533756E+00</totfact>
</mgrwt>
</event>
<event>
 7    1  0.3113530E-004  0.5940419E+02  0.7546771E-02  0.1441687E+00
          1   -1    0    0  503    0 -0.00000000000E+00  0.00000000000E+00  0.51712336792E+03  0.51712336792E+03  0.00000000000E+00 0. -1.
          2   -1    0    0  502    0  0.00000000000E+00 -0.00000000000E+00 -0.40053857307E+03  0.40053857307E+03  0.00000000000E+00 0. -1.
         25    2    1    2    0    0  0.65967148181E+02  0.11660251308E+02 -0.23283614901E+03  0.27262794484E+03  0.12500279167E+03 0.  0.
          4    1    3    3  501    0  0.67463530136E+02 -0.37810224128E+02 -0.77096439430E+02  0.10920812616E+03  0.12700000000E+01 0.  1.
         -4    1    3    3    0  501 -0.14963819552E+01  0.49470475436E+02 -0.15573970958E+03  0.16341981868E+03  0.12700000000E+01 0.  1.
          2    1    1    2  502    0 -0.14171158295E+02 -0.40855977890E+02 -0.14281581695E+03  0.14921926895E+03  0.00000000000E+00 0. -1.
          1    1    1    2  503    0 -0.51795989886E+02  0.29195726581E+02  0.49223676080E+03  0.49581472719E+03  0.00000000000E+00 0. -1.
<mgrwt>
<rscale>  0 0.50683994E+02</rscale>
<asrwt>0</asrwt>
<pdfrwt beam="2">  1        2 0.61621319E-01 0.43243874E+02</pdfrwt>
<pdfrwt beam="1">  1        1 0.79557441E-01 0.59404188E+02</pdfrwt>
<totfact> 0.49154111E+02</totfact>
</mgrwt>
</event>
<event>
 7    1  0.3113530E-004  0.1201051E+03  0.7546771E-02  0.1277053E+00
          2   -1    0    0  503    0  0.00000000000E+00  0.00000000000E+00  0.11102371807E+03  0.11102371807E+03  0.00000000000E+00 0. -1.
          2   -1    0    0  502    0 -0.00000000000E+00 -0.00000000000E+00 -0.36071340916E+04  0.36071340916E+04  0.00000000000E+00 0. -1.
         25    2    1    2    0    0  0.86111936679E+01  0.16830781404E+03 -0.18357124567E+03  0.27879301783E+03  0.12500188650E+03 0.  0.
          4    1    3    3  501    0  0.90475404866E+01 -0.69649265749E+01 -0.67722517614E+02  0.68690031904E+02  0.12700000000E+01 0.  1.
         -4    1    3    3    0  501 -0.43634681870E+00  0.17527274061E+03 -0.11584872806E+03  0.21010298592E+03  0.12700000000E+01 0.  1.
          2    1    1    2  502    0  0.52060164270E+02 -0.10753369020E+03 -0.33453149335E+04  0.33474476485E+04  0.00000000000E+00 0. -1.
          2    1    1    2  503    0 -0.60671357938E+02 -0.60774123836E+02  0.32775805642E+02  0.91917143327E+02  0.00000000000E+00 0. -1.
<mgrwt>
<rscale>  0 0.10155797E+03</rscale>
<asrwt>0</asrwt>
<pdfrwt beam="1">  1        2 0.17080572E-01 0.85874954E+02</pdfrwt>
<pdfrwt beam="2">  1        2 0.55494369E+00 0.12010512E+03</pdfrwt>
<totfact> 0.49293058E+01</totfact>
</mgrwt>
</event>
<event>
 7    1  0.3113530E-004  0.4824006E+02  0.7546771E-02  0.1544629E+00
          1   -1    0    0  503    0  0.00000000000E+00  0.00000000000E+00  0.40769450212E+03  0.40769450212E+03  0.00000000000E+00 0. -1.
         -1   -1    0    0    0  501 -0.00000000000E+00 -0.00000000000E+00 -0.52804187506E+02  0.52804187506E+02  0.00000000000E+00 0.  1.
         25    2    1    2    0    0 -0.52548888630E+02  0.48891221844E+02  0.93423566107E+02  0.17174326032E+03  0.12496418484E+03 0.  0.
          4    1    3    3  502    0  0.16924952493E+02  0.36549058090E+02 -0.14471468033E+02  0.42817332369E+02  0.12700000000E+01 0.  1.
         -4    1    3    3    0  502 -0.69473841122E+02  0.12342163754E+02  0.10789503414E+03  0.12892592795E+03  0.12700000000E+01 0.  1.
          1    1    1    2  503    0  0.29648152373E+02 -0.36468909735E+02  0.25826463174E+03  0.26250640816E+03  0.00000000000E+00 0. -1.
         -1    1    1    2    0  501  0.22900736257E+02 -0.12422312109E+02  0.32021167645E+01  0.26249021144E+02  0.00000000000E+00 0.  1.
<mgrwt>
<rscale>  0 0.35451334E+02</rscale>
<asrwt>0</asrwt>
<pdfrwt beam="1">  1        1 0.62722229E-01 0.48240058E+02</pdfrwt>
<pdfrwt beam="2">  1       -1 0.81237214E-02 0.26052976E+02</pdfrwt>
<totfact> 0.42003761E+03</totfact>
</mgrwt>
</event>
<event>
 7    1  0.3113530E-004  0.9821204E+02  0.7546771E-02  0.1449899E+00
         -2   -1    0    0    0  501 -0.00000000000E+00  0.00000000000E+00  0.14134803719E+03  0.14134803719E+03  0.00000000000E+00 0.  1.
          1   -1    0    0  503    0  0.00000000000E+00 -0.00000000000E+00 -0.18248665269E+03  0.18248665269E+03  0.00000000000E+00 0. -1.
         25    2    1    2    0    0  0.75862868230E+02  0.55697545670E+02  0.48564942068E+02  0.16383146012E+03  0.12499920943E+03 0.  0.
          4    1    3    3  502    0  0.21955972752E+02  0.52744133809E+02 -0.33014979275E+02  0.65997046504E+02  0.12700000000E+01 0.  1.
         -4    1    3    3    0  502  0.53906895478E+02  0.29534118613E+01  0.81579921343E+02  0.97834413618E+02  0.12700000000E+01 0.  1.
          1    1    1    2  503    0 -0.44208781844E+01  0.24211509564E+02 -0.10657069777E+02  0.26820039066E+02  0.00000000000E+00 0. -1.
         -2    1    1    2    0  501 -0.71441990045E+02 -0.79909055234E+02 -0.79046487793E+02  0.13318319069E+03  0.00000000000E+00 0.  1.
<mgrwt>
<rscale>  0 0.49164789E+02</rscale>
<asrwt>0</asrwt>
<pdfrwt beam="2">  1        1 0.28074870E-01 0.24611813E+02</pdfrwt>
<pdfrwt beam="1">  1       -2 0.21745852E-01 0.98212044E+02</pdfrwt>
<totfact> 0.24059659E+03</totfact>
</mgrwt>
</event>
<event>
 7    1  0.3113530E-004  0.1971458E+03  0.7546771E-02  0.1326864E+00
          2   -1    0    0  502    0  0.00000000000E+00  0.00000000000E+00  0.14666273327E+04  0.14666273327E+04  0.00000000000E+00 0. -1.
          2   -1    0    0  503    0 -0.00000000000E+00 -0.00000000000E+00 -0.17752753513E+03  0.17752753513E+03  0.00000000000E+00 0. -1.
         25    2    1    2    0    0  0.11795757817E+03  0.12023167968E+03  0.65967199617E+03  0.69221282461E+03  0.12498721930E+03 0.  0.
          4    1    3    3  501    0  0.12844655762E+03  0.86437449820E+02  0.38034348371E+03  0.41064915609E+03  0.12700000000E+01 0. -1.
         -4    1    3    3    0  501 -0.10488979455E+02  0.33794229857E+02  0.27932851245E+03  0.28156366852E+03  0.12700000000E+01 0. -1.
          2    1    1    2  502    0  0.13545414255E+02  0.30197237654E+02  0.72827284881E+03  0.72902448088E+03  0.00000000000E+00 0. -1.
          2    1    1    2  503    0 -0.13150299242E+03 -0.15042891733E+03 -0.98845047433E+02  0.22291756231E+03  0.00000000000E+00 0. -1.
<mgrwt>
<rscale>  0 0.80775952E+02</rscale>
<asrwt>0</asrwt>
<pdfrwt beam="1">  1        2 0.22563497E+00 0.33096094E+02</pdfrwt>
<pdfrwt beam="2">  1        2 0.27311930E-01 0.19714576E+03</pdfrwt>
<totfact> 0.50505356E+02</totfact>
</mgrwt>
</event>
<event>
 7    1  0.3113530E-004  0.6148593E+02  0.7546771E-02  0.1545301E+00
          2   -1    0    0  503    0  0.00000000000E+00  0.00000000000E+00  0.11802552935E+03  0.11802552935E+03  0.00000000000E+00 0. -1.
         -1   -1    0    0    0  501 -0.00000000000E+00 -0.00000000000E+00 -0.13752884766E+03  0.13752884766E+03  0.00000000000E+00 0.  1.
         25    2    1    2    0    0  0.45613219101E+02 -0.47204931489E+02  0.21525741955E+02  0.14283196663E+03  0.12501496635E+03 0.  0.
          4    1    3    3  502    0  0.64792101434E+02 -0.25900421922E+02 -0.36015034941E+02  0.78533711906E+02  0.12700000000E+01 0. -1.
         -4    1    3    3    0  502 -0.19178882332E+02 -0.21304509567E+02  0.57540776896E+02  0.64298254729E+02  0.12700000000E+01 0. -1.
          2    1    1    2  503    0 -0.53504542207E+02  0.28445413017E+02  0.65737657068E+01  0.60951554156E+02  0.00000000000E+00 0. -1.
         -1    1    1    2    0  501  0.78913231059E+01  0.18759518472E+02 -0.47602825968E+02  0.51770856220E+02  0.00000000000E+00 0.  1.
<mgrwt>
<rscale>  0 0.35374348E+02</rscale>
<asrwt>0</asrwt>
<pdfrwt beam="1">  1        2 0.18157774E-01 0.61485933E+02</pdfrwt>
<pdfrwt beam="2">  1       -1 0.21158284E-01 0.20351720E+02</pdfrwt>
<totfact> 0.55131395E+03</totfact>
</mgrwt>
</event>
<event>
 7    1  0.3113530E-004  0.1010720E+03  0.7546771E-02  0.1345258E+00
         -2   -1    0    0    0  501 -0.00000000000E+00  0.00000000000E+00  0.61767337042E+02  0.61767337042E+02  0.00000000000E+00 0.  1.
          1   -1    0    0  503    0  0.00000000000E+00 -0.00000000000E+00 -0.49537524550E+03  0.49537524550E+03  0.00000000000E+00 0. -1.
         25    2    1    2    0    0 -0.28102311642E+02 -0.13911047311E+03 -0.25171924421E+03  0.31483079050E+03  0.12495753315E+03 0.  0.
          4    1    3    3  502    0  0.22943954689E+02  0.10594329158E+02 -0.12956159112E+02  0.28427800232E+02  0.12700000000E+01 0.  1.
         -4    1    3    3    0  502 -0.51046266331E+02 -0.14970480227E+03 -0.23876308510E+03  0.28640299027E+03  0.12700000000E+01 0.  1.
          1    1    1    2  503    0  0.16997218364E+02  0.85250079892E+02 -0.16196941224E+03  0.18382212069E+03  0.00000000000E+00 0. -1.
         -2    1    1    2    0  501  0.11105093278E+02  0.53860393220E+02 -0.19919252012E+02  0.58489671355E+02  0.00000000000E+00 0.  1.
<mgrwt>
<rscale>  0 0.74553898E+02</rscale>
<asrwt>0</asrwt>
<pdfrwt beam="2">  1        1 0.76211576E-01 0.10107198E+03</pdfrwt>
<pdfrwt beam="1">  1       -2 0.95026673E-02 0.54993318E+02</pdfrwt>
<totfact> 0.26576191E+03</totfact>
</mgrwt>
</event>
<event>
 7    1  0.3113530E-004  0.8349618E+02  0.7546771E-02  0.1357837E+00
          1   -1    0    0  503    0 -0.00000000000E+00  0.00000000000E+00  0.28888579002E+03  0.28888579002E+03  0.00000000000E+00 0. -1.
          2   -1    0    0  502    0  0.00000000000E+00 -0.00000000000E+00 -0.28353028747E+03  0.28353028747E+03  0.00000000000E+00 0. -1.
         25    2    1    2    0    0 -0.58646488975E+02 -0.39298011409E+02  0.83666406652E+02  0.16616189564E+03  0.12500385430E+03 0.  0.
          4    1    3    3  501    0  0.35268314541E+02 -0.68644403911E+01  0.49308439861E+02  0.61023845290E+02  0.12700000000E+01 0. -1.
         -4    1    3    3    0  501 -0.93914803516E+02 -0.32433571018E+02  0.34357966791E+02  0.10513805035E+03  0.12700000000E+01 0. -1.
          2    1    1    2  502    0  0.84164614356E+02 -0.14795128997E+02 -0.22884160809E+03  0.24427660499E+03  0.00000000000E+00 0. -1.
          1    1    1    2  503    0 -0.25518125382E+02  0.54093140406E+02  0.15053070399E+03  0.16197757686E+03  0.00000000000E+00 0. -1.
<mgrwt>
<rscale>  0 0.70667610E+02</rscale>
<asrwt>0</asrwt>
<pdfrwt beam="2">  1        2 0.43620044E-01 0.83496181E+02</pdfrwt>
<pdfrwt beam="1">  1        1 0.44443968E-01 0.59810054E+02</pdfrwt>
<totfact> 0.14359071E+03</totfact>
</mgrwt>
</event>
<event>
 7    1  0.3113530E-004  0.7542149E+02  0.7546771E-02  0.1392385E+00
         -3   -1    0    0    0  502 -0.00000000000E+00  0.00000000000E+00  0.93098729450E+03  0.93098729450E+03  0.00000000000E+00 0.  1.
         -1   -1    0    0    0  501  0.00000000000E+00 -0.00000000000E+00 -0.40729212951E+03  0.40729212951E+03  0.00000000000E+00 0.  1.
         25    2    1    2    0    0  0.10361692021E+03  0.57842408448E+02  0.21702495534E+03  0.27714112038E+03  0.12500063599E+03 0.  0.
          4    1    3    3  503    0  0.15278284459E+02 -0.11766771045E+02  0.13879717653E+03  0.14013619086E+03  0.12700000000E+01 0. -1.
         -4    1    3    3    0  503  0.88338635748E+02  0.69609179493E+02  0.78227778816E+02  0.13700492952E+03  0.12700000000E+01 0. -1.
         -1    1    1    2    0  501 -0.54153822829E+02 -0.51635862507E+02 -0.37260114824E+03  0.38004014853E+03  0.00000000000E+00 0.  1.
         -3    1    1    2    0  502 -0.49463097378E+02 -0.62065459403E+01  0.67927135789E+03  0.68109815509E+03  0.00000000000E+00 0.  1.
<mgrwt>
<rscale>  0 0.61317488E+02</rscale>
<asrwt>0</asrwt>
<pdfrwt beam="2">  1       -1 0.62660328E-01 0.75421489E+02</pdfrwt>
<pdfrwt beam="1">  1       -3 0.14322881E+00 0.49850970E+02</pdfrwt>
<totfact> 0.48327374E+00</totfact>
</mgrwt>
</event>
<event>
 7    1  0.3113530E-004  0.1131052E+03  0.7546771E-02  0.1377866E+00
         -2   -1    0    0    0  501 -0.00000000000E+00  0.00000000000E+00  0.44443724991E+03  0.44443724991E+03  0.00000000000E+00 0.  1.
          1   -1    0    0  503    0  0.00000000000E+00 -0.00000000000E+00 -0.88640938788E+03  0.88640938788E+03  0.00000000000E+00 0. -1.
         25    2    1    2    0    0  0.60302157842E+02 -0.13434380756E+03  0.12113486024E+03  0.22799929704E+03  0.12500166486E+03 0.  0.
          4    1    3    3  502    0  0.85427049316E+02 -0.13438444906E+03  0.12513354131E+03  0.20252648460E+03  0.12700000000E+01 0.  1.
         -4    1    3    3    0  502 -0.25124891474E+02  0.40641504682E-01 -0.39986810745E+01  0.25472812441E+02  0.12700000000E+01 0.  1.
          1    1    1    2  503    0 -0.56485341507E+02  0.97152320640E+02 -0.82786748005E+03  0.83546019159E+03  0.00000000000E+00 0. -1.
         -2    1    1    2    0  501 -0.38168163346E+01  0.37191486915E+02  0.26476048184E+03  0.26738714915E+03  0.00000000000E+00 0.  1.
<mgrwt>
<rscale>  0 0.65028032E+02</rscale>
<asrwt>0</asrwt>
<pdfrwt beam="2">  1        1 0.13637067E+00 0.11310521E+03</pdfrwt>
<pdfrwt beam="1">  1       -2 0.68374962E-01 0.37386826E+02</pdfrwt>
<totfact> 0.37553370E+01</totfact>
</mgrwt>
</event>
<event>
 7    1  0.3113530E-004  0.1463253E+03  0.7546771E-02  0.1298350E+00
          2   -1    0    0  503    0  0.00000000000E+00  0.00000000000E+00  0.31391829740E+04  0.31391829740E+04  0.00000000000E+00 0. -1.
         -2   -1    0    0    0  501 -0.00000000000E+00 -0.00000000000E+00 -0.23538156744E+03  0.23538156744E+03  0.00000000000E+00 0.  1.
         25    2    1    2    0    0 -0.68828219179E+02 -0.15123077733E+03  0.16622673284E+03  0.26620178372E+03  0.12499596465E+03 0.  0.
          4    1    3    3  502    0 -0.93461813814E+00 -0.88408241443E+02  0.14726247268E+03  0.17176943682E+03  0.12700000000E+01 0. -1.
         -4    1    3    3    0  502 -0.67893601041E+02 -0.62822535882E+02  0.18964260161E+02  0.94432346896E+02  0.12700000000E+01 0. -1.
          2    1    1    2  503    0  0.11413466692E+02  0.14550549786E+03  0.29166098980E+04  0.29202594772E+04  0.00000000000E+00 0. -1.
         -2    1    1    2    0  501  0.57414752487E+02  0.57252794622E+01 -0.17903522425E+03  0.18810328054E+03  0.00000000000E+00 0.  1.
<mgrwt>
<rscale>  0 0.91885229E+02</rscale>
<asrwt>0</asrwt>
<pdfrwt beam="1">  1        2 0.48295120E+00 0.14632527E+03</pdfrwt>
<pdfrwt beam="2">  1       -2 0.36212551E-01 0.57699503E+02</pdfrwt>
<totfact> 0.13540383E+01</totfact>
</mgrwt>
</event>
<event>
 7    1  0.3113530E-004  0.9584269E+02  0.7546771E-02  0.1409288E+00
          2   -1    0    0  502    0  0.00000000000E+00  0.00000000000E+00  0.53151725683E+03  0.53151725683E+03  0.00000000000E+00 0. -1.
          2   -1    0    0  503    0 -0.00000000000E+00 -0.00000000000E+00 -0.19287188083E+04  0.19287188083E+04  0.00000000000E+00 0.  1.
         25    2    1    2    0    0 -0.10111230898E+03  0.42350488867E+02 -0.17640819482E+01  0.16626720171E+03  0.12499762976E+03 0.  0.
          4    1    3    3  501    0 -0.27507471442E+02  0.37258040647E+02  0.55909839287E+02  0.72610919338E+02  0.12700000000E+01 0.  1.
         -4    1    3    3    0  501 -0.73604837539E+02  0.50924482196E+01 -0.57673921235E+02  0.93656282376E+02  0.12700000000E+01 0.  1.
          2    1    1    2  502    0  0.72706601291E+02 -0.61612033083E+02  0.44404986033E+03  0.45416139306E+03  0.00000000000E+00 0. -1.
          2    1    1    2  503    0  0.28405707689E+02  0.19261544216E+02 -0.18394873298E+04  0.18398074703E+04  0.00000000000E+00 0.  1.
<mgrwt>
<rscale>  0 0.57352955E+02</rscale>
<asrwt>0</asrwt>
<pdfrwt beam="1">  1        2 0.81771885E-01 0.95842687E+02</pdfrwt>
<pdfrwt beam="2">  1        2 0.29672597E+00 0.34320421E+02</pdfrwt>
<totfact> 0.93113530E+01</totfact>
</mgrwt>
</event>
<event>
 7    1  0.3113530E-004  0.1970729E+03  0.7546771E-02  0.1222684E+00
         -1   -1    0    0    0  501 -0.00000000000E+00  0.00000000000E+00  0.24493900533E+03  0.24493900533E+03  0.00000000000E+00 0.  1.
          2   -1    0    0  503    0  0.00000000000E+00 -0.00000000000E+00 -0.15865038049E+04  0.15865038049E+04  0.00000000000E+00 0. -1.
         25    2    1    2    0    0 -0.13904568021E+03 -0.25876831028E+02 -0.70419664869E+03  0.72905417907E+03  0.12499505760E+03 0.  0.
          4    1    3    3  502    0 -0.13077329973E+03 -0.23034656398E+02 -0.34387751339E+03  0.36862665182E+03  0.12700000000E+01 0.  1.
         -4    1    3    3    0  502 -0.82723804801E+01 -0.28421746296E+01 -0.36031913530E+03  0.36042752725E+03  0.12700000000E+01 0.  1.
          2    1    1    2  503    0 -0.57309280197E+02  0.69553586263E+02 -0.82344830633E+03  0.82836535910E+03  0.00000000000E+00 0. -1.
         -1    1    1    2    0  501  0.19635496040E+03 -0.43676755235E+02  0.18608015540E+03  0.27402327211E+03  0.00000000000E+00 0.  1.
<mgrwt>
<rscale>  0 0.13326923E+03</rscale>
<asrwt>0</asrwt>
<pdfrwt beam="2">  1        2 0.24407751E+00 0.90122444E+02</pdfrwt>
<pdfrwt beam="1">  1       -1 0.37682923E-01 0.19707287E+03</pdfrwt>
<totfact> 0.10625944E+02</totfact>
</mgrwt>
</event>
<event>
 7    1  0.3113530E-004  0.1735562E+03  0.7546771E-02  0.1254336E+00
          1   -1    0    0  502    0  0.00000000000E+00  0.00000000000E+00  0.14399885290E+04  0.14399885290E+04  0.00000000000E+00 0. -1.
          1   -1    0    0  503    0 -0.00000000000E+00 -0.00000000000E+00 -0.24882349770E+04  0.24882349770E+04  0.00000000000E+00 0. -1.
         25    2    1    2    0    0 -0.46525479460E+02  0.17557533620E+03  0.21158392579E+03  0.30558887685E+03  0.12500194031E+03 0.  0.
          4    1    3    3  501    0  0.40673794886E+02  0.73149288443E+02  0.10290611474E+03  0.13265163905E+03  0.12700000000E+01 0. -1.
         -4    1    3    3    0  501 -0.87199274346E+02  0.10242604776E+03  0.10867781105E+03  0.17293723780E+03  0.12700000000E+01 0. -1.
          1    1    1    2  502    0  0.74026822069E+02 -0.41226246214E+01  0.11771465517E+04  0.11794791098E+04  0.00000000000E+00 0. -1.
          1    1    1    2  503    0 -0.27501342608E+02 -0.17145271158E+03 -0.24369769255E+04  0.24431555193E+04  0.00000000000E+00 0. -1.
<mgrwt>
<rscale>  0 0.11343597E+03</rscale>
<asrwt>0</asrwt>
<pdfrwt beam="1">  1        1 0.22153670E+00 0.74141530E+02</pdfrwt>
<pdfrwt beam="2">  1        1 0.38280538E+00 0.17355616E+03</pdfrwt>
<totfact> 0.18331014E+00</totfact>
</mgrwt>
</event>
<event>
 7    1  0.3113530E-004  0.6705823E+02  0.7546771E-02  0.1439700E+00
          1   -1    0    0  503    0  0.00000000000E+00  0.00000000000E+00  0.31316287801E+02  0.31316287801E+02  0.00000000000E+00 0. -1.
         -2   -1    0    0    0  501 -0.00000000000E+00 -0.00000000000E+00 -0.12774159581E+04  0.12774159581E+04  0.00000000000E+00 0.  1.
         25    2    1    2    0    0 -0.30156342503E+01  0.38637336655E+02 -0.44257662358E+03  0.46151979267E+03  0.12499805381E+03 0.  0.
          4    1    3    3  502    0  0.35012205323E+02  0.55550414985E+01 -0.31737210703E+02  0.47598071924E+02  0.12700000000E+01 0. -1.
         -4    1    3    3    0  502 -0.38027839574E+02  0.33082295157E+02 -0.41083941287E+03  0.41392172075E+03  0.12700000000E+01 0. -1.
          1    1    1    2  503    0  0.33470787659E+02 -0.62807185815E+02 -0.37954385144E+02  0.80657123480E+02  0.00000000000E+00 0. -1.
         -2    1    1    2    0  501 -0.30455153409E+02  0.24169849160E+02 -0.76556866154E+03  0.76655532971E+03  0.00000000000E+00 0.  1.
<mgrwt>
<rscale>  0 0.51061349E+02</rscale>
<asrwt>0</asrwt>
<pdfrwt beam="1">  1        1 0.48178891E-02 0.67058226E+02</pdfrwt>
<pdfrwt beam="2">  1       -2 0.19652559E+00 0.38880560E+02</pdfrwt>
<totfact> 0.23540525E+02</totfact>
</mgrwt>
</event>
<event>
 7    1  0.3113530E-004  0.7980622E+02  0.7546771E-02  0.1412245E+00
          2   -1    0    0  502    0  0.00000000000E+00  0.00000000000E+00  0.18075989142E+04  0.18075989142E+04  0.00000000000E+00 0. -1.
          1   -1    0    0  503    0 -0.00000000000E+00 -0.00000000000E+00 -0.82320819512E+03  0.82320819512E+03  0.00000000000E+00 0. -1.
         25    2    1    2    0    0 -0.24340090266E+02 -0.47128387694E+02  0.77146380636E+03  0.78332321714E+03  0.12500133231E+03 0.  0.
          4    1    3    3  501    0  0.23479597703E+02 -0.73287758699E+02  0.54391270916E+03  0.54933144382E+03  0.12700000000E+01 0. -1.
         -4    1    3    3    0  501 -0.47819687969E+02  0.26159371005E+02  0.22755109720E+03  0.23399177333E+03  0.12700000000E+01 0. -1.
          2    1    1    2  502    0  0.60134102211E+02  0.65597177150E+02  0.10277853226E+04  0.10316306361E+04  0.00000000000E+00 0. -1.
          1    1    1    2  503    0 -0.35794011945E+02 -0.18468789456E+02 -0.81485840984E+03  0.81585325615E+03  0.00000000000E+00 0. -1.
<mgrwt>
<rscale>  0 0.56695902E+02</rscale>
<asrwt>0</asrwt>
<pdfrwt beam="1">  1        2 0.27809214E+00 0.79806223E+02</pdfrwt>
<pdfrwt beam="2">  1        1 0.12664742E+00 0.40277878E+02</pdfrwt>
<totfact> 0.35248204E+01</totfact>
</mgrwt>
</event>
<event>
 7    1  0.3113530E-004  0.5132750E+02  0.7546771E-02  0.1461745E+00
          1   -1    0    0  503    0  0.00000000000E+00  0.00000000000E+00  0.25671174051E+03  0.25671174051E+03  0.00000000000E+00 0. -1.
         -3   -1    0    0    0  501 -0.00000000000E+00 -0.00000000000E+00 -0.18416113016E+03  0.18416113016E+03  0.00000000000E+00 0.  1.
         25    2    1    2    0    0 -0.28983586016E+02  0.23235549323E+02 -0.34601422077E+02  0.13489974217E+03  0.12498297091E+03 0.  0.
          4    1    3    3  502    0 -0.68043817997E+02 -0.10875385451E+02  0.57804419034E+01  0.69161127701E+02  0.12700000000E+01 0. -1.
         -4    1    3    3    0  502  0.39060231981E+02  0.34110934774E+02 -0.40381863980E+02  0.65738614467E+02  0.12700000000E+01 0. -1.
          1    1    1    2  503    0  0.50561260289E+02  0.14176168587E+02  0.19828722232E+03  0.20512246910E+03  0.00000000000E+00 0. -1.
         -3    1    1    2    0  501 -0.21577674273E+02 -0.37411717910E+02 -0.91135189886E+02  0.10085065939E+03  0.00000000000E+00 0.  1.
<mgrwt>
<rscale>  0 0.47082369E+02</rscale>
<asrwt>0</asrwt>
<pdfrwt beam="1">  1        1 0.39494114E-01 0.51327499E+02</pdfrwt>
<pdfrwt beam="2">  1       -3 0.28332481E-01 0.43188339E+02</pdfrwt>
<totfact> 0.60262170E+02</totfact>
</mgrwt>
</event>
<event>
 7    1  0.3113530E-004  0.3575779E+02  0.7546771E-02  0.1546446E+00
          1   -1    0    0  503    0  0.00000000000E+00  0.00000000000E+00  0.12965172627E+04  0.12965172627E+04  0.00000000000E+00 0. -1.
         -2   -1    0    0    0  501 -0.00000000000E+00 -0.00000000000E+00 -0.96897793951E+01  0.96897793951E+01  0.00000000000E+00 0.  1.
         25    2    1    2    0    0  0.30005337580E+02 -0.72449266661E+01  0.57819000456E+03  0.59235535039E+03  0.12501348133E+03 0.  0.
          4    1    3    3  502    0  0.48882855580E+02  0.29197745345E+02  0.12563453388E+03  0.13794089642E+03  0.12700000000E+01 0. -1.
         -4    1    3    3    0  502 -0.18877518000E+02 -0.36442672011E+02  0.45255547068E+03  0.45441445397E+03  0.12700000000E+01 0. -1.
          1    1    1    2  503    0 -0.11567025161E+02 -0.33835237772E+02  0.19556924742E+03  0.19881134254E+03  0.00000000000E+00 0. -1.
         -2    1    1    2    0  501 -0.18438312419E+02  0.41080164438E+02  0.51306823133E+03  0.51504034917E+03  0.00000000000E+00 0.  1.
<mgrwt>
<rscale>  0 0.35243849E+02</rscale>
<asrwt>0</asrwt>
<pdfrwt beam="1">  1        1 0.19946406E+00 0.35757788E+02</pdfrwt>
<pdfrwt beam="2">  1       -2 0.14907363E-02 0.34737297E+02</pdfrwt>
<totfact> 0.90182493E+03</totfact>
</mgrwt>
</event>
<event>
 7    1  0.3113530E-004  0.6512620E+02  0.7546771E-02  0.1469158E+00
          2   -1    0    0  502    0  0.00000000000E+00  0.00000000000E+00  0.92036712363E+02  0.92036712363E+02  0.00000000000E+00 0. -1.
          1   -1    0    0  503    0 -0.00000000000E+00 -0.00000000000E+00 -0.13032202090E+04  0.13032202090E+04  0.00000000000E+00 0. -1.
         25    2    1    2    0    0 -0.61756354064E+02  0.50537837972E+02 -0.38865407109E+02  0.15330810618E+03  0.12499974087E+03 0.  0.
          4    1    3    3  501    0 -0.73935105213E+02  0.16904057593E+02  0.25193168420E+02  0.79927814814E+02  0.12700000000E+01 0.  1.
         -4    1    3    3    0  501  0.12178751149E+02  0.33633780379E+02 -0.64058575530E+02  0.73380291366E+02  0.12700000000E+01 0.  1.
          2    1    1    2  502    0  0.59340959480E+02 -0.18361716195E+02  0.67109748251E+01  0.62478310450E+02  0.00000000000E+00 0. -1.
          1    1    1    2  503    0  0.24153945840E+01 -0.32176121777E+02 -0.11790290643E+04  0.11794705047E+04  0.00000000000E+00 0. -1.
<mgrwt>
<rscale>  0 0.45841079E+02</rscale>
<asrwt>0</asrwt>
<pdfrwt beam="1">  1        2 0.14159494E-01 0.65126199E+02</pdfrwt>
<pdfrwt beam="2">  1        1 0.20049542E+00 0.32266654E+02</pdfrwt>
<totfact> 0.61872946E+02</totfact>
</mgrwt>
</event>
<event>
 7    1  0.3113530E-004  0.1410992E+03  0.7546771E-02  0.1224760E+00
          1   -1    0    0  503    0 -0.00000000000E+00  0.00000000000E+00  0.15201002907E+04  0.15201002907E+04  0.00000000000E+00 0. -1.
          2   -1    0    0  502    0  0.00000000000E+00 -0.00000000000E+00 -0.61601707623E+03  0.61601707623E+03  0.00000000000E+00 0. -1.
         25    2    1    2    0    0  0.12877000991E+03 -0.20378472057E+03  0.15102110459E+03  0.31069075695E+03  0.12494576678E+03 0.  0.
          4    1    3    3  501    0  0.81454593738E+02 -0.73894780687E+02  0.57251151589E+01  0.11013482327E+03  0.12700000000E+01 0. -1.
         -4    1    3    3    0  501  0.47315416169E+02 -0.12988993988E+03  0.14529598943E+03  0.20055593368E+03  0.12700000000E+01 0. -1.
          2    1    1    2  502    0 -0.10185710333E+03  0.69265109898E+02 -0.52538950069E+03  0.53963566634E+03  0.00000000000E+00 0. -1.
          1    1    1    2  503    0 -0.26912906580E+02  0.13451961067E+03  0.12784516105E+04  0.12857909436E+04  0.00000000000E+00 0. -1.
<mgrwt>
<rscale>  0 0.13183381E+03</rscale>
<asrwt>0</asrwt>
<pdfrwt beam="2">  1        2 0.94771858E-01 0.12317680E+03</pdfrwt>
<pdfrwt beam="1">  1        1 0.23386158E+00 0.14109924E+03</pdfrwt>
<totfact> 0.50457016E+01</totfact>
</mgrwt>
</event>
<event>
 7    1  0.3113530E-004  0.4522813E+02  0.7546771E-02  0.1506572E+00
          2   -1    0    0  503    0  0.00000000000E+00  0.00000000000E+00  0.22904986846E+03  0.22904986846E+03  0.00000000000E+00 0. -1.
         -1   -1    0    0    0  501 -0.00000000000E+00 -0.00000000000E+00 -0.52332752277E+02  0.52332752277E+02  0.00000000000E+00 0.  1.
         25    2    1    2    0    0  0.15603468385E+02 -0.33191365017E+02  0.10813615881E+03  0.16931080343E+03  0.12501033709E+03 0.  0.
          4    1    3    3  502    0 -0.18425053238E+02 -0.66189015299E+02  0.99794670676E+02  0.12116541391E+03  0.12700000000E+01 0.  1.
         -4    1    3    3    0  502  0.34028521623E+02  0.32997650282E+02  0.83414881347E+01  0.48145389523E+02  0.12700000000E+01 0.  1.
          2    1    1    2  503    0 -0.48722616072E+02  0.19670200930E+02  0.36069065832E+02  0.63732155397E+02  0.00000000000E+00 0. -1.
         -1    1    1    2    0  501  0.33119147687E+02  0.13521164087E+02  0.32511891543E+02  0.48339661909E+02  0.00000000000E+00 0.  1.
<mgrwt>
<rscale>  0 0.40223638E+02</rscale>
<asrwt>0</asrwt>
<pdfrwt beam="1">  1        2 0.35238441E-01 0.45228130E+02</pdfrwt>
<pdfrwt beam="2">  1       -1 0.80511928E-02 0.35772892E+02</pdfrwt>
<totfact> 0.11744419E+04</totfact>
</mgrwt>
</event>
<event>
 7    1  0.3113530E-004  0.5799225E+02  0.7546771E-02  0.1530115E+00
          2   -1    0    0  502    0  0.00000000000E+00  0.00000000000E+00  0.90688117283E+03  0.90688117283E+03  0.00000000000E+00 0.  1.
          1   -1    0    0  503    0 -0.00000000000E+00 -0.00000000000E+00 -0.70940859402E+02  0.70940859402E+02  0.00000000000E+00 0. -1.
         25    2    1    2    0    0 -0.64006851193E+02  0.46315474872E+02  0.10250723541E+03  0.17993046825E+03  0.12500095952E+03 0.  0.
          4    1    3    3  501    0 -0.29041470738E+02  0.68933290006E+02  0.11432236713E+03  0.13662511489E+03  0.12700000000E+01 0.  1.
         -4    1    3    3    0  501 -0.34965380454E+02 -0.22617815134E+02 -0.11815131717E+02  0.43305353355E+02  0.12700000000E+01 0.  1.
          2    1    1    2  502    0  0.40965602082E+02 -0.40246902610E+02  0.76002204370E+03  0.76218862536E+03  0.00000000000E+00 0.  1.
          1    1    1    2  503    0  0.23041249111E+02 -0.60685722622E+01 -0.26588965684E+02  0.35702938619E+02  0.00000000000E+00 0. -1.
<mgrwt>
<rscale>  0 0.37172333E+02</rscale>
<asrwt>0</asrwt>
<pdfrwt beam="1">  1        2 0.13952017E+00 0.57992251E+02</pdfrwt>
<pdfrwt beam="2">  1        1 0.10913979E-01 0.23827017E+02</pdfrwt>
<totfact> 0.21247390E+03</totfact>
</mgrwt>
</event>
<event>
 7    1  0.3113530E-004  0.1324452E+03  0.7546771E-02  0.1323646E+00
          2   -1    0    0  502    0  0.00000000000E+00  0.00000000000E+00  0.16430186738E+03  0.16430186738E+03  0.00000000000E+00 0.  1.
          2   -1    0    0  503    0 -0.00000000000E+00 -0.00000000000E+00 -0.13001575048E+04  0.13001575048E+04  0.00000000000E+00 0. -1.
         25    2    1    2    0    0  0.60173803673E+02 -0.71127361388E+02 -0.15163616821E+03  0.21750675115E+03  0.12504267712E+03 0.  0.
          4    1    3    3  501    0  0.17625984466E+02 -0.52716313793E+02 -0.16088017269E+03  0.17021670873E+03  0.12700000000E+01 0. -1.
         -4    1    3    3    0  501  0.42547819207E+02 -0.18411047594E+02  0.92440044810E+01  0.47290042416E+02  0.12700000000E+01 0. -1.
          2    1    1    2  502    0 -0.73326901516E+02  0.12007959388E+03  0.92925782394E+02  0.16861537411E+03  0.00000000000E+00 0.  1.
          2    1    1    2  503    0  0.13153097843E+02 -0.48952232493E+02 -0.10771452516E+04  0.10783372469E+04  0.00000000000E+00 0. -1.
<mgrwt>
<rscale>  0 0.81935654E+02</rscale>
<asrwt>0</asrwt>
<pdfrwt beam="1">  1        2 0.25277210E-01 0.13244523E+03</pdfrwt>
<pdfrwt beam="2">  1        2 0.20002423E+00 0.50688510E+02</pdfrwt>
<totfact> 0.63752833E+02</totfact>
</mgrwt>
</event>
<event>
 7    1  0.3113530E-004  0.4200372E+02  0.7546771E-02  0.1502290E+00
         -2   -1    0    0    0  501 -0.00000000000E+00  0.00000000000E+00  0.22508272452E+03  0.22508272452E+03  0.00000000000E+00 0.  1.
          2   -1    0    0  503    0  0.00000000000E+00 -0.00000000000E+00 -0.22115000159E+03  0.22115000159E+03  0.00000000000E+00 0. -1.
         25    2    1    2    0    0 -0.25004704917E+02 -0.71437361789E+02  0.43783928906E+02  0.15254565406E+03  0.12499844885E+03 0.  0.
          4    1    3    3  502    0 -0.73007625095E+02 -0.29032709671E+02  0.40492428541E+02  0.88398310063E+02  0.12700000000E+01 0. -1.
         -4    1    3    3    0  502  0.48002920178E+02 -0.42404652118E+02  0.32915003647E+01  0.64147343994E+02  0.12700000000E+01 0. -1.
          2    1    1    2  503    0  0.26249958546E+02  0.31794726055E+02 -0.16100810435E+03  0.16620341330E+03  0.00000000000E+00 0. -1.
         -2    1    1    2    0  501 -0.12452536290E+01  0.39642635735E+02  0.12115689837E+03  0.12748365875E+03  0.00000000000E+00 0.  1.
<mgrwt>
<rscale>  0 0.40816167E+02</rscale>
<asrwt>0</asrwt>
<pdfrwt beam="2">  1        2 0.34023077E-01 0.42003721E+02</pdfrwt>
<pdfrwt beam="1">  1       -2 0.34628111E-01 0.39662189E+02</pdfrwt>
<totfact> 0.11222750E+03</totfact>
</mgrwt>
</event>
<event>
 7    1  0.3113530E-004  0.4913870E+02  0.7546771E-02  0.1575124E+00
         -2   -1    0    0    0  501 -0.00000000000E+00  0.00000000000E+00  0.12399389193E+03  0.12399389193E+03  0.00000000000E+00 0.  1.
          1   -1    0    0  503    0  0.00000000000E+00 -0.00000000000E+00 -0.13923635079E+03  0.13923635079E+03  0.00000000000E+00 0. -1.
         25    2    1    2    0    0  0.56319526745E+02  0.10340505099E+02  0.48835745705E+02  0.14590774503E+03  0.12500129944E+03 0.  0.
          4    1    3    3  502    0  0.15488431671E+02 -0.14775859762E+02  0.83838608306E+02  0.86537521862E+02  0.12700000000E+01 0. -1.
         -4    1    3    3    0  502  0.40831095074E+02  0.25116364861E+02 -0.35002862601E+02  0.59370223168E+02  0.12700000000E+01 0. -1.
          1    1    1    2  503    0 -0.16281352713E+02  0.13390018468E+02 -0.67441008438E+02  0.70658790394E+02  0.00000000000E+00 0. -1.
         -2    1    1    2    0  501 -0.40038174032E+02 -0.23730523567E+02  0.33628038743E+01  0.46663707294E+02  0.00000000000E+00 0.  1.
<mgrwt>
<rscale>  0 0.32184683E+02</rscale>
<asrwt>0</asrwt>
<pdfrwt beam="2">  1        1 0.21420977E-01 0.21080205E+02</pdfrwt>
<pdfrwt beam="1">  1       -2 0.19075983E-01 0.49138699E+02</pdfrwt>
<totfact> 0.39641796E+03</totfact>
</mgrwt>
</event>
<event>
 7    1  0.3113530E-004  0.5049857E+02  0.7546771E-02  0.1493565E+00
          2   -1    0    0  503    0  0.00000000000E+00  0.00000000000E+00  0.12402056990E+04  0.12402056990E+04  0.00000000000E+00 0. -1.
         -1   -1    0    0    0  501 -0.00000000000E+00 -0.00000000000E+00 -0.11175924555E+02  0.11175924555E+02  0.00000000000E+00 0.  1.
         25    2    1    2    0    0 -0.45744509936E+02  0.17631863277E+02  0.54970208606E+03  0.56586230047E+03  0.12499726751E+03 0.  0.
          4    1    3    3  502    0 -0.56500646559E+02  0.38571857481E+02  0.53199694265E+03  0.53637903682E+03  0.12700000000E+01 0.  1.
         -4    1    3    3    0  502  0.10756136623E+02 -0.20939994204E+02  0.17705143408E+02  0.29483263650E+02  0.12700000000E+01 0.  1.
          2    1    1    2  503    0  0.17139078007E+02  0.30556088149E+02  0.30815299243E+03  0.31013817770E+03  0.00000000000E+00 0. -1.
         -1    1    1    2    0  501  0.28605431929E+02 -0.48187951426E+02  0.37117469593E+03  0.37538114537E+03  0.00000000000E+00 0.  1.
<mgrwt>
<rscale>  0 0.42061820E+02</rscale>
<asrwt>0</asrwt>
<pdfrwt beam="1">  1        2 0.19080077E+00 0.35034590E+02</pdfrwt>
<pdfrwt beam="2">  1       -1 0.17193740E-02 0.50498569E+02</pdfrwt>
<totfact> 0.16871488E+04</totfact>
</mgrwt>
</event>
<event>
 7    1  0.3113530E-004  0.5586728E+03  0.7546771E-02  0.1176115E+00
          2   -1    0    0  502    0  0.00000000000E+00  0.00000000000E+00  0.16359913187E+04  0.16359913187E+04  0.00000000000E+00 0. -1.
          2   -1    0    0  503    0 -0.00000000000E+00 -0.00000000000E+00 -0.20698815462E+04  0.20698815462E+04  0.00000000000E+00 0. -1.
         25    2    1    2    0    0 -0.19400055223E+02 -0.58669798894E+03 -0.60268979665E+03  0.85055702780E+03  0.12498549588E+03 0.  0.
          4    1    3    3  501    0 -0.53890400222E+02 -0.21413884815E+03 -0.27904645348E+03  0.35584850375E+03  0.12700000000E+01 0. -1.
         -4    1    3    3    0  501  0.34490344999E+02 -0.37255914079E+03 -0.32364334317E+03  0.49470852405E+03  0.12700000000E+01 0. -1.
          2    1    1    2  502    0  0.60394944275E+02  0.55349754304E+03  0.14602451310E+04  0.15627933075E+04  0.00000000000E+00 0. -1.
          2    1    1    2  503    0 -0.40994889052E+02  0.33200445901E+02 -0.12914455617E+04  0.12925225296E+04  0.00000000000E+00 0. -1.
<mgrwt>
<rscale>  0 0.17167270E+03</rscale>
<asrwt>0</asrwt>
<pdfrwt beam="1">  1        2 0.25169097E+00 0.55867279E+03</pdfrwt>
<pdfrwt beam="2">  1        2 0.31844332E+00 0.52752730E+02</pdfrwt>
<totfact> 0.14028003E+01</totfact>
</mgrwt>
</event>
<event>
 7    1  0.3113530E-004  0.1511151E+03  0.7546771E-02  0.1356546E+00
          2   -1    0    0  503    0  0.00000000000E+00  0.00000000000E+00  0.10603654365E+04  0.10603654365E+04  0.00000000000E+00 0. -1.
         -1   -1    0    0    0  501 -0.00000000000E+00 -0.00000000000E+00 -0.18966489876E+03  0.18966489876E+03  0.00000000000E+00 0.  1.
         25    2    1    2    0    0 -0.87362139981E+02 -0.12459526505E+03 -0.12912041340E+03  0.23548365924E+03  0.12499739612E+03 0.  0.
          4    1    3    3  502    0  0.32116721991E+02 -0.18252073698E+02 -0.25153534242E+02  0.44709453258E+02  0.12700000000E+01 0. -1.
         -4    1    3    3    0  502 -0.11947886197E+03 -0.10634319135E+03 -0.10396687916E+03  0.19077420598E+03  0.12700000000E+01 0. -1.
          2    1    1    2  503    0 -0.14014010520E+02  0.30327976400E+02  0.22273926347E+03  0.22523089960E+03  0.00000000000E+00 0. -1.
         -1    1    1    2    0  501  0.10137615050E+03  0.94267288648E+02  0.77708168765E+03  0.78931577641E+03  0.00000000000E+00 0.  1.
<mgrwt>
<rscale>  0 0.71053819E+02</rscale>
<asrwt>0</asrwt>
<pdfrwt beam="1">  1        2 0.16313314E+00 0.33409260E+02</pdfrwt>
<pdfrwt beam="2">  1       -1 0.29179216E-01 0.15111515E+03</pdfrwt>
<totfact> 0.33047888E+02</totfact>
</mgrwt>
</event>
<event>
 7    1  0.3113530E-004  0.5038619E+02  0.7546771E-02  0.1449060E+00
         -3   -1    0    0    0  501 -0.00000000000E+00  0.00000000000E+00  0.83907735844E+02  0.83907735844E+02  0.00000000000E+00 0.  1.
          2   -1    0    0  503    0  0.00000000000E+00 -0.00000000000E+00 -0.28741431133E+03  0.28741431133E+03  0.00000000000E+00 0. -1.
         25    2    1    2    0    0  0.47365849160E+01  0.10953411627E+02 -0.10447125394E+03  0.16335436144E+03  0.12501196758E+03 0.  0.
          4    1    3    3  502    0  0.13332974321E+02  0.51346978101E+02 -0.10955021110E+03  0.12172568347E+03  0.12700000000E+01 0.  1.
         -4    1    3    3    0  502 -0.85963894055E+01 -0.40393566475E+02  0.50789571615E+01  0.41628677966E+02  0.12700000000E+01 0.  1.
          2    1    1    2  503    0  0.29946652934E+02 -0.47502574464E+02 -0.13489992486E+03  0.14612079363E+03  0.00000000000E+00 0. -1.
         -3    1    1    2    0  501 -0.34683237850E+02  0.36549162837E+02  0.35864603319E+02  0.61846892105E+02  0.00000000000E+00 0.  1.
<mgrwt>
<rscale>  0 0.49317094E+02</rscale>
<asrwt>0</asrwt>
<pdfrwt beam="2">  1        2 0.44217586E-01 0.48270681E+02</pdfrwt>
<pdfrwt beam="1">  1       -3 0.12908883E-01 0.50386191E+02</pdfrwt>
<totfact> 0.28619897E+03</totfact>
</mgrwt>
</event>
<event>
 7    1  0.3113530E-004  0.4415982E+02  0.7546771E-02  0.1561828E+00
          2   -1    0    0  503    0  0.00000000000E+00  0.00000000000E+00  0.16786892077E+04  0.16786892077E+04  0.00000000000E+00 0.  1.
         -3   -1    0    0    0  501 -0.00000000000E+00 -0.00000000000E+00 -0.27787159605E+02  0.27787159605E+02  0.00000000000E+00 0.  1.
         25    2    1    2    0    0  0.55184731653E+02  0.57896429500E+00  0.68901313434E+03  0.70243140990E+03  0.12500038605E+03 0.  0.
          4    1    3    3  502    0  0.85369945606E+02 -0.54231234372E+01  0.63076570435E+03  0.63654098420E+03  0.12700000000E+01 0. -1.
         -4    1    3    3    0  502 -0.30185213953E+02  0.60020877322E+01  0.58247429986E+02  0.65890425697E+02  0.12700000000E+01 0. -1.
          2    1    1    2  503    0 -0.16163559333E+02  0.19717041916E+02  0.95966637044E+03  0.96000498173E+03  0.00000000000E+00 0.  1.
         -3    1    1    2    0  501 -0.39021172321E+02 -0.20296006211E+02  0.22225432983E+01  0.44039975660E+02  0.00000000000E+00 0.  1.
<mgrwt>
<rscale>  0 0.33554110E+02</rscale>
<asrwt>0</asrwt>
<pdfrwt beam="1">  1        2 0.25825980E+00 0.25495537E+02</pdfrwt>
<pdfrwt beam="2">  1       -3 0.42749490E-02 0.44159820E+02</pdfrwt>
<totfact> 0.19585021E+03</totfact>
</mgrwt>
</event>
<event>
 7    1  0.3113530E-004  0.4056439E+03  0.7546771E-02  0.1243998E+00
          1   -1    0    0  503    0  0.00000000000E+00  0.00000000000E+00  0.17544096746E+04  0.17544096746E+04  0.00000000000E+00 0. -1.
         -1   -1    0    0    0  501 -0.00000000000E+00 -0.00000000000E+00 -0.28132035553E+04  0.28132035553E+04  0.00000000000E+00 0.  1.
         25    2    1    2    0    0  0.31886947735E+03  0.29997214047E+03 -0.67338619724E+02  0.46023476387E+03  0.12498207684E+03 0.  0.
          4    1    3    3  502    0  0.28446709044E+03  0.27561526882E+03 -0.98075295510E+02  0.40805107332E+03  0.12700000000E+01 0.  1.
         -4    1    3    3    0  502  0.34402386911E+02  0.24356871649E+02  0.30736675786E+02  0.52183690557E+02  0.12700000000E+01 0.  1.
          1    1    1    2  503    0 -0.21746985915E+02 -0.27650075356E+02  0.15418304885E+04  0.15422317314E+04  0.00000000000E+00 0. -1.
         -1    1    1    2    0  501 -0.29712249143E+03 -0.27232206511E+03 -0.25332857495E+04  0.25651467347E+04  0.00000000000E+00 0.  1.
<mgrwt>
<rscale>  0 0.11945522E+03</rscale>
<asrwt>0</asrwt>
<pdfrwt beam="1">  1        1 0.26990918E+00 0.35177522E+02</pdfrwt>
<pdfrwt beam="2">  1       -1 0.43280054E+00 0.40564394E+03</pdfrwt>
<totfact> 0.30932236E-02</totfact>
</mgrwt>
</event>
<event>
 7    1  0.1227628E-003  0.9671138E+02  0.7546771E-02  0.1323575E+00
         -1   -1    0    0    0  501 -0.00000000000E+00  0.00000000000E+00  0.84306230205E+01  0.84306230205E+01  0.00000000000E+00 0.  1.
          2   -1    0    0  503    0  0.00000000000E+00 -0.00000000000E+00 -0.34804149645E+04  0.34804149645E+04  0.00000000000E+00 0. -1.
         25    2    1    2    0    0  0.12014826645E+03  0.45111014154E+02 -0.23223988087E+04  0.23292980734E+04  0.12499071406E+03 0.  0.
          4    1    3    3  502    0 -0.18189587001E+02 -0.17360669077E+02 -0.22246153521E+03  0.22388166842E+03  0.12700000000E+01 0.  1.
         -4    1    3    3    0  502  0.13833785345E+03  0.62471683231E+02 -0.20999372735E+04  0.21054164050E+04  0.12700000000E+01 0.  1.
          2    1    1    2  503    0 -0.79848223575E+02  0.11464613332E+02 -0.69903010143E+03  0.70366914020E+03  0.00000000000E+00 0. -1.
         -1    1    1    2    0  501 -0.40300042874E+02 -0.56575627486E+02 -0.45055543132E+03  0.45587837388E+03  0.00000000000E+00 0.  1.
<mgrwt>
<rscale>  0 0.81961664E+02</rscale>
<asrwt>0</asrwt>
<pdfrwt beam="2">  1        2 0.53544908E+00 0.96711384E+02</pdfrwt>
<pdfrwt beam="1">  1       -1 0.12970174E-02 0.69461465E+02</pdfrwt>
<totfact> 0.15247602E+03</totfact>
</mgrwt>
</event>
<event>
 7    1  0.3113530E-004  0.4780434E+02  0.7546771E-02  0.1521196E+00
          2   -1    0    0  502    0  0.00000000000E+00  0.00000000000E+00  0.78231483315E+02  0.78231483315E+02  0.00000000000E+00 0. -1.
          2   -1    0    0  503    0 -0.00000000000E+00 -0.00000000000E+00 -0.35555531717E+03  0.35555531717E+03  0.00000000000E+00 0. -1.
         25    2    1    2    0    0 -0.22946573336E+02 -0.35262426108E+02 -0.86863101252E+02  0.15793231141E+03  0.12500973044E+03 0.  0.
          4    1    3    3  501    0 -0.39934688872E+02 -0.59269895074E+02 -0.10221781196E+03  0.12473088559E+03  0.12700000000E+01 0. -1.
         -4    1    3    3    0  501  0.16988115536E+02  0.24007468966E+02  0.15354710709E+02  0.33201425822E+02  0.12700000000E+01 0. -1.
          2    1    1    2  502    0 -0.23412970542E+02  0.19806981541E+02  0.34202463959E+02  0.45937917326E+02  0.00000000000E+00 0. -1.
          2    1    1    2  503    0  0.46359543877E+02  0.15455444568E+02 -0.22466319656E+03  0.22991657175E+03  0.00000000000E+00 0. -1.
<mgrwt>
<rscale>  0 0.38288776E+02</rscale>
<asrwt>0</asrwt>
<pdfrwt beam="1">  1        2 0.12035613E-01 0.30667307E+02</pdfrwt>
<pdfrwt beam="2">  1        2 0.54700818E-01 0.47804341E+02</pdfrwt>
<totfact> 0.62483749E+03</totfact>
</mgrwt>
</event>
<event>
 7    1  0.3113530E-004  0.1210539E+03  0.7546771E-02  0.1424268E+00
          1   -1    0    0  502    0  0.00000000000E+00  0.00000000000E+00  0.62968384382E+03  0.62968384382E+03  0.00000000000E+00 0. -1.
          1   -1    0    0  503    0 -0.00000000000E+00 -0.00000000000E+00 -0.52992040920E+04  0.52992040920E+04  0.00000000000E+00 0. -1.
         25    2    1    2    0    0 -0.82456273780E+02 -0.10224632363E+03 -0.42391983856E+04  0.42430745545E+04  0.12500149987E+03 0.  0.
          4    1    3    3  501    0 -0.11141606609E+03 -0.96425386658E+02 -0.38164034813E+04  0.38192471169E+04  0.12700000000E+01 0.  1.
         -4    1    3    3    0  501  0.28959792310E+02 -0.58209369732E+01 -0.42279490428E+03  0.42382743760E+03  0.12700000000E+01 0.  1.
          1    1    1    2  502    0  0.91139472780E+02  0.79654756798E+02  0.62177041091E+03  0.63344275800E+03  0.00000000000E+00 0. -1.
          1    1    1    2  503    0 -0.86831990001E+01  0.22591566834E+02 -0.10520922735E+04  0.10523706233E+04  0.00000000000E+00 0. -1.
<mgrwt>
<rscale>  0 0.54128066E+02</rscale>
<asrwt>0</asrwt>
<pdfrwt beam="1">  1        1 0.96874439E-01 0.12105394E+03</pdfrwt>
<pdfrwt beam="2">  1        1 0.81526215E+00 0.24202827E+02</pdfrwt>
<totfact> 0.44809985E-02</totfact>
</mgrwt>
</event>
<event>
 7    1  0.3113530E-004  0.8633792E+02  0.7546771E-02  0.1336798E+00
         -2   -1    0    0    0  501 -0.00000000000E+00  0.00000000000E+00  0.17964153758E+04  0.17964153758E+04  0.00000000000E+00 0. -1.
          2   -1    0    0  503    0  0.00000000000E+00 -0.00000000000E+00 -0.57372983004E+03  0.57372983004E+03  0.00000000000E+00 0. -1.
         25    2    1    2    0    0 -0.55711758222E+00  0.28801989303E+02  0.11161853039E+02  0.12876423385E+03  0.12500310391E+03 0.  0.
          4    1    3    3  502    0 -0.31287707294E+02 -0.21822228789E+02 -0.36442370358E+02  0.52771105298E+02  0.12700000000E+01 0.  1.
         -4    1    3    3    0  502  0.30730589712E+02  0.50624218092E+02  0.47604223396E+02  0.75993128549E+02  0.12700000000E+01 0.  1.
          2    1    1    2  503    0  0.58825553375E+02  0.36568781118E+02 -0.51148233262E+03  0.51615104191E+03  0.00000000000E+00 0. -1.
         -2    1    1    2    0  501 -0.58268435793E+02 -0.65370770421E+02  0.17230060254E+04  0.17252299301E+04  0.00000000000E+00 0. -1.
<mgrwt>
<rscale>  0 0.77332054E+02</rscale>
<asrwt>0</asrwt>
<pdfrwt beam="2">  1        2 0.88266129E-01 0.69265587E+02</pdfrwt>
<pdfrwt beam="1">  1       -2 0.27637159E+00 0.86337918E+02</pdfrwt>
<totfact> 0.31237649E+00</totfact>
</mgrwt>
</event>
<event>
 7    1  0.3113530E-004  0.7104754E+02  0.7546771E-02  0.1430192E+00
          1   -1    0    0  503    0  0.00000000000E+00  0.00000000000E+00  0.10790485830E+03  0.10790485830E+03  0.00000000000E+00 0. -1.
         -1   -1    0    0    0  501 -0.00000000000E+00 -0.00000000000E+00 -0.44764138410E+03  0.44764138410E+03  0.00000000000E+00 0.  1.
         25    2    1    2    0    0  0.61667322066E+02 -0.55629291664E+02  0.40879213623E+02  0.15554182771E+03  0.12499869343E+03 0.  0.
          4    1    3    3  502    0 -0.16979524007E+02 -0.18434966560E+02 -0.32959389688E+02  0.41425674360E+02  0.12700000000E+01 0. -1.
         -4    1    3    3    0  502  0.78646846073E+02 -0.37194325104E+02  0.73838603311E+02  0.11411615335E+03  0.12700000000E+01 0. -1.
          1    1    1    2  503    0 -0.37800054131E+02 -0.11184164207E+02 -0.61146545453E+02  0.72751836006E+02  0.00000000000E+00 0.  1.
         -1    1    1    2    0  501 -0.23867267935E+02  0.66813455871E+02 -0.31946919397E+03  0.32725257869E+03  0.00000000000E+00 0. -1.
<mgrwt>
<rscale>  0 0.52921525E+02</rscale>
<asrwt>0</asrwt>
<pdfrwt beam="1">  1        1 0.16600747E-01 0.39419914E+02</pdfrwt>
<pdfrwt beam="2">  1       -1 0.68867905E-01 0.71047537E+02</pdfrwt>
<totfact> 0.68777074E+02</totfact>
</mgrwt>
</event>
<event>
 7    1  0.3113530E-004  0.1754511E+03  0.7546771E-02  0.1265310E+00
          1   -1    0    0  503    0  0.00000000000E+00  0.00000000000E+00  0.25609771904E+03  0.25609771904E+03  0.00000000000E+00 0. -1.
          1   -1    0    0  502    0 -0.00000000000E+00 -0.00000000000E+00 -0.12103335191E+04  0.12103335191E+04  0.00000000000E+00 0. -1.
         25    2    1    2    0    0 -0.15041900459E+03  0.16201899292E+03  0.46905743334E+02  0.25826374963E+03  0.12499593836E+03 0.  0.
          4    1    3    3  501    0 -0.35672491160E+01  0.20112422503E+02 -0.33114958908E+02  0.38928758119E+02  0.12700000000E+01 0.  1.
         -4    1    3    3    0  501 -0.14685175547E+03  0.14190657042E+03  0.80020702242E+02  0.21933499151E+03  0.12700000000E+01 0.  1.
          1    1    1    2  502    0  0.85481672707E+02 -0.15114860607E+03 -0.10865436201E+04  0.11003317936E+04  0.00000000000E+00 0. -1.
          1    1    1    2  503    0  0.64937331878E+02 -0.10870386852E+02  0.85402076766E+02  0.10783569491E+03  0.00000000000E+00 0. -1.
<mgrwt>
<rscale>  0 0.10747957E+03</rscale>
<asrwt>0</asrwt>
<pdfrwt beam="1">  1        1 0.39399649E-01 0.65840887E+02</pdfrwt>
<pdfrwt beam="2">  1        1 0.18620516E+00 0.17545112E+03</pdfrwt>
<totfact> 0.14854504E+02</totfact>
</mgrwt>
</event>
<event>
 7    1  0.3113530E-004  0.8473781E+02  0.7546771E-02  0.1406999E+00
         -1   -1    0    0    0  501 -0.00000000000E+00  0.00000000000E+00  0.36324197076E+03  0.36324197076E+03  0.00000000000E+00 0.  1.
          2   -1    0    0  503    0  0.00000000000E+00 -0.00000000000E+00 -0.17125765346E+03  0.17125765346E+03  0.00000000000E+00 0. -1.
         25    2    1    2    0    0 -0.56606838915E+02 -0.33056048159E+02  0.14025973595E+03  0.19898465873E+03  0.12500025741E+03 0.  0.
          4    1    3    3  502    0 -0.15651604720E+02  0.24275781467E+02 -0.11926305985E+02  0.31275165397E+02  0.12700000000E+01 0. -1.
         -4    1    3    3    0  502 -0.40955234195E+02 -0.57331829626E+02  0.15218604193E+03  0.16770949334E+03  0.12700000000E+01 0. -1.
          2    1    1    2  503    0 -0.35562912711E+02  0.17236220011E+02 -0.12743203697E+03  0.13341938423E+03  0.00000000000E+00 0. -1.
         -1    1    1    2    0  501  0.92169751627E+02  0.15819828148E+02  0.17915661833E+03  0.20209558127E+03  0.00000000000E+00 0.  1.
<mgrwt>
<rscale>  0 0.57868942E+02</rscale>
<asrwt>0</asrwt>
<pdfrwt beam="2">  1        2 0.26347331E-01 0.39519717E+02</pdfrwt>
<pdfrwt beam="1">  1       -1 0.55883380E-01 0.84737814E+02</pdfrwt>
<totfact> 0.74309832E+02</totfact>
</mgrwt>
</event>
<event>
 7    1  0.3113530E-004  0.2985705E+03  0.7546771E-02  0.1204686E+00
          2   -1    0    0  503    0  0.00000000000E+00  0.00000000000E+00  0.10036546771E+04  0.10036546771E+04  0.00000000000E+00 0. -1.
         -1   -1    0    0    0  501 -0.00000000000E+00 -0.00000000000E+00 -0.63961786046E+03  0.63961786046E+03  0.00000000000E+00 0.  1.
         25    2    1    2    0    0 -0.51167657817E+02  0.23170470207E+03  0.48203921598E+03  0.55162622204E+03  0.12499793970E+03 0.  0.
          4    1    3    3  502    0 -0.86669972276E+02  0.20597027472E+03  0.38546658056E+03  0.44555755609E+03  0.12700000000E+01 0.  1.
         -4    1    3    3    0  502  0.35502314459E+02  0.25734427342E+02  0.96572635425E+02  0.10606866595E+03  0.12700000000E+01 0.  1.
          2    1    1    2  503    0  0.18127648990E+02  0.69684224743E+02  0.44575322801E+03  0.45153122054E+03  0.00000000000E+00 0. -1.
         -1    1    1    2    0  501  0.33040008827E+02 -0.30138892681E+03 -0.56375562739E+03  0.64011509496E+03  0.00000000000E+00 0.  1.
<mgrwt>
<rscale>  0 0.14662238E+03</rscale>
<asrwt>0</asrwt>
<pdfrwt beam="1">  1        2 0.15440841E+00 0.72003492E+02</pdfrwt>
<pdfrwt beam="2">  1       -1 0.98402748E-01 0.29857054E+03</pdfrwt>
<totfact> 0.33619906E+01</totfact>
</mgrwt>
</event>
<event>
 7    1  0.3113530E-004  0.6503342E+02  0.7546771E-02  0.1464510E+00
          2   -1    0    0  503    0  0.00000000000E+00  0.00000000000E+00  0.25319588959E+03  0.25319588959E+03  0.00000000000E+00 0. -1.
         -1   -1    0    0    0  501 -0.00000000000E+00 -0.00000000000E+00 -0.65223065661E+02  0.65223065661E+02  0.00000000000E+00 0.  1.
         25    2    1    2    0    0  0.27835314162E+02  0.58202166067E+02  0.15654613033E+03  0.21045008623E+03  0.12498100266E+03 0.  0.
          4    1    3    3  502    0 -0.12581449127E+02 -0.20168114832E+02  0.10634161321E+03  0.10897337895E+03  0.12700000000E+01 0.  1.
         -4    1    3    3    0  502  0.40416763289E+02  0.78370280900E+02  0.50204517118E+02  0.10147670729E+03  0.12700000000E+01 0.  1.
          2    1    1    2  503    0  0.26723798657E+02 -0.20054071221E+02  0.23668226450E+02  0.40945233306E+02  0.00000000000E+00 0. -1.
         -1    1    1    2    0  501 -0.54559112819E+02 -0.38148094846E+02  0.77584671523E+01  0.67023635715E+02  0.00000000000E+00 0.  1.
<mgrwt>
<rscale>  0 0.46613977E+02</rscale>
<asrwt>0</asrwt>
<pdfrwt beam="1">  1        2 0.38953213E-01 0.33411483E+02</pdfrwt>
<pdfrwt beam="2">  1       -1 0.10034318E-01 0.65033416E+02</pdfrwt>
<totfact> 0.80166676E+03</totfact>
</mgrwt>
</event>
<event>
 7    1  0.3113530E-004  0.8299813E+02  0.7546771E-02  0.1322281E+00
          3   -1    0    0  503    0 -0.00000000000E+00  0.00000000000E+00  0.45016293033E+03  0.45016293033E+03  0.00000000000E+00 0. -1.
          2   -1    0    0  502    0  0.00000000000E+00 -0.00000000000E+00 -0.88600590113E+02  0.88600590113E+02  0.00000000000E+00 0. -1.
         25    2    1    2    0    0  0.27094892304E+02  0.88798897681E+02  0.11351838306E+03  0.19269009847E+03  0.12499469323E+03 0.  0.
          4    1    3    3  501    0  0.20675107382E+02 -0.17733869622E+02  0.74019126186E+02  0.78882153485E+02  0.12700000000E+01 0. -1.
         -4    1    3    3    0  501  0.64197849221E+01  0.10653276730E+03  0.39499256878E+02  0.11380794498E+03  0.12700000000E+01 0. -1.
          2    1    1    2  502    0 -0.80284168522E+02 -0.21050948901E+02 -0.52964279720E+00  0.82999823412E+02  0.00000000000E+00 0. -1.
          3    1    1    2  503    0  0.53189276218E+02 -0.67747948780E+02  0.24857359995E+03  0.26307359856E+03  0.00000000000E+00 0. -1.
<mgrwt>
<rscale>  0 0.82434420E+02</rscale>
<asrwt>0</asrwt>
<pdfrwt beam="2">  1        2 0.13630860E-01 0.82998134E+02</pdfrwt>
<pdfrwt beam="1">  1        3 0.69255834E-01 0.81874534E+02</pdfrwt>
<totfact> 0.50120463E+02</totfact>
</mgrwt>
</event>
<event>
 7    1  0.3381281E-004  0.4424715E+03  0.7546771E-02  0.1029991E+00
          2   -1    0    0  503    0  0.00000000000E+00  0.00000000000E+00  0.40758345340E+03  0.40758345340E+03  0.00000000000E+00 0. -1.
         -1   -1    0    0    0  501 -0.00000000000E+00 -0.00000000000E+00 -0.12008647512E+03  0.12008647512E+03  0.00000000000E+00 0.  1.
         25    2    1    2    0    0  0.70095044162E+02  0.17512495721E+03  0.20591254078E+03  0.30595392310E+03  0.12500305098E+03 0.  0.
          4    1    3    3  502    0  0.68722936573E+02  0.19462805458E+03  0.19221471406E+03  0.28204792295E+03  0.12700000000E+01 0.  1.
         -4    1    3    3    0  502  0.13721075895E+01 -0.19503097369E+02  0.13697826724E+02  0.23906000150E+02  0.12700000000E+01 0.  1.
          2    1    1    2  503    0 -0.33053916760E+02 -0.13071012429E+03  0.91632566482E+02  0.16301602757E+03  0.00000000000E+00 0. -1.
         -1    1    1    2    0  501 -0.37041127402E+02 -0.44414832922E+02 -0.10048128991E+02  0.58699977844E+02  0.00000000000E+00 0.  1.
<mgrwt>
<rscale>  0 0.44247151E+03</rscale>
<asrwt>0</asrwt>
<pdfrwt beam="1">  1        2 0.62705146E-01 0.44247151E+03</pdfrwt>
<pdfrwt beam="2">  1       -1 0.18474843E-01 0.44247151E+03</pdfrwt>
<totfact> 0.20557503E+03</totfact>
</mgrwt>
</event>
<event>
 7    1  0.3113530E-004  0.5247982E+02  0.7546771E-02  0.1539097E+00
         -2   -1    0    0    0  501 -0.00000000000E+00  0.00000000000E+00  0.35603417750E+02  0.35603417750E+02  0.00000000000E+00 0.  1.
          3   -1    0    0  503    0  0.00000000000E+00 -0.00000000000E+00 -0.11119966981E+04  0.11119966981E+04  0.00000000000E+00 0. -1.
         25    2    1    2    0    0 -0.65516234578E+02  0.29401626504E+02 -0.28243151434E+03  0.31709192107E+03  0.12499157365E+03 0.  0.
          4    1    3    3  502    0 -0.51364735537E+02 -0.20509452257E+02 -0.37767154819E+02  0.66984659227E+02  0.12700000000E+01 0.  1.
         -4    1    3    3    0  502 -0.14151499041E+02  0.49911078761E+02 -0.24466435952E+03  0.25010726185E+03  0.12700000000E+01 0.  1.
          3    1    1    2  503    0  0.40796061288E+02 -0.31668691140E+02 -0.80257311994E+03  0.80423307410E+03  0.00000000000E+00 0. -1.
         -2    1    1    2    0  501  0.24720173290E+02  0.22670646359E+01  0.86113539432E+01  0.26275120671E+02  0.00000000000E+00 0.  1.
<mgrwt>
<rscale>  0 0.36093688E+02</rscale>
<asrwt>0</asrwt>
<pdfrwt beam="2">  1        3 0.17107643E+00 0.52479817E+02</pdfrwt>
<pdfrwt beam="1">  1       -2 0.54774485E-02 0.24823911E+02</pdfrwt>
<totfact> 0.13381614E+02</totfact>
</mgrwt>
</event>
<event>
 7    1  0.3113530E-004  0.4219561E+02  0.7546771E-02  0.1519546E+00
         -1   -1    0    0    0  501 -0.00000000000E+00  0.00000000000E+00  0.74274897982E+02  0.74274897982E+02  0.00000000000E+00 0.  1.
          1   -1    0    0  503    0  0.00000000000E+00 -0.00000000000E+00 -0.15436377104E+03  0.15436377104E+03  0.00000000000E+00 0. -1.
         25    2    1    2    0    0 -0.15890604381E+02 -0.24050183333E+02 -0.48006639895E+02  0.13694250062E+03  0.12497075008E+03 0.  0.
          4    1    3    3  502    0  0.23590290536E+02  0.27020987877E+02 -0.61289290383E+02  0.71025527868E+02  0.12700000000E+01 0.  1.
         -4    1    3    3    0  502 -0.39480894917E+02 -0.51071171209E+02  0.13282650487E+02  0.65916972747E+02  0.12700000000E+01 0.  1.
          1    1    1    2  503    0  0.42325274313E+02 -0.88386801463E+01 -0.11462325430E+02  0.44731823310E+02  0.00000000000E+00 0. -1.
         -1    1    1    2    0  501 -0.26434669931E+02  0.32888863479E+02 -0.20619907731E+02  0.46964345095E+02  0.00000000000E+00 0.  1.
<mgrwt>
<rscale>  0 0.38500414E+02</rscale>
<asrwt>0</asrwt>
<pdfrwt beam="2">  1        1 0.23748272E-01 0.35128821E+02</pdfrwt>
<pdfrwt beam="1">  1       -1 0.11426907E-01 0.42195605E+02</pdfrwt>
<totfact> 0.84579200E+03</totfact>
</mgrwt>
</event>
<event>
 7    1  0.3113530E-004  0.5030584E+02  0.7546771E-02  0.1446984E+00
          2   -1    0    0  502    0  0.00000000000E+00  0.00000000000E+00  0.56047913837E+03  0.56047913837E+03  0.00000000000E+00 0.  1.
          2   -1    0    0  503    0 -0.00000000000E+00 -0.00000000000E+00 -0.21507728691E+03  0.21507728691E+03  0.00000000000E+00 0. -1.
         25    2    1    2    0    0 -0.11187699900E+02  0.89578647918E+01  0.12873648788E+03  0.18000978607E+03  0.12500012720E+03 0.  0.
          4    1    3    3  501    0  0.28936597072E+02 -0.20312437946E+02  0.12531170184E+03  0.13020966670E+03  0.12700000000E+01 0. -1.
         -4    1    3    3    0  501 -0.40124296972E+02  0.29270302738E+02  0.34247860421E+01  0.49800119371E+02  0.12700000000E+01 0. -1.
          2    1    1    2  502    0  0.47735306627E+02  0.23823313402E+02  0.40112911462E+03  0.40466131068E+03  0.00000000000E+00 0.  1.
          2    1    1    2  503    0 -0.36547606727E+02 -0.32781178194E+02 -0.18446375104E+03  0.19088532853E+03  0.00000000000E+00 0. -1.
<mgrwt>
<rscale>  0 0.49696806E+02</rscale>
<asrwt>0</asrwt>
<pdfrwt beam="1">  1        2 0.86227559E-01 0.50305842E+02</pdfrwt>
<pdfrwt beam="2">  1        2 0.33088814E-01 0.49095144E+02</pdfrwt>
<totfact> 0.13300354E+03</totfact>
</mgrwt>
</event>
<event>
 7    1  0.3274976E-004  0.5048447E+02  0.7546771E-02  0.1473549E+00
         -1   -1    0    0    0  501 -0.00000000000E+00  0.00000000000E+00  0.47180071604E+01  0.47180071604E+01  0.00000000000E+00 0.  1.
          2   -1    0    0  503    0  0.00000000000E+00 -0.00000000000E+00 -0.31376769997E+04  0.31376769997E+04  0.00000000000E+00 0. -1.
         25    2    1    2    0    0  0.33119948706E+02  0.50724910187E+02 -0.15262774579E+04  0.15325852729E+04  0.12499917081E+03 0.  0.
          4    1    3    3  502    0 -0.27197005807E+02  0.49559104456E+02 -0.11594458225E+04  0.11608238498E+04  0.12700000000E+01 0. -1.
         -4    1    3    3    0  502  0.60316954513E+02  0.11658057308E+01 -0.36683163536E+03  0.37176142310E+03  0.12700000000E+01 0. -1.
          2    1    1    2  503    0  0.72174732823E+01 -0.50421959908E+02 -0.12125326633E+04  0.12136020458E+04  0.00000000000E+00 0. -1.
         -1    1    1    2    0  501 -0.40337421988E+02 -0.30295027932E+00 -0.39414887135E+03  0.39620768818E+03  0.00000000000E+00 0.  1.
<mgrwt>
<rscale>  0 0.45127275E+02</rscale>
<asrwt>0</asrwt>
<pdfrwt beam="2">  1        2 0.48271828E+00 0.50484474E+02</pdfrwt>
<pdfrwt beam="1">  1       -1 0.72584915E-03 0.40338560E+02</pdfrwt>
<totfact> 0.55990835E+03</totfact>
</mgrwt>
</event>
<event>
 7    1  0.3113530E-004  0.1056547E+03  0.7546771E-02  0.1282861E+00
          1   -1    0    0  503    0  0.00000000000E+00  0.00000000000E+00  0.92122221640E+03  0.92122221640E+03  0.00000000000E+00 0. -1.
         -1   -1    0    0    0  501 -0.00000000000E+00 -0.00000000000E+00 -0.67863784844E+03  0.67863784844E+03  0.00000000000E+00 0.  1.
         25    2    1    2    0    0 -0.75094909139E+02 -0.16036393514E+03  0.97863622556E+02  0.23782038677E+03  0.12500164267E+03 0.  0.
          4    1    3    3  502    0 -0.44090799375E+02 -0.11979527630E+02  0.70130524768E+02  0.83710280587E+02  0.12700000000E+01 0. -1.
         -4    1    3    3    0  502 -0.31004109763E+02 -0.14838440751E+03  0.27733097788E+02  0.15411010618E+03  0.12700000000E+01 0. -1.
          1    1    1    2  503    0 -0.37270596491E+01  0.92296641183E+02  0.74605602182E+03  0.75175271775E+03  0.00000000000E+00 0. -1.
         -1    1    1    2    0  501  0.78821968788E+02  0.68067293957E+02 -0.60133527642E+03  0.61028696032E+03  0.00000000000E+00 0.  1.
<mgrwt>
<rscale>  0 0.98790291E+02</rscale>
<asrwt>0</asrwt>
<pdfrwt beam="1">  1        1 0.14172649E+00 0.92371862E+02</pdfrwt>
<pdfrwt beam="2">  1       -1 0.10440582E+00 0.10565470E+03</pdfrwt>
<totfact> 0.18959826E+01</totfact>
</mgrwt>
</event>
<event>
 7    1  0.3113530E-004  0.3497225E+02  0.7546771E-02  0.1602448E+00
         -1   -1    0    0    0  501 -0.00000000000E+00  0.00000000000E+00  0.21827438791E+04  0.21827438791E+04  0.00000000000E+00 0.  1.
          3   -1    0    0  503    0  0.00000000000E+00 -0.00000000000E+00 -0.19470025842E+02  0.19470025842E+02  0.00000000000E+00 0. -1.
         25    2    1    2    0    0  0.27488352321E+02 -0.16562792262E+00  0.10650281395E+04  0.10726908262E+04  0.12500013523E+03 0.  0.
          4    1    3    3  502    0  0.58864348831E+01 -0.47753746417E+02  0.18657177583E+03  0.19268033333E+03  0.12700000000E+01 0.  1.
         -4    1    3    3    0  502  0.21601917438E+02  0.47588118494E+02  0.87845636364E+03  0.88001049288E+03  0.12700000000E+01 0.  1.
          3    1    1    2  503    0 -0.13041900884E+01  0.25034730922E+02 -0.51036379318E+01  0.25582919776E+02  0.00000000000E+00 0. -1.
         -1    1    1    2    0  501 -0.26184162233E+02 -0.24869103000E+02  0.11033493517E+04  0.11039401589E+04  0.00000000000E+00 0.  1.
<mgrwt>
<rscale>  0 0.29609257E+02</rscale>
<asrwt>0</asrwt>
<pdfrwt beam="2">  1        3 0.29953903E-02 0.25068679E+02</pdfrwt>
<pdfrwt beam="1">  1       -1 0.33580656E+00 0.34972250E+02</pdfrwt>
<totfact> 0.48720088E+01</totfact>
</mgrwt>
</event>
<event>
 7    1  0.3113530E-004  0.2316777E+03  0.7546771E-02  0.1238752E+00
          2   -1    0    0  502    0  0.00000000000E+00  0.00000000000E+00  0.50930829771E+03  0.50930829771E+03  0.00000000000E+00 0. -1.
          3   -1    0    0  503    0 -0.00000000000E+00 -0.00000000000E+00 -0.10874151121E+04  0.10874151121E+04  0.00000000000E+00 0. -1.
         25    2    1    2    0    0  0.14117229016E+03  0.24478754243E+03  0.13394365827E+03  0.33677449093E+03  0.12500239082E+03 0.  0.
          4    1    3    3  501    0  0.10512870350E+03  0.66942491517E+02  0.77345753900E+02  0.14668783187E+03  0.12700000000E+01 0.  1.
         -4    1    3    3    0  501  0.36043586652E+02  0.17784505092E+03  0.56597904372E+02  0.19008665906E+03  0.12700000000E+01 0.  1.
          2    1    1    2  502    0  0.51830109779E+00 -0.64952780558E+02  0.25655673116E+03  0.26465163639E+03  0.00000000000E+00 0. -1.
          3    1    1    2  503    0 -0.14169059125E+03 -0.17983476188E+03 -0.96860720385E+03  0.99529728251E+03  0.00000000000E+00 0. -1.
<mgrwt>
<rscale>  0 0.12267270E+03</rscale>
<asrwt>0</asrwt>
<pdfrwt beam="1">  1        2 0.78355124E-01 0.64954848E+02</pdfrwt>
<pdfrwt beam="2">  1        3 0.16729463E+00 0.23167773E+03</pdfrwt>
<totfact> 0.99469533E+00</totfact>
</mgrwt>
</event>
<event>
 7    1  0.5701929E-004  0.1100012E+03  0.7546771E-02  0.1334843E+00
         -1   -1    0    0    0  501 -0.00000000000E+00  0.00000000000E+00  0.84083313393E+01  0.84083313393E+01  0.00000000000E+00 0.  1.
          2   -1    0    0  503    0  0.00000000000E+00 -0.00000000000E+00 -0.44965088006E+04  0.44965088006E+04  0.00000000000E+00 0. -1.
         25    2    1    2    0    0 -0.76032245506E+02 -0.13400218017E+03 -0.17305382641E+04  0.17418743100E+04  0.12500376611E+03 0.  0.
          4    1    3    3  502    0 -0.84042522262E+02 -0.29166757724E+02 -0.97565362102E+03  0.97970171298E+03  0.12700000000E+01 0. -1.
         -4    1    3    3    0  502  0.80102767563E+01 -0.10483542245E+03 -0.75488464307E+03  0.76217259698E+03  0.12700000000E+01 0. -1.
          2    1    1    2  503    0  0.37590862624E+02  0.94249226838E+02 -0.22857209641E+04  0.22879720967E+04  0.00000000000E+00 0. -1.
         -1    1    1    2    0  501  0.38441382882E+02  0.39752953333E+02 -0.47184124104E+03  0.47507072522E+03  0.00000000000E+00 0.  1.
<mgrwt>
<rscale>  0 0.77993690E+02</rscale>
<asrwt>0</asrwt>
<pdfrwt beam="2">  1        2 0.69177239E+00 0.11000123E+03</pdfrwt>
<pdfrwt beam="1">  1       -1 0.12935861E-02 0.55299523E+02</pdfrwt>
<totfact> 0.24808851E+02</totfact>
</mgrwt>
</event>
<event>
 7    1  0.3113530E-004  0.5085645E+02  0.7546771E-02  0.1535690E+00
         -2   -1    0    0    0  501 -0.00000000000E+00  0.00000000000E+00  0.97621529556E+02  0.97621529556E+02  0.00000000000E+00 0.  1.
          1   -1    0    0  503    0  0.00000000000E+00 -0.00000000000E+00 -0.41433035425E+03  0.41433035425E+03  0.00000000000E+00 0. -1.
         25    2    1    2    0    0  0.36214790481E+02  0.33212762058E+02  0.42235339630E+02  0.14079395254E+03  0.12499805816E+03 0.  0.
          4    1    3    3  502    0 -0.42646952692E+02  0.28962775412E+02  0.33110304925E+02  0.61282217043E+02  0.12700000000E+01 0. -1.
         -4    1    3    3    0  502  0.78861743174E+02  0.42499866462E+01  0.91250347041E+01  0.79511735494E+02  0.12700000000E+01 0. -1.
          1    1    1    2  503    0  0.24318054490E+02 -0.97311245086E+01 -0.64011897119E+02  0.69163469629E+02  0.00000000000E+00 0. -1.
         -2    1    1    2    0  501 -0.60532844972E+02 -0.23481637549E+02 -0.29493226720E+03  0.30199446164E+03  0.00000000000E+00 0.  1.
<mgrwt>
<rscale>  0 0.36497569E+02</rscale>
<asrwt>0</asrwt>
<pdfrwt beam="2">  1        1 0.63743131E-01 0.26192796E+02</pdfrwt>
<pdfrwt beam="1">  1       -2 0.15018697E-01 0.50856448E+02</pdfrwt>
<totfact> 0.16508851E+03</totfact>
</mgrwt>
</event>
<event>
 7    1  0.3113530E-004  0.6136119E+02  0.7546771E-02  0.1531235E+00
          2   -1    0    0  503    0  0.00000000000E+00  0.00000000000E+00  0.22358422872E+04  0.22358422872E+04  0.00000000000E+00 0. -1.
         -2   -1    0    0    0  501 -0.00000000000E+00 -0.00000000000E+00 -0.24068382251E+02  0.24068382251E+02  0.00000000000E+00 0.  1.
         25    2    1    2    0    0 -0.54664719814E+02  0.29074848454E+02  0.65786273860E+03  0.67248809817E+03  0.12499312353E+03 0.  0.
          4    1    3    3  502    0 -0.49004327386E+02  0.29244260411E+02  0.66256460214E+03  0.66501888378E+03  0.12700000000E+01 0.  1.
         -4    1    3    3    0  502 -0.56603924277E+01 -0.16941195725E+00 -0.47018635397E+01  0.74692143893E+01  0.12700000000E+01 0.  1.
          2    1    1    2  503    0  0.61145961033E+02 -0.76818833135E+01  0.15623237683E+04  0.15635387417E+04  0.00000000000E+00 0. -1.
         -2    1    1    2    0  501 -0.64812412198E+01 -0.21392965140E+02 -0.84126019150E+01  0.23883829597E+02  0.00000000000E+00 0.  1.
<mgrwt>
<rscale>  0 0.37035372E+02</rscale>
<asrwt>0</asrwt>
<pdfrwt beam="1">  1        2 0.34397557E+00 0.61361190E+02</pdfrwt>
<pdfrwt beam="2">  1       -2 0.37028298E-02 0.22353198E+02</pdfrwt>
<totfact> 0.15315238E+03</totfact>
</mgrwt>
</event>
<event>
 7    1  0.3113530E-004  0.5593180E+02  0.7546771E-02  0.1438200E+00
          1   -1    0    0  503    0 -0.00000000000E+00  0.00000000000E+00  0.78632058328E+02  0.78632058328E+02  0.00000000000E+00 0.  1.
          2   -1    0    0  502    0  0.00000000000E+00 -0.00000000000E+00 -0.20147461100E+04  0.20147461100E+04  0.00000000000E+00 0. -1.
         25    2    1    2    0    0 -0.24345403316E+02 -0.50092241242E+02 -0.41358862036E+03  0.43564030062E+03  0.12499997336E+03 0.  0.
          4    1    3    3  501    0  0.31556581739E+02  0.17688698662E+02 -0.22111218044E+03  0.22405561174E+03  0.12700000000E+01 0. -1.
         -4    1    3    3    0  501 -0.55901985055E+02 -0.67780939904E+02 -0.19247643991E+03  0.21158468888E+03  0.12700000000E+01 0. -1.
          2    1    1    2  502    0 -0.30359773270E+02  0.36063239364E+02 -0.15779236188E+04  0.15786276382E+04  0.00000000000E+00 0. -1.
          1    1    1    2  503    0  0.54705176586E+02  0.14029001878E+02  0.55398187522E+02  0.79110229551E+02  0.00000000000E+00 0.  1.
<mgrwt>
<rscale>  0 0.51348619E+02</rscale>
<asrwt>0</asrwt>
<pdfrwt beam="2">  1        2 0.30996098E+00 0.47140991E+02</pdfrwt>
<pdfrwt beam="1">  1        1 0.12097238E-01 0.55931803E+02</pdfrwt>
<totfact> 0.54769753E+02</totfact>
</mgrwt>
</event>
<event>
 7    1  0.3113530E-004  0.8318409E+02  0.7546771E-02  0.1379202E+00
         -1   -1    0    0    0  501  0.00000000000E+00  0.00000000000E+00  0.23056557966E+03  0.23056557966E+03  0.00000000000E+00 0.  1.
         -1   -1    0    0    0  502 -0.00000000000E+00 -0.00000000000E+00 -0.29449043503E+03  0.29449043503E+03  0.00000000000E+00 0.  1.
         25    2    1    2    0    0  0.12286983183E+03  0.15313669971E+02 -0.10443083888E+03  0.20460011018E+03  0.12499560357E+03 0.  0.
          4    1    3    3  503    0  0.15736599093E+01 -0.41169371845E+02 -0.16024452266E+02  0.44224309538E+02  0.12700000000E+01 0. -1.
         -4    1    3    3    0  503  0.12129617192E+03  0.56483041816E+02 -0.88406386612E+02  0.16037580064E+03  0.12700000000E+01 0. -1.
         -1    1    1    2    0  501 -0.50190329201E+02  0.30507869663E+01  0.16645613936E+03  0.17388508498E+03  0.00000000000E+00 0.  1.
         -1    1    1    2    0  502 -0.72679502633E+02 -0.18364456937E+02 -0.12595015585E+03  0.14657081954E+03  0.00000000000E+00 0.  1.
<mgrwt>
<rscale>  0 0.64674125E+02</rscale>
<asrwt>0</asrwt>
<pdfrwt beam="1">  1       -1 0.35471627E-01 0.50282964E+02</pdfrwt>
<pdfrwt beam="2">  1       -1 0.45306221E-01 0.83184086E+02</pdfrwt>
<totfact> 0.31502572E+02</totfact>
</mgrwt>
</event>
<event>
 7    1  0.3113530E-004  0.3549284E+02  0.7546771E-02  0.1550105E+00
          2   -1    0    0  502    0  0.00000000000E+00  0.00000000000E+00  0.38426759259E+04  0.38426759259E+04  0.00000000000E+00 0. -1.
          2   -1    0    0  503    0 -0.00000000000E+00 -0.00000000000E+00 -0.32136234561E+02  0.32136234561E+02  0.00000000000E+00 0. -1.
         25    2    1    2    0    0  0.15716809629E+02 -0.62828677678E+02  0.16747381576E+04  0.16806447920E+04  0.12499823822E+03 0.  0.
          4    1    3    3  501    0  0.12538671200E+02  0.36911068263E+02  0.60745202986E+03  0.60870290513E+03  0.12700000000E+01 0.  1.
         -4    1    3    3    0  501  0.31781384285E+01 -0.99739745940E+02  0.10672861278E+04  0.10719418869E+04  0.12700000000E+01 0.  1.
          2    1    1    2  502    0  0.45391235458E+01  0.33879078754E+02  0.21541044774E+04  0.21543756625E+04  0.00000000000E+00 0. -1.
          2    1    1    2  503    0 -0.20255933174E+02  0.28949598924E+02 -0.18302943737E+02  0.39791705870E+02  0.00000000000E+00 0. -1.
<mgrwt>
<rscale>  0 0.34831154E+02</rscale>
<asrwt>0</asrwt>
<pdfrwt beam="1">  1        2 0.59118055E+00 0.34181802E+02</pdfrwt>
<pdfrwt beam="2">  1        2 0.49440391E-02 0.35492841E+02</pdfrwt>
<totfact> 0.18525260E+02</totfact>
</mgrwt>
</event>
<event>
 7    1  0.3113530E-004  0.6885170E+02  0.7546771E-02  0.1408821E+00
          2   -1    0    0  502    0  0.00000000000E+00  0.00000000000E+00  0.66201963147E+03  0.66201963147E+03  0.00000000000E+00 0. -1.
          1   -1    0    0  503    0 -0.00000000000E+00 -0.00000000000E+00 -0.33184793181E+03  0.33184793181E+03  0.00000000000E+00 0. -1.
         25    2    1    2    0    0  0.18349155209E+02  0.83011665169E+02  0.43245052859E+03  0.45811224203E+03  0.12500295423E+03 0.  0.
          4    1    3    3  501    0  0.15447376565E+02  0.11403297311E+03  0.28416639001E+03  0.30658488304E+03  0.12700000000E+01 0. -1.
         -4    1    3    3    0  501  0.29017786442E+01 -0.31021307943E+02  0.14828413859E+03  0.15152735899E+03  0.12700000000E+01 0. -1.
          2    1    1    2  502    0 -0.43972742439E+02 -0.19119206043E+02  0.21029434090E+03  0.21569157594E+03  0.00000000000E+00 0. -1.
          1    1    1    2  503    0  0.25623587229E+02 -0.63892459126E+02 -0.31257316983E+03  0.32006374530E+03  0.00000000000E+00 0. -1.
<mgrwt>
<rscale>  0 0.57457798E+02</rscale>
<asrwt>0</asrwt>
<pdfrwt beam="1">  1        2 0.10184917E+00 0.47949412E+02</pdfrwt>
<pdfrwt beam="2">  1        1 0.51053528E-01 0.68851699E+02</pdfrwt>
<totfact> 0.49808773E+02</totfact>
</mgrwt>
</event>
<event>
 7    1  0.3113530E-004  0.1299540E+03  0.7546771E-02  0.1329985E+00
         -3   -1    0    0    0  501 -0.00000000000E+00  0.00000000000E+00  0.71261236172E+03  0.71261236172E+03  0.00000000000E+00 0.  1.
          3   -1    0    0  503    0  0.00000000000E+00 -0.00000000000E+00 -0.98664836962E+03  0.98664836962E+03  0.00000000000E+00 0. -1.
         25    2    1    2    0    0  0.13577901638E+03  0.16058132852E+02 -0.15392908794E+03  0.24086026953E+03  0.12500280160E+03 0.  0.
          4    1    3    3  502    0  0.15446377103E+02  0.54787968186E+02 -0.32450285138E+02  0.65535836983E+02  0.12700000000E+01 0. -1.
         -4    1    3    3    0  502  0.12033263927E+03 -0.38729835334E+02 -0.12147880280E+03  0.17532443255E+03  0.12700000000E+01 0. -1.
          3    1    1    2  503    0 -0.12615160142E+03  0.31828605179E+02 -0.78298720045E+03  0.79372302645E+03  0.00000000000E+00 0. -1.
         -3    1    1    2    0  501 -0.96274149535E+01 -0.47886738031E+02  0.66288028049E+03  0.66467743535E+03  0.00000000000E+00 0.  1.
<mgrwt>
<rscale>  0 0.79671782E+02</rscale>
<asrwt>0</asrwt>
<pdfrwt beam="2">  1        3 0.15179206E+00 0.12995399E+03</pdfrwt>
<pdfrwt beam="1">  1       -3 0.10963267E+00 0.48844926E+02</pdfrwt>
<totfact> 0.59087943E-01</totfact>
</mgrwt>
</event>
<event>
 7    1  0.3113530E-004  0.6681931E+02  0.7546771E-02  0.1383139E+00
          1   -1    0    0  502    0  0.00000000000E+00  0.00000000000E+00  0.90216765922E+03  0.90216765922E+03  0.00000000000E+00 0. -1.
          1   -1    0    0  503    0 -0.00000000000E+00 -0.00000000000E+00 -0.43615420028E+02  0.43615420028E+02  0.00000000000E+00 0. -1.
         25    2    1    2    0    0  0.68438607353E+01 -0.30397440742E+02  0.18738536693E+03  0.22739162272E+03  0.12499132573E+03 0.  0.
          4    1    3    3  501    0  0.59600837410E+01 -0.78991031620E+02  0.10224173547E+03  0.12934485319E+03  0.12700000000E+01 0. -1.
         -4    1    3    3    0  501  0.88377699427E+00  0.48593590878E+02  0.85143631466E+02  0.98046769531E+02  0.12700000000E+01 0. -1.
          1    1    1    2  502    0 -0.67217221485E+02  0.24899614117E+02  0.65035810058E+03  0.65429641956E+03  0.00000000000E+00 0. -1.
          1    1    1    2  503    0  0.60373360750E+02  0.54978266249E+01  0.20808771670E+02  0.64095036971E+02  0.00000000000E+00 0. -1.
<mgrwt>
<rscale>  0 0.63645884E+02</rscale>
<asrwt>0</asrwt>
<pdfrwt beam="1">  1        1 0.13879501E+00 0.66819311E+02</pdfrwt>
<pdfrwt beam="2">  1        1 0.67100653E-02 0.60623170E+02</pdfrwt>
<totfact> 0.24231128E+03</totfact>
</mgrwt>
</event>
<event>
 7    1  0.3113530E-004  0.1683811E+03  0.7546771E-02  0.1248571E+00
         -1   -1    0    0    0  501 -0.00000000000E+00  0.00000000000E+00  0.10801043766E+04  0.10801043766E+04  0.00000000000E+00 0.  1.
          1   -1    0    0  503    0  0.00000000000E+00 -0.00000000000E+00 -0.18661870718E+04  0.18661870718E+04  0.00000000000E+00 0. -1.
         25    2    1    2    0    0  0.86171007930E+02  0.28894947470E+02  0.54389776103E+02  0.16384641511E+03  0.12500815734E+03 0.  0.
          4    1    3    3  502    0  0.67556491586E+01 -0.54845597692E+01 -0.36969940805E+02  0.38001429112E+02  0.12700000000E+01 0.  1.
         -4    1    3    3    0  502  0.79415358771E+02  0.34379507240E+02  0.91359716909E+02  0.12584498600E+03  0.12700000000E+01 0.  1.
          1    1    1    2  503    0 -0.15777886808E+03 -0.66623331565E+02 -0.18057129435E+04  0.18138169902E+04  0.00000000000E+00 0. -1.
         -1    1    1    2    0  501  0.71607860149E+02  0.37728384094E+02  0.96524047225E+03  0.96862804310E+03  0.00000000000E+00 0.  1.
<mgrwt>
<rscale>  0 0.11674155E+03</rscale>
<asrwt>0</asrwt>
<pdfrwt beam="2">  1        1 0.28710570E+00 0.16838107E+03</pdfrwt>
<pdfrwt beam="1">  1       -1 0.16616990E+00 0.80938968E+02</pdfrwt>
<totfact> 0.13835244E+00</totfact>
</mgrwt>
</event>
<event>
 7    1  0.3113530E-004  0.9227062E+02  0.7546771E-02  0.1314003E+00
          2   -1    0    0  502    0  0.00000000000E+00  0.00000000000E+00  0.14452323919E+04  0.14452323919E+04  0.00000000000E+00 0.  1.
          3   -1    0    0  503    0 -0.00000000000E+00 -0.00000000000E+00 -0.13242631172E+03  0.13242631172E+03  0.00000000000E+00 0. -1.
         25    2    1    2    0    0  0.33043106083E+02 -0.40644555288E+02  0.33939698227E+03  0.36546270574E+03  0.12501540298E+03 0.  0.
          4    1    3    3  501    0  0.36109116733E+01  0.14579463744E+02 -0.46454774011E+01  0.15773167293E+02  0.12700000000E+01 0.  1.
         -4    1    3    3    0  501  0.29432194410E+02 -0.55224019032E+02  0.34404245967E+03  0.34968953845E+03  0.12700000000E+01 0.  1.
          2    1    1    2  502    0  0.17994330673E+02  0.10136039071E+03  0.10768980598E+04  0.10818073562E+04  0.00000000000E+00 0.  1.
          3    1    1    2  503    0 -0.51037436756E+02 -0.60715835421E+02 -0.10348896194E+03  0.13038864163E+03  0.00000000000E+00 0. -1.
<mgrwt>
<rscale>  0 0.85549141E+02</rscale>
<asrwt>0</asrwt>
<pdfrwt beam="1">  1        2 0.22234343E+00 0.92270620E+02</pdfrwt>
<pdfrwt beam="2">  1        3 0.20373280E-01 0.79317291E+02</pdfrwt>
<totfact> 0.19722042E+02</totfact>
</mgrwt>
</event>
<event>
 7    1  0.3113530E-004  0.4632940E+03  0.7546771E-02  0.1023830E+00
         -2   -1    0    0    0  501 -0.00000000000E+00  0.00000000000E+00  0.44656526628E+02  0.44656526628E+02  0.00000000000E+00 0.  1.
          2   -1    0    0  503    0  0.00000000000E+00 -0.00000000000E+00 -0.12016233459E+04  0.12016233459E+04  0.00000000000E+00 0. -1.
         25    2    1    2    0    0  0.75134333051E+02  0.18387926400E+03 -0.71014251163E+03  0.74791978608E+03  0.12499947140E+03 0.  0.
          4    1    3    3  502    0  0.10581349757E+03  0.16739651888E+03 -0.63333481028E+03  0.66357568190E+03  0.12700000000E+01 0. -1.
         -4    1    3    3    0  502 -0.30679164520E+02  0.16482745129E+02 -0.76807701350E+02  0.84344104177E+02  0.12700000000E+01 0. -1.
          2    1    1    2  503    0  0.61501022912E+01 -0.94068902133E+02 -0.25076514334E+03  0.26789912135E+03  0.00000000000E+00 0. -1.
         -2    1    1    2    0  501 -0.81284435342E+02 -0.89810361871E+02 -0.19605916432E+03  0.23046096512E+03  0.00000000000E+00 0.  1.
<mgrwt>
<rscale>  0 0.46329397E+03</rscale>
<asrwt>0</asrwt>
<pdfrwt beam="2">  1        2 0.18486512E+00 0.46329397E+03</pdfrwt>
<pdfrwt beam="1">  1       -2 0.68702352E-02 0.46329397E+03</pdfrwt>
<totfact> 0.23921264E+03</totfact>
</mgrwt>
</event>
<event>
 7    1  0.3113530E-004  0.6863948E+02  0.7546771E-02  0.1421382E+00
          2   -1    0    0  503    0  0.00000000000E+00  0.00000000000E+00  0.18021463258E+04  0.18021463258E+04  0.00000000000E+00 0. -1.
         -1   -1    0    0    0  501 -0.00000000000E+00 -0.00000000000E+00 -0.19101973102E+02  0.19101973102E+02  0.00000000000E+00 0.  1.
         25    2    1    2    0    0  0.72167517702E+02  0.30827287611E+02  0.15867712755E+04  0.15936212603E+04  0.12500867222E+03 0.  0.
          4    1    3    3  502    0 -0.53973183621E+01 -0.40831671790E+02  0.52293865477E+03  0.52455963057E+03  0.12700000000E+01 0. -1.
         -4    1    3    3    0  502  0.77564836064E+02  0.71658959401E+02  0.10638326207E+04  0.10690616297E+04  0.12700000000E+01 0. -1.
          2    1    1    2  503    0 -0.34462610988E+02  0.26770249996E+02  0.52848879174E+02  0.68537010957E+02  0.00000000000E+00 0. -1.
         -1    1    1    2    0  501 -0.37704906713E+02 -0.57597537607E+02  0.14342419799E+03  0.15909002765E+03  0.00000000000E+00 0.  1.
<mgrwt>
<rscale>  0 0.54729548E+02</rscale>
<asrwt>0</asrwt>
<pdfrwt beam="1">  1        2 0.27725315E+00 0.43638490E+02</pdfrwt>
<pdfrwt beam="2">  1       -1 0.29387665E-02 0.68639484E+02</pdfrwt>
<totfact> 0.43025545E+03</totfact>
</mgrwt>
</event>
<event>
 7    1  0.3113530E-004  0.8198779E+02  0.7546771E-02  0.1345872E+00
          2   -1    0    0  503    0  0.00000000000E+00  0.00000000000E+00  0.55673946799E+03  0.55673946799E+03  0.00000000000E+00 0. -1.
         -3   -1    0    0    0  501 -0.00000000000E+00 -0.00000000000E+00 -0.81658836190E+02  0.81658836190E+02  0.00000000000E+00 0.  1.
         25    2    1    2    0    0 -0.10312963615E+03 -0.47499230509E+02  0.54152678767E+02  0.17734060580E+03  0.12500111639E+03 0.  0.
          4    1    3    3  502    0  0.17936563184E+02 -0.17233335585E+02  0.45958539455E+02  0.52273400531E+02  0.12700000000E+01 0. -1.
         -4    1    3    3    0  502 -0.12106619933E+03 -0.30265894924E+02  0.81941393120E+01  0.12506720527E+03  0.12700000000E+01 0. -1.
          2    1    1    2  503    0  0.39805853221E+02  0.70692493149E+02  0.36361478645E+03  0.37255556292E+03  0.00000000000E+00 0. -1.
         -3    1    1    2    0  501  0.63323782925E+02 -0.23193262640E+02  0.57313166577E+02  0.88502135449E+02  0.00000000000E+00 0.  1.
<mgrwt>
<rscale>  0 0.74357642E+02</rscale>
<asrwt>0</asrwt>
<pdfrwt beam="1">  1        2 0.85652223E-01 0.81987786E+02</pdfrwt>
<pdfrwt beam="2">  1       -3 0.12562898E-01 0.67437593E+02</pdfrwt>
<totfact> 0.15570578E+03</totfact>
</mgrwt>
</event>
<event>
 7    1  0.3113530E-004  0.6273338E+02  0.7546771E-02  0.1434657E+00
         -2   -1    0    0    0  501  0.00000000000E+00  0.00000000000E+00  0.76722067354E+02  0.76722067354E+02  0.00000000000E+00 0.  1.
         -2   -1    0    0    0  502 -0.00000000000E+00 -0.00000000000E+00 -0.38346072729E+03  0.38346072729E+03  0.00000000000E+00 0. -1.
         25    2    1    2    0    0 -0.71107240854E+02 -0.23309400977E+02 -0.37874924179E+02  0.15052065049E+03  0.12498955343E+03 0.  0.
          4    1    3    3  503    0 -0.97747809318E+02 -0.47830083713E+02 -0.34338027850E+02  0.11411864086E+03  0.12700000000E+01 0.  1.
         -4    1    3    3    0  503  0.26640568464E+02  0.24520682736E+02 -0.35368963282E+01  0.36402009636E+02  0.12700000000E+01 0.  1.
         -2    1    1    2    0  502  0.12982325189E+02  0.41165033809E+02 -0.23722083120E+03  0.24111578864E+03  0.00000000000E+00 0. -1.
         -2    1    1    2    0  501  0.58124915665E+02 -0.17855632832E+02 -0.31642904554E+02  0.68546355509E+02  0.00000000000E+00 0.  1.
<mgrwt>
<rscale>  0 0.52036541E+02</rscale>
<asrwt>0</asrwt>
<pdfrwt beam="1">  1       -2 0.11803395E-01 0.62733378E+02</pdfrwt>
<pdfrwt beam="2">  1       -2 0.58993958E-01 0.43163651E+02</pdfrwt>
<totfact> 0.84025021E+02</totfact>
</mgrwt>
</event>
<event>
 7    1  0.3113530E-004  0.6944070E+02  0.7546771E-02  0.1391652E+00
          2   -1    0    0  503    0  0.00000000000E+00  0.00000000000E+00  0.31756165615E+02  0.31756165615E+02  0.00000000000E+00 0. -1.
          2   -1    0    0  502    0 -0.00000000000E+00 -0.00000000000E+00 -0.19448582241E+04  0.19448582241E+04  0.00000000000E+00 0. -1.
         25    2    1    2    0    0 -0.21894165524E+02  0.41028000141E+02 -0.79165268259E+03  0.80280970573E+03  0.12500720974E+03 0.  0.
          4    1    3    3  501    0  0.28070898019E+02  0.57924062464E+02 -0.61732871149E+03  0.62067666563E+03  0.12700000000E+01 0. -1.
         -4    1    3    3    0  501 -0.49965063543E+02 -0.16896062323E+02 -0.17432397110E+03  0.18213304010E+03  0.12700000000E+01 0. -1.
          2    1    1    2  502    0  0.73789594446E+02 -0.24502197221E+02 -0.11164041245E+04  0.11191083197E+04  0.00000000000E+00 0. -1.
          2    1    1    2  503    0 -0.51895428922E+02 -0.16525802920E+02 -0.50452513555E+01  0.54696364289E+02  0.00000000000E+00 0. -1.
<mgrwt>
<rscale>  0 0.61497653E+02</rscale>
<asrwt>0</asrwt>
<pdfrwt beam="1">  1        2 0.48855646E-02 0.54463178E+02</pdfrwt>
<pdfrwt beam="2">  1        2 0.29920892E+00 0.69440703E+02</pdfrwt>
<totfact> 0.19848345E+03</totfact>
</mgrwt>
</event>
<event>
 7    1  0.3113530E-004  0.6480692E+02  0.7546771E-02  0.1455846E+00
          2   -1    0    0  503    0  0.00000000000E+00  0.00000000000E+00  0.23249678129E+04  0.23249678129E+04  0.00000000000E+00 0. -1.
          2   -1    0    0  502    0 -0.00000000000E+00 -0.00000000000E+00 -0.50654281494E+02  0.50654281494E+02  0.00000000000E+00 0. -1.
         25    2    1    2    0    0 -0.25188806894E+02 -0.16045806126E+02  0.12336656029E+03  0.17814506075E+03  0.12499764232E+03 0.  0.
          4    1    3    3  501    0  0.42071223144E+02  0.39285654192E+00  0.93866583739E+02  0.10287220517E+03  0.12700000000E+01 0. -1.
         -4    1    3    3    0  501 -0.67260030038E+02 -0.16438662668E+02  0.29499976551E+02  0.75272855582E+02  0.12700000000E+01 0. -1.
          2    1    1    2  502    0 -0.32298962375E+02 -0.15220942318E+02 -0.87714881064E+01  0.36767364049E+02  0.00000000000E+00 0. -1.
          2    1    1    2  503    0  0.57487769269E+02  0.31266748444E+02  0.21597184593E+04  0.21607096696E+04  0.00000000000E+00 0. -1.
<mgrwt>
<rscale>  0 0.48103836E+02</rscale>
<asrwt>0</asrwt>
<pdfrwt beam="1">  1        2 0.35768727E+00 0.64806916E+02</pdfrwt>
<pdfrwt beam="2">  1        2 0.77929682E-02 0.35705743E+02</pdfrwt>
<totfact> 0.69543921E+02</totfact>
</mgrwt>
</event>
<event>
 7    1  0.3113530E-004  0.5394566E+02  0.7546771E-02  0.1513698E+00
         -3   -1    0    0    0  501 -0.00000000000E+00  0.00000000000E+00  0.51543335828E+03  0.51543335828E+03  0.00000000000E+00 0.  1.
          1   -1    0    0  503    0  0.00000000000E+00 -0.00000000000E+00 -0.11184258452E+03  0.11184258452E+03  0.00000000000E+00 0. -1.
         25    2    1    2    0    0 -0.80728306993E+02  0.10661696194E+02  0.67319588029E+02  0.16366912860E+03  0.12499970164E+03 0.  0.
          4    1    3    3  502    0 -0.72260592507E+02 -0.49899710761E+02  0.43781150084E+02  0.98132442985E+02  0.12700000000E+01 0. -1.
         -4    1    3    3    0  502 -0.84677144853E+01  0.60561406954E+02  0.23538437944E+02  0.65536685618E+02  0.12700000000E+01 0. -1.
          1    1    1    2  503    0  0.28038203386E+02 -0.55286162799E+01 -0.58602937320E+02  0.65199775380E+02  0.00000000000E+00 0. -1.
         -3    1    1    2    0  501  0.52690103607E+02 -0.51330799137E+01  0.39487412305E+03  0.39840703882E+03  0.00000000000E+00 0.  1.
<mgrwt>
<rscale>  0 0.39264017E+02</rscale>
<asrwt>0</asrwt>
<pdfrwt beam="2">  1        1 0.17206552E-01 0.28578076E+02</pdfrwt>
<pdfrwt beam="1">  1       -3 0.79297438E-01 0.53945656E+02</pdfrwt>
<totfact> 0.22170333E+02</totfact>
</mgrwt>
</event>
<event>
 7    1  0.3675094E-004  0.7197626E+02  0.7546771E-02  0.1423053E+00
          2   -1    0    0  503    0  0.00000000000E+00  0.00000000000E+00  0.14071767925E+03  0.14071767925E+03  0.00000000000E+00 0. -1.
         -1   -1    0    0    0  501 -0.00000000000E+00 -0.00000000000E+00 -0.15734776752E+03  0.15734776752E+03  0.00000000000E+00 0.  1.
         25    2    1    2    0    0 -0.90691803168E+02 -0.41052727751E+02 -0.46441089567E+02  0.16640883968E+03  0.12499919003E+03 0.  0.
          4    1    3    3  502    0 -0.29187469576E+02 -0.60811453543E+02 -0.70390236891E+02  0.97500459547E+02  0.12700000000E+01 0. -1.
         -4    1    3    3    0  502 -0.61504333592E+02  0.19758725791E+02  0.23949147325E+02  0.68908380137E+02  0.12700000000E+01 0. -1.
          2    1    1    2  503    0  0.29652930911E+02  0.28438427941E+02  0.51302608108E+02  0.65726692401E+02  0.00000000000E+00 0. -1.
         -1    1    1    2    0  501  0.61038872257E+02  0.12614299810E+02 -0.21491606811E+02  0.65929914678E+02  0.00000000000E+00 0.  1.
<mgrwt>
<rscale>  0 0.54380142E+02</rscale>
<asrwt>0</asrwt>
<pdfrwt beam="1">  1        2 0.21648874E-01 0.41085770E+02</pdfrwt>
<pdfrwt beam="2">  1       -1 0.24207349E-01 0.71976256E+02</pdfrwt>
<totfact> 0.38326782E+03</totfact>
</mgrwt>
</event>
<event>
 7    1  0.3113530E-004  0.7899264E+02  0.7546771E-02  0.1365109E+00
         -1   -1    0    0    0  501 -0.00000000000E+00  0.00000000000E+00  0.42754163461E+03  0.42754163461E+03  0.00000000000E+00 0.  1.
          1   -1    0    0  503    0  0.00000000000E+00 -0.00000000000E+00 -0.35506928194E+03  0.35506928194E+03  0.00000000000E+00 0.  1.
         25    2    1    2    0    0 -0.13121900257E+03 -0.35505790311E+02 -0.29864058784E+02  0.18707022688E+03  0.12499727995E+03 0.  0.
          4    1    3    3  502    0 -0.12342291738E+02  0.34023583635E+01  0.41229597662E+02  0.43190286306E+02  0.12700000000E+01 0. -1.
         -4    1    3    3    0  502 -0.11887671083E+03 -0.38908148674E+02 -0.71093656446E+02  0.14387994057E+03  0.12700000000E+01 0. -1.
          1    1    1    2  503    0  0.58428849723E+02  0.11135225864E+02 -0.23868609088E+03  0.24598571851E+03  0.00000000000E+00 0.  1.
         -1    1    1    2    0  501  0.72790152849E+02  0.24370564447E+02  0.34102250233E+03  0.34955497116E+03  0.00000000000E+00 0.  1.
<mgrwt>
<rscale>  0 0.68545736E+02</rscale>
<asrwt>0</asrwt>
<pdfrwt beam="2">  1        1 0.54626044E-01 0.59480448E+02</pdfrwt>
<pdfrwt beam="1">  1       -1 0.65775636E-01 0.78992644E+02</pdfrwt>
<totfact> 0.17979745E+02</totfact>
</mgrwt>
</event>
<event>
 7    1  0.3113530E-004  0.3662780E+02  0.7546771E-02  0.1537973E+00
         -3   -1    0    0    0  501 -0.00000000000E+00  0.00000000000E+00  0.56341164569E+03  0.56341164569E+03  0.00000000000E+00 0.  1.
          2   -1    0    0  503    0  0.00000000000E+00 -0.00000000000E+00 -0.21034403084E+04  0.21034403084E+04  0.00000000000E+00 0. -1.
         25    2    1    2    0    0  0.53692691440E+01 -0.18089741536E+02 -0.22827696648E+01  0.12643440368E+03  0.12499751836E+03 0.  0.
          4    1    3    3  502    0  0.50237299067E+02  0.18583297516E+02 -0.30837563350E+02  0.61819846146E+02  0.12700000000E+01 0.  1.
         -4    1    3    3    0  502 -0.44868029923E+02 -0.36673039052E+02  0.28554793685E+02  0.64614557531E+02  0.12700000000E+01 0.  1.
          2    1    1    2  503    0 -0.36703121128E+02  0.71383318016E+00 -0.20382760778E+04  0.20386066315E+04  0.00000000000E+00 0. -1.
         -3    1    1    2    0  501  0.31333851984E+02  0.17375908356E+02  0.50053018476E+03  0.50181091890E+03  0.00000000000E+00 0.  1.
<mgrwt>
<rscale>  0 0.36226306E+02</rscale>
<asrwt>0</asrwt>
<pdfrwt beam="2">  1        2 0.32360620E+00 0.36627801E+02</pdfrwt>
<pdfrwt beam="1">  1       -3 0.86678715E-01 0.35829213E+02</pdfrwt>
<totfact> 0.60710942E+00</totfact>
</mgrwt>
</event>
<event>
 7    1  0.3113530E-004  0.1279856E+03  0.7546771E-02  0.1357615E+00
         -1   -1    0    0    0  501 -0.00000000000E+00  0.00000000000E+00  0.88747572725E+02  0.88747572725E+02  0.00000000000E+00 0.  1.
          2   -1    0    0  503    0  0.00000000000E+00 -0.00000000000E+00 -0.19114280077E+04  0.19114280077E+04  0.00000000000E+00 0. -1.
         25    2    1    2    0    0  0.97383793825E+02 -0.58472043575E+02 -0.29705605822E+03  0.34171501813E+03  0.12499707481E+03 0.  0.
          4    1    3    3  502    0  0.52073514816E+02 -0.83475200479E+02 -0.10980396744E+03  0.14743908643E+03  0.12700000000E+01 0.  1.
         -4    1    3    3    0  502  0.45310279009E+02  0.25003156903E+02 -0.18725209077E+03  0.19427593170E+03  0.12700000000E+01 0.  1.
          2    1    1    2  503    0 -0.87638771556E+02  0.96330323856E+02 -0.15833756552E+04  0.15887223015E+04  0.00000000000E+00 0. -1.
         -1    1    1    2    0  501 -0.97450222696E+01 -0.37858280280E+02  0.57751278530E+02  0.69738260781E+02  0.00000000000E+00 0.  1.
<mgrwt>
<rscale>  0 0.70733759E+02</rscale>
<asrwt>0</asrwt>
<pdfrwt beam="2">  1        2 0.29406583E+00 0.12798565E+03</pdfrwt>
<pdfrwt beam="1">  1       -1 0.13653473E-01 0.39092389E+02</pdfrwt>
<totfact> 0.34280585E+02</totfact>
</mgrwt>
</event>
<event>
 7    1  0.3113530E-004  0.1107643E+03  0.7546771E-02  0.1431584E+00
          1   -1    0    0  503    0 -0.00000000000E+00  0.00000000000E+00  0.23893088678E+03  0.23893088678E+03  0.00000000000E+00 0. -1.
          2   -1    0    0  502    0  0.00000000000E+00 -0.00000000000E+00 -0.20287304049E+04  0.20287304049E+04  0.00000000000E+00 0. -1.
         25    2    1    2    0    0  0.91331357634E+02  0.66759153673E+02 -0.83852978187E+03  0.85530434901E+03  0.12496052521E+03 0.  0.
          4    1    3    3  501    0  0.11055148671E+03  0.70354091351E+02 -0.52303892051E+03  0.53920557736E+03  0.12700000000E+01 0.  1.
         -4    1    3    3    0  501 -0.19220129071E+02 -0.35949376785E+01 -0.31549086136E+03  0.31609877165E+03  0.12700000000E+01 0.  1.
          2    1    1    2  502    0  0.10336592830E+02 -0.22784988954E+02 -0.11683660558E+04  0.11686339210E+04  0.00000000000E+00 0. -1.
          1    1    1    2  503    0 -0.10166795046E+03 -0.43974164719E+02  0.21709631959E+03  0.24372302168E+03  0.00000000000E+00 0. -1.
<mgrwt>
<rscale>  0 0.52643369E+02</rscale>
<asrwt>0</asrwt>
<pdfrwt beam="2">  1        2 0.31211237E+00 0.25020009E+02</pdfrwt>
<pdfrwt beam="1">  1        1 0.36758597E-01 0.11076432E+03</pdfrwt>
<totfact> 0.14953422E+02</totfact>
</mgrwt>
</event>
<event>
 7    1  0.3113530E-004  0.7110021E+02  0.7546771E-02  0.1404037E+00
          1   -1    0    0  503    0  0.00000000000E+00  0.00000000000E+00  0.13589552689E+03  0.13589552689E+03  0.00000000000E+00 0. -1.
          1   -1    0    0  502    0 -0.00000000000E+00 -0.00000000000E+00 -0.90198915605E+03  0.90198915605E+03  0.00000000000E+00 0. -1.
         25    2    1    2    0    0 -0.29965626246E+02 -0.35103070492E+02 -0.69381796874E+03  0.70649828919E+03  0.12500517816E+03 0.  0.
          4    1    3    3  501    0 -0.56610560012E+02 -0.15516290313E+02 -0.64411733593E+03  0.64678765149E+03  0.12700000000E+01 0.  1.
         -4    1    3    3    0  501  0.26644933766E+02 -0.19586780179E+02 -0.49700632806E+02  0.59710637699E+02  0.12700000000E+01 0.  1.
          1    1    1    2  502    0 -0.40998201443E+02  0.25361438633E+02 -0.18866217533E+03  0.19472409068E+03  0.00000000000E+00 0. -1.
          1    1    1    2  503    0  0.70963827689E+02  0.97416318583E+01  0.11638651490E+03  0.13666230307E+03  0.00000000000E+00 0. -1.
<mgrwt>
<rscale>  0 0.58545976E+02</rscale>
<asrwt>0</asrwt>
<pdfrwt beam="1">  1        1 0.20907005E-01 0.71100212E+02</pdfrwt>
<pdfrwt beam="2">  1        1 0.13876756E+00 0.48208455E+02</pdfrwt>
<totfact> 0.58137209E+02</totfact>
</mgrwt>
</event>
<event>
 7    1  0.3113530E-004  0.6026288E+02  0.7546771E-02  0.1418468E+00
          1   -1    0    0  503    0 -0.00000000000E+00  0.00000000000E+00  0.57870538188E+03  0.57870538188E+03  0.00000000000E+00 0. -1.
          2   -1    0    0  502    0  0.00000000000E+00 -0.00000000000E+00 -0.89882638437E+03  0.89882638437E+03  0.00000000000E+00 0. -1.
         25    2    1    2    0    0  0.30170519259E+01  0.47195668045E+02  0.49692601118E+02  0.14256567189E+03  0.12497632780E+03 0.  0.
          4    1    3    3  501    0 -0.13413742446E+02  0.27204345690E+02  0.89814148606E+02  0.94806113203E+02  0.12700000000E+01 0. -1.
         -4    1    3    3    0  501  0.16430794372E+02  0.19991322355E+02 -0.40121547488E+02  0.47759558687E+02  0.12700000000E+01 0. -1.
          2    1    1    2  502    0 -0.51514692402E+02 -0.31972247537E+02 -0.84996847457E+03  0.85212815698E+03  0.00000000000E+00 0. -1.
          1    1    1    2  503    0  0.48497640476E+02 -0.15223420508E+02  0.48015487097E+03  0.48283793738E+03  0.00000000000E+00 0. -1.
<mgrwt>
<rscale>  0 0.55346297E+02</rscale>
<asrwt>0</asrwt>
<pdfrwt beam="2">  1        2 0.13828098E+00 0.60262884E+02</pdfrwt>
<pdfrwt beam="1">  1        1 0.89031597E-01 0.50830834E+02</pdfrwt>
<totfact> 0.17359784E+02</totfact>
</mgrwt>
</event>
<event>
 7    1  0.3113530E-004  0.8291105E+02  0.7546771E-02  0.1332983E+00
          2   -1    0    0  503    0  0.00000000000E+00  0.00000000000E+00  0.66316657932E+03  0.66316657932E+03  0.00000000000E+00 0. -1.
          2   -1    0    0  502    0 -0.00000000000E+00 -0.00000000000E+00 -0.88222333225E+03  0.88222333225E+03  0.00000000000E+00 0. -1.
         25    2    1    2    0    0 -0.62117673576E+02 -0.11395595979E+03 -0.18785844662E+03  0.26030285738E+03  0.12498886132E+03 0.  0.
          4    1    3    3  501    0 -0.48694999820E+02  0.24367712634E+01 -0.10801040091E+03  0.11851160478E+03  0.12700000000E+01 0. -1.
         -4    1    3    3    0  501 -0.13422673756E+02 -0.11639273105E+03 -0.79848045701E+02  0.14179125260E+03  0.12700000000E+01 0. -1.
          2    1    1    2  502    0 -0.10091009565E+02  0.73885530629E+02 -0.65329287501E+03  0.65753515545E+03  0.00000000000E+00 0. -1.
          2    1    1    2  503    0  0.72208683141E+02  0.40070429157E+02  0.62209456870E+03  0.62755189874E+03  0.00000000000E+00 0. -1.
<mgrwt>
<rscale>  0 0.78630761E+02</rscale>
<asrwt>0</asrwt>
<pdfrwt beam="1">  1        2 0.10202563E+00 0.82911049E+02</pdfrwt>
<pdfrwt beam="2">  1        2 0.13572667E+00 0.74571443E+02</pdfrwt>
<totfact> 0.23788051E+02</totfact>
</mgrwt>
</event>
<event>
 7    1  0.3113530E-004  0.9610436E+02  0.7546771E-02  0.1439298E+00
          2   -1    0    0  503    0  0.00000000000E+00  0.00000000000E+00  0.11946678895E+04  0.11946678895E+04  0.00000000000E+00 0. -1.
          2   -1    0    0  502    0 -0.00000000000E+00 -0.00000000000E+00 -0.59217317073E+03  0.59217317073E+03  0.00000000000E+00 0.  1.
         25    2    1    2    0    0  0.97727770502E+02  0.56200014865E+02  0.19766077098E+03  0.25962075137E+03  0.12499598137E+03 0.  0.
          4    1    3    3  501    0 -0.10222126904E+02  0.57244844766E+02  0.50000580032E+02  0.76701597339E+02  0.12700000000E+01 0. -1.
         -4    1    3    3    0  501  0.10794989741E+03 -0.10448299015E+01  0.14766019095E+03  0.18291915403E+03  0.12700000000E+01 0. -1.
          2    1    1    2  502    0 -0.26407383170E+02  0.65648054620E+01 -0.55852528550E+03  0.55918775120E+03  0.00000000000E+00 0.  1.
          2    1    1    2  503    0 -0.71320387331E+02 -0.62764820327E+02  0.96335923330E+03  0.96803255766E+03  0.00000000000E+00 0. -1.
<mgrwt>
<rscale>  0 0.51138146E+02</rscale>
<asrwt>0</asrwt>
<pdfrwt beam="1">  1        2 0.18379506E+00 0.96104360E+02</pdfrwt>
<pdfrwt beam="2">  1        2 0.91103565E-01 0.27211148E+02</pdfrwt>
<totfact> 0.18005411E+02</totfact>
</mgrwt>
</event>
<event>
 7    1  0.3113530E-004  0.1328515E+03  0.7546771E-02  0.1297316E+00
          1   -1    0    0  502    0  0.00000000000E+00  0.00000000000E+00  0.14270676547E+04  0.14270676547E+04  0.00000000000E+00 0. -1.
          3   -1    0    0  503    0 -0.00000000000E+00 -0.00000000000E+00 -0.61800722629E+03  0.61800722629E+03  0.00000000000E+00 0. -1.
         25    2    1    2    0    0  0.93444356868E+02  0.64110935131E+02  0.56825373722E+02  0.17803500307E+03  0.12500111754E+03 0.  0.
          4    1    3    3  501    0  0.35835693196E+02  0.89834239897E+02  0.58301788299E+01  0.96901968246E+02  0.12700000000E+01 0.  1.
         -4    1    3    3    0  501  0.57608663672E+02 -0.25723304767E+02  0.50995194892E+02  0.81133034827E+02  0.12700000000E+01 0.  1.
          1    1    1    2  502    0 -0.13394670441E+03 -0.14348243704E+02  0.13043103350E+04  0.13112486574E+04  0.00000000000E+00 0. -1.
          3    1    1    2  503    0  0.40502347541E+02 -0.49762691427E+02 -0.55207528030E+03  0.55579122046E+03  0.00000000000E+00 0. -1.
<mgrwt>
<rscale>  0 0.92325610E+02</rscale>
<asrwt>0</asrwt>
<pdfrwt beam="1">  1        1 0.21954887E+00 0.13285145E+03</pdfrwt>
<pdfrwt beam="2">  1        3 0.95078035E-01 0.64162026E+02</pdfrwt>
<totfact> 0.46251402E+00</totfact>
</mgrwt>
</event>
<event>
 7    1  0.3113530E-004  0.4718650E+02  0.7546771E-02  0.1578424E+00
          1   -1    0    0  503    0  0.00000000000E+00  0.00000000000E+00  0.73920476300E+03  0.73920476300E+03  0.00000000000E+00 0. -1.
         -1   -1    0    0    0  501 -0.00000000000E+00 -0.00000000000E+00 -0.26898116680E+03  0.26898116680E+03  0.00000000000E+00 0.  1.
         25    2    1    2    0    0 -0.43100694030E+02 -0.41595723310E+02  0.15967763467E+03  0.21144544970E+03  0.12499742862E+03 0.  0.
          4    1    3    3  502    0 -0.83113479310E+02 -0.48675368395E+02  0.96734926677E+02  0.13651520381E+03  0.12700000000E+01 0.  1.
         -4    1    3    3    0  502  0.40012785281E+02  0.70796450846E+01  0.62942707992E+02  0.74930245895E+02  0.12700000000E+01 0.  1.
          1    1    1    2  503    0  0.21506557672E+02 -0.22707130030E+00  0.55115314722E+03  0.55157263826E+03  0.00000000000E+00 0. -1.
         -1    1    1    2    0  501  0.21594136358E+02  0.41822794611E+02 -0.24060718569E+03  0.24516784185E+03  0.00000000000E+00 0.  1.
<mgrwt>
<rscale>  0 0.31857116E+02</rscale>
<asrwt>0</asrwt>
<pdfrwt beam="1">  1        1 0.11372381E+00 0.21507756E+02</pdfrwt>
<pdfrwt beam="2">  1       -1 0.41381718E-01 0.47186504E+02</pdfrwt>
<totfact> 0.17046012E+02</totfact>
</mgrwt>
</event>
<event>
 7    1  0.3113530E-004  0.1805365E+03  0.7546771E-02  0.1198921E+00
          1   -1    0    0  503    0  0.00000000000E+00  0.00000000000E+00  0.61094509329E+02  0.61094509329E+02  0.00000000000E+00 0. -1.
         -2   -1    0    0    0  501 -0.00000000000E+00 -0.00000000000E+00 -0.50055042643E+04  0.50055042643E+04  0.00000000000E+00 0.  1.
         25    2    1    2    0    0  0.92039567476E+02  0.20789974653E+03 -0.15510310246E+04  0.15725829418E+04  0.12500513139E+03 0.  0.
          4    1    3    3  502    0  0.89720154790E+02  0.21752894358E+03 -0.12851654162E+04  0.13065298724E+04  0.12700000000E+01 0. -1.
         -4    1    3    3    0  502  0.23194126861E+01 -0.96291970468E+01 -0.26586560841E+03  0.26605306942E+03  0.12700000000E+01 0. -1.
          1    1    1    2  503    0  0.30769355122E+02 -0.17654858161E+03 -0.11444955778E+03  0.21263785213E+03  0.00000000000E+00 0. -1.
         -2    1    1    2    0  501 -0.12280892260E+03 -0.31351164921E+02 -0.32789291726E+04  0.32813779798E+04  0.00000000000E+00 0.  1.
<mgrwt>
<rscale>  0 0.15126980E+03</rscale>
<asrwt>0</asrwt>
<pdfrwt beam="1">  1        1 0.93991535E-02 0.18053654E+03</pdfrwt>
<pdfrwt beam="2">  1       -2 0.77007772E+00 0.12674749E+03</pdfrwt>
<totfact> 0.11129536E-01</totfact>
</mgrwt>
</event>
<event>
 7    1  0.3113530E-004  0.7760669E+02  0.7546771E-02  0.1411950E+00
         -1   -1    0    0    0  501  0.00000000000E+00  0.00000000000E+00  0.20877359275E+03  0.20877359275E+03  0.00000000000E+00 0.  1.
         -1   -1    0    0    0  502 -0.00000000000E+00 -0.00000000000E+00 -0.18484314685E+03  0.18484314685E+03  0.00000000000E+00 0.  1.
         25    2    1    2    0    0 -0.63096471178E+02  0.56528371951E+02  0.39389036969E+02  0.15605290199E+03  0.12499756187E+03 0.  0.
          4    1    3    3  503    0 -0.82126356157E+02  0.65426884207E+02 -0.68671212989E+01  0.10523395748E+03  0.12700000000E+01 0.  1.
         -4    1    3    3    0  503  0.19029884979E+02 -0.88985122565E+01  0.46256158268E+02  0.50818944503E+02  0.12700000000E+01 0.  1.
         -1    1    1    2    0  501  0.76073267360E+02 -0.17094033899E+02  0.93041785944E+02  0.12139242947E+03  0.00000000000E+00 0.  1.
         -1    1    1    2    0  502 -0.12976796182E+02 -0.39434338051E+02 -0.10850037702E+03  0.11617140814E+03  0.00000000000E+00 0.  1.
<mgrwt>
<rscale>  0 0.56761016E+02</rscale>
<asrwt>0</asrwt>
<pdfrwt beam="1">  1       -1 0.32119014E-01 0.77606695E+02</pdfrwt>
<pdfrwt beam="2">  1       -1 0.28437407E-01 0.41514627E+02</pdfrwt>
<totfact> 0.81277582E+02</totfact>
</mgrwt>
</event>
<event>
 7    1  0.3113530E-004  0.3374119E+02  0.7546771E-02  0.1598917E+00
          1   -1    0    0  503    0  0.00000000000E+00  0.00000000000E+00  0.67177830129E+02  0.67177830129E+02  0.00000000000E+00 0. -1.
         -1   -1    0    0    0  501 -0.00000000000E+00 -0.00000000000E+00 -0.91144341045E+03  0.91144341045E+03  0.00000000000E+00 0.  1.
         25    2    1    2    0    0 -0.35430774486E+02  0.44915971765E+02 -0.66969808929E+03  0.68366197960E+03  0.12500154899E+03 0.  0.
          4    1    3    3  502    0  0.21170720845E+02  0.69204892929E+02 -0.43665392205E+03  0.44261244579E+03  0.12700000000E+01 0. -1.
         -4    1    3    3    0  502 -0.56601495332E+02 -0.24288921164E+02 -0.23304416725E+03  0.24104953381E+03  0.12700000000E+01 0. -1.
          1    1    1    2  503    0  0.12794142970E+02 -0.31059831054E+02  0.54683525385E+02  0.64177029753E+02  0.00000000000E+00 0. -1.
         -1    1    1    2    0  501  0.22636631516E+02 -0.13856140711E+02 -0.22925101641E+03  0.23078223122E+03  0.00000000000E+00 0.  1.
<mgrwt>
<rscale>  0 0.29925165E+02</rscale>
<asrwt>0</asrwt>
<pdfrwt beam="1">  1        1 0.10335052E-01 0.33741193E+02</pdfrwt>
<pdfrwt beam="2">  1       -1 0.14022204E+00 0.26540718E+02</pdfrwt>
<totfact> 0.28057058E+02</totfact>
</mgrwt>
</event>
<event>
 7    1  0.3113530E-004  0.3094944E+02  0.7546771E-02  0.1648330E+00
          2   -1    0    0  503    0  0.00000000000E+00  0.00000000000E+00  0.49734783652E+03  0.49734783652E+03  0.00000000000E+00 0. -1.
         -1   -1    0    0    0  501 -0.00000000000E+00 -0.00000000000E+00 -0.27095263832E+02  0.27095263832E+02  0.00000000000E+00 0.  1.
         25    2    1    2    0    0 -0.39588800017E+02  0.29633713556E+02  0.22880524364E+03  0.26539412859E+03  0.12504708675E+03 0.  0.
          4    1    3    3  502    0  0.86559875187E+00  0.46390959754E+02  0.17515800935E+02  0.49611355460E+02  0.12700000000E+01 0. -1.
         -4    1    3    3    0  502 -0.40454398769E+02 -0.16757246199E+02  0.21128944270E+03  0.21578277313E+03  0.12700000000E+01 0. -1.
          2    1    1    2  503    0  0.20183025048E+02 -0.79248583325E+01  0.22411786982E+03  0.22516433433E+03  0.00000000000E+00 0. -1.
         -1    1    1    2    0  501  0.19405774969E+02 -0.21708855223E+02  0.17329459227E+02  0.33884637439E+02  0.00000000000E+00 0.  1.
<mgrwt>
<rscale>  0 0.25905221E+02</rscale>
<asrwt>0</asrwt>
<pdfrwt beam="1">  1        2 0.76515045E-01 0.21683124E+02</pdfrwt>
<pdfrwt beam="2">  1       -1 0.41685025E-02 0.30949436E+02</pdfrwt>
<totfact> 0.13431162E+04</totfact>
</mgrwt>
</event>
<event>
 7    1  0.3113530E-004  0.1112208E+03  0.7546771E-02  0.1447091E+00
         -2   -1    0    0    0  501 -0.00000000000E+00  0.00000000000E+00  0.81444425141E+02  0.81444425141E+02  0.00000000000E+00 0.  1.
          2   -1    0    0  503    0  0.00000000000E+00 -0.00000000000E+00 -0.11531876709E+04  0.11531876709E+04  0.00000000000E+00 0. -1.
         25    2    1    2    0    0 -0.10251587193E+03 -0.11177822988E+02 -0.13280705724E+03  0.20951633092E+03  0.12499972297E+03 0.  0.
          4    1    3    3  502    0 -0.97407569950E+02  0.28439528456E+02 -0.41118292350E+02  0.10949597403E+03  0.12700000000E+01 0.  1.
         -4    1    3    3    0  502 -0.51083019838E+01 -0.39617351444E+02 -0.91688764893E+02  0.10002035689E+03  0.12700000000E+01 0.  1.
          2    1    1    2  503    0  0.11167603633E+03 -0.90315677814E+01 -0.97573418614E+03  0.98214576735E+03  0.00000000000E+00 0. -1.
         -2    1    1    2    0  501 -0.91601643978E+01  0.20209390770E+02  0.36797997581E+02  0.42969997824E+02  0.00000000000E+00 0.  1.
<mgrwt>
<rscale>  0 0.49677145E+02</rscale>
<asrwt>0</asrwt>
<pdfrwt beam="2">  1        2 0.17741348E+00 0.11122078E+03</pdfrwt>
<pdfrwt beam="1">  1       -2 0.12529912E-01 0.22188467E+02</pdfrwt>
<totfact> 0.88025234E+02</totfact>
</mgrwt>
</event>
<event>
 7    1  0.3113530E-004  0.7944962E+02  0.7546771E-02  0.1502441E+00
          2   -1    0    0  502    0  0.00000000000E+00  0.00000000000E+00  0.58067289013E+03  0.58067289013E+03  0.00000000000E+00 0. -1.
          1   -1    0    0  503    0 -0.00000000000E+00 -0.00000000000E+00 -0.38472465653E+03  0.38472465653E+03  0.00000000000E+00 0.  1.
         25    2    1    2    0    0 -0.91886230231E+00  0.78169672965E+02  0.42899627529E+03  0.45362040586E+03  0.12498930481E+03 0.  0.
          4    1    3    3  501    0  0.27568221000E+02 -0.81437688824E+01  0.26122958147E+03  0.26280950309E+03  0.12700000000E+01 0. -1.
         -4    1    3    3    0  501 -0.28487083302E+02  0.86313441848E+02  0.16776669382E+03  0.19081090277E+03  0.12700000000E+01 0. -1.
          2    1    1    2  502    0  0.20910564501E+02 -0.12366163819E+01  0.13430190206E+03  0.13592564815E+03  0.00000000000E+00 0. -1.
          1    1    1    2  503    0 -0.19991702199E+02 -0.76933056584E+02 -0.36734994376E+03  0.37585149265E+03  0.00000000000E+00 0.  1.
<mgrwt>
<rscale>  0 0.40795086E+02</rscale>
<asrwt>0</asrwt>
<pdfrwt beam="1">  1        2 0.89334290E-01 0.20947098E+02</pdfrwt>
<pdfrwt beam="2">  1        1 0.59188409E-01 0.79449620E+02</pdfrwt>
<totfact> 0.48658671E+02</totfact>
</mgrwt>
</event>
<event>
 7    1  0.3113530E-004  0.3563336E+02  0.7546771E-02  0.1629873E+00
         -2   -1    0    0    0  501 -0.00000000000E+00  0.00000000000E+00  0.91604138948E+01  0.91604138948E+01  0.00000000000E+00 0.  1.
          2   -1    0    0  503    0  0.00000000000E+00 -0.00000000000E+00 -0.15755014716E+04  0.15755014716E+04  0.00000000000E+00 0. -1.
         25    2    1    2    0    0 -0.22314910754E+01 -0.19214900736E+02 -0.67453611263E+03  0.68629316729E+03  0.12500060907E+03 0.  0.
          4    1    3    3  502    0  0.60049278003E+02  0.25829863945E+00 -0.36982387723E+03  0.37466958186E+03  0.12700000000E+01 0. -1.
         -4    1    3    3    0  502 -0.62280769078E+02 -0.19473199376E+02 -0.30471223541E+03  0.31162358543E+03  0.12700000000E+01 0. -1.
          2    1    1    2  503    0 -0.13366551675E+02 -0.16108078216E+02 -0.77626519153E+03  0.77654734721E+03  0.00000000000E+00 0. -1.
         -2    1    1    2    0  501  0.15598042751E+02  0.35322978952E+02 -0.11553975355E+03  0.12182137099E+03  0.00000000000E+00 0.  1.
<mgrwt>
<rscale>  0 0.27310543E+02</rscale>
<asrwt>0</asrwt>
<pdfrwt beam="2">  1        2 0.24238460E+00 0.20931672E+02</pdfrwt>
<pdfrwt beam="1">  1       -2 0.14092959E-02 0.35633359E+02</pdfrwt>
<totfact> 0.14941327E+04</totfact>
</mgrwt>
</event>
<event>
 7    1  0.3113530E-004  0.9804886E+02  0.7546771E-02  0.1447453E+00
          1   -1    0    0  503    0  0.00000000000E+00  0.00000000000E+00  0.61988179300E+03  0.61988179300E+03  0.00000000000E+00 0. -1.
         -1   -1    0    0    0  501 -0.00000000000E+00 -0.00000000000E+00 -0.41643006463E+02  0.41643006463E+02  0.00000000000E+00 0.  1.
         25    2    1    2    0    0  0.52077234257E+02  0.84642685832E+02  0.17954425646E+03  0.24028536112E+03  0.12499796857E+03 0.  0.
          4    1    3    3  502    0  0.32877033522E+02  0.52811496328E+02  0.19138924614E+03  0.20124962091E+03  0.12700000000E+01 0.  1.
         -4    1    3    3    0  502  0.19200200735E+02  0.31831189504E+02 -0.11844989675E+02  0.39035740212E+02  0.12700000000E+01 0.  1.
          1    1    1    2  503    0 -0.70941439598E+02 -0.68082123973E+02  0.37123467753E+03  0.38403521877E+03  0.00000000000E+00 0. -1.
         -1    1    1    2    0  501  0.18864205340E+02 -0.16560561859E+02  0.27459852546E+02  0.37204219573E+02  0.00000000000E+00 0.  1.
<mgrwt>
<rscale>  0 0.49610710E+02</rscale>
<asrwt>0</asrwt>
<pdfrwt beam="1">  1        1 0.95366423E-01 0.98048860E+02</pdfrwt>
<pdfrwt beam="2">  1       -1 0.64066168E-02 0.25102001E+02</pdfrwt>
<totfact> 0.33813665E+03</totfact>
</mgrwt>
</event>
<event>
 7    1  0.3113530E-004  0.1029114E+03  0.7546771E-02  0.1318801E+00
         -2   -1    0    0    0  501 -0.00000000000E+00  0.00000000000E+00  0.74786171156E+02  0.74786171156E+02  0.00000000000E+00 0.  1.
          2   -1    0    0  503    0  0.00000000000E+00 -0.00000000000E+00 -0.12765899770E+04  0.12765899770E+04  0.00000000000E+00 0. -1.
         25    2    1    2    0    0 -0.10457694972E+03  0.29279725887E+01 -0.25840936541E+03  0.30552574516E+03  0.12500267750E+03 0.  0.
          4    1    3    3  502    0 -0.12988887608E+03  0.17537503094E+01 -0.17247624783E+03  0.21592560000E+03  0.12700000000E+01 0. -1.
         -4    1    3    3    0  502  0.25311926363E+02  0.11742222793E+01 -0.85933117583E+02  0.89600145155E+02  0.12700000000E+01 0. -1.
          2    1    1    2  503    0  0.22315848989E+02  0.64356531031E+02 -0.93690599915E+03  0.93937884341E+03  0.00000000000E+00 0. -1.
         -2    1    1    2    0  501  0.82261100731E+02 -0.67284503620E+02 -0.64884412269E+01  0.10647155954E+03  0.00000000000E+00 0.  1.
<mgrwt>
<rscale>  0 0.83725083E+02</rscale>
<asrwt>0</asrwt>
<pdfrwt beam="2">  1        2 0.19639847E+00 0.68115785E+02</pdfrwt>
<pdfrwt beam="1">  1       -2 0.11505564E-01 0.10291138E+03</pdfrwt>
<totfact> 0.99916580E+02</totfact>
</mgrwt>
</event>
<event>
 7    1  0.3113530E-004  0.4908668E+02  0.7546771E-02  0.1515268E+00
         -1   -1    0    0    0  501 -0.00000000000E+00  0.00000000000E+00  0.45596497932E+03  0.45596497932E+03  0.00000000000E+00 0.  1.
          2   -1    0    0  503    0  0.00000000000E+00 -0.00000000000E+00 -0.28729272798E+02  0.28729272798E+02  0.00000000000E+00 0. -1.
         25    2    1    2    0    0  0.47077797652E+02  0.10983834989E+02  0.27199895342E+03  0.30322458621E+03  0.12499902142E+03 0.  0.
          4    1    3    3  502    0  0.73295100401E+02 -0.34867076598E+02  0.16683674093E+03  0.18553704697E+03  0.12700000000E+01 0. -1.
         -4    1    3    3    0  502 -0.26217302748E+02  0.45850911587E+02  0.10516221249E+03  0.11768753924E+03  0.12700000000E+01 0. -1.
          2    1    1    2  503    0 -0.13395727546E+02  0.28041205171E+02  0.20555079945E+02  0.37259441964E+02  0.00000000000E+00 0. -1.
         -1    1    1    2    0  501 -0.33682070107E+02 -0.39025040160E+02  0.13468167316E+03  0.14421022395E+03  0.00000000000E+00 0.  1.
<mgrwt>
<rscale>  0 0.39056967E+02</rscale>
<asrwt>0</asrwt>
<pdfrwt beam="2">  1        2 0.44198885E-02 0.31076594E+02</pdfrwt>
<pdfrwt beam="1">  1       -1 0.70148453E-01 0.49086676E+02</pdfrwt>
<totfact> 0.37803034E+03</totfact>
</mgrwt>
</event>
<event>
 7    1  0.3113530E-004  0.8670410E+02  0.7546771E-02  0.1353069E+00
         -3   -1    0    0    0  501 -0.00000000000E+00  0.00000000000E+00  0.34225531615E+03  0.34225531615E+03  0.00000000000E+00 0.  1.
          2   -1    0    0  503    0  0.00000000000E+00 -0.00000000000E+00 -0.14207633216E+04  0.14207633216E+04  0.00000000000E+00 0. -1.
         25    2    1    2    0    0 -0.35618669947E+02 -0.41316781077E+02 -0.44960261868E+03  0.46983495841E+03  0.12500642934E+03 0.  0.
          4    1    3    3  502    0 -0.68484979658E+01  0.23481804480E+02 -0.32915002752E+03  0.33006007117E+03  0.12700000000E+01 0.  1.
         -4    1    3    3    0  502 -0.28770171981E+02 -0.64798585557E+02 -0.12045259116E+03  0.13977488724E+03  0.12700000000E+01 0.  1.
          2    1    1    2  503    0  0.38569858598E+02 -0.45919336877E+02 -0.95435242580E+03  0.95623468465E+03  0.00000000000E+00 0. -1.
         -3    1    1    2    0  501 -0.29511886505E+01  0.87236117953E+02  0.32544703904E+03  0.33694899467E+03  0.00000000000E+00 0.  1.
<mgrwt>
<rscale>  0 0.72107652E+02</rscale>
<asrwt>0</asrwt>
<pdfrwt beam="2">  1        2 0.21857897E+00 0.59968487E+02</pdfrwt>
<pdfrwt beam="1">  1       -3 0.52654665E-01 0.86704097E+02</pdfrwt>
<totfact> 0.36304309E+01</totfact>
</mgrwt>
</event>
<event>
 7    1  0.3113530E-004  0.6070842E+02  0.7546771E-02  0.1451736E+00
          1   -1    0    0  503    0 -0.00000000000E+00  0.00000000000E+00  0.10245174163E+04  0.10245174163E+04  0.00000000000E+00 0. -1.
          2   -1    0    0  502    0  0.00000000000E+00 -0.00000000000E+00 -0.55637285993E+03  0.55637285993E+03  0.00000000000E+00 0. -1.
         25    2    1    2    0    0  0.53590491692E+01 -0.55408531359E+02  0.31109432472E+03  0.33985831182E+03  0.12500067393E+03 0.  0.
          4    1    3    3  501    0  0.21808763836E+02 -0.57049607874E+02  0.51971383208E+02  0.80205470582E+02  0.12700000000E+01 0. -1.
         -4    1    3    3    0  501 -0.16449714667E+02  0.16410765152E+01  0.25912294151E+03  0.25965284124E+03  0.12700000000E+01 0. -1.
          2    1    1    2  502    0  0.33633268913E+02  0.50650193409E+02 -0.53973081043E+03  0.54314453564E+03  0.00000000000E+00 0. -1.
          1    1    1    2  503    0 -0.38992318082E+02  0.47583379498E+01  0.69678104209E+03  0.69788742879E+03  0.00000000000E+00 0. -1.
<mgrwt>
<rscale>  0 0.48833623E+02</rscale>
<asrwt>0</asrwt>
<pdfrwt beam="2">  1        2 0.85595825E-01 0.60708421E+02</pdfrwt>
<pdfrwt beam="1">  1        1 0.15761806E+00 0.39281582E+02</pdfrwt>
<totfact> 0.13543358E+02</totfact>
</mgrwt>
</event>
