<event>
 5    0  0.1429766E+000  0.1250104E+03  0.7546771E-02  0.1235053E+00
         21   -1    0    0  503  502  0.00000000000E+00  0.00000000000E+00  0.12492309387E+02  0.12492309387E+02  0.00000000000E+00 0.  1.
         21   -1    0    0  502  503 -0.00000000000E+00 -0.00000000000E+00 -0.31274465587E+03  0.31274465587E+03  0.00000000000E+00 0.  1.
         25    2    1    2    0    0  0.00000000000E+00  0.00000000000E+00 -0.30025234649E+03  0.32523696526E+03  0.12501044757E+03 0.  0.
          4    1    3    3  501    0 -0.56864490637E+02 -0.23186807088E+02 -0.18016425667E+03  0.19034904833E+03  0.15500000000E+01 0.  1.
         -4    1    3    3    0  501  0.56864490637E+02  0.23186807088E+02 -0.12008808981E+03  0.13488791693E+03  0.15500000000E+01 0.  1.
<mgrwt>
<rscale>  2 0.12501045E+03</rscale>
<asrwt>0</asrwt>
<pdfrwt beam="1">  1       21 0.19218938E-02 0.12501045E+03</pdfrwt>
<pdfrwt beam="2">  1       21 0.48114560E-01 0.12501045E+03</pdfrwt>
<totfact> 0.53406936E+06</totfact>
</mgrwt>
</event>
<event>
 5    0  0.1554631E+000  0.1250002E+03  0.7546771E-02  0.1235069E+00
         21   -1    0    0  503  502  0.00000000000E+00  0.00000000000E+00  0.41824035619E+02  0.41824035619E+02  0.00000000000E+00 0. -1.
         21   -1    0    0  502  503 -0.00000000000E+00 -0.00000000000E+00 -0.93397482340E+02  0.93397482340E+02  0.00000000000E+00 0. -1.
         25    2    1    2    0    0  0.00000000000E+00  0.00000000000E+00 -0.51573446721E+02  0.13522151796E+03  0.12500015405E+03 0.  0.
          4    1    3    3  501    0  0.43786150420E+02  0.32214585998E+02 -0.59108962659E+02  0.80319851135E+02  0.15500000000E+01 0.  1.
         -4    1    3    3    0  501 -0.43786150420E+02 -0.32214585998E+02  0.75355159382E+01  0.54901666825E+02  0.15500000000E+01 0.  1.
<mgrwt>
<rscale>  2 0.12500015E+03</rscale>
<asrwt>0</asrwt>
<pdfrwt beam="1">  1       21 0.64344671E-02 0.12500015E+03</pdfrwt>
<pdfrwt beam="2">  1       21 0.14368843E-01 0.12500015E+03</pdfrwt>
<totfact> 0.72666869E+06</totfact>
</mgrwt>
</event>
<event>
 5    0  0.1565400E+000  0.1249903E+03  0.7546771E-02  0.1235084E+00
         21   -1    0    0  503  502  0.00000000000E+00  0.00000000000E+00  0.21481498518E+02  0.21481498518E+02  0.00000000000E+00 0. -1.
         21   -1    0    0  502  503 -0.00000000000E+00 -0.00000000000E+00 -0.18181427260E+03  0.18181427260E+03  0.00000000000E+00 0. -1.
         25    2    1    2    0    0  0.00000000000E+00  0.00000000000E+00 -0.16033277408E+03  0.20329577112E+03  0.12499028806E+03 0.  0.
          4    1    3    3  501    0 -0.35382577326E+01 -0.62020309603E+02 -0.69352663108E+02  0.93119452593E+02  0.15500000000E+01 0.  1.
         -4    1    3    3    0  501  0.35382577326E+01  0.62020309603E+02 -0.90980110976E+02  0.11017631853E+03  0.15500000000E+01 0.  1.
<mgrwt>
<rscale>  2 0.12499029E+03</rscale>
<asrwt>0</asrwt>
<pdfrwt beam="1">  1       21 0.33048461E-02 0.12499029E+03</pdfrwt>
<pdfrwt beam="2">  1       21 0.27971425E-01 0.12499029E+03</pdfrwt>
<totfact> 0.64587749E+06</totfact>
</mgrwt>
</event>
<event>
 5    0  0.1502019E+000  0.1250036E+03  0.7546771E-02  0.1235064E+00
         21   -1    0    0  503  502  0.00000000000E+00  0.00000000000E+00  0.17195299677E+02  0.17195299677E+02  0.00000000000E+00 0. -1.
         21   -1    0    0  502  503 -0.00000000000E+00 -0.00000000000E+00 -0.22718256029E+03  0.22718256029E+03  0.00000000000E+00 0. -1.
         25    2    1    2    0    0  0.00000000000E+00  0.00000000000E+00 -0.20998726062E+03  0.24437785997E+03  0.12500355524E+03 0.  0.
          4    1    3    3  501    0  0.51954793234E+02 -0.27089808583E+02 -0.14741738582E+03  0.15864251136E+03  0.15500000000E+01 0.  1.
         -4    1    3    3    0  501 -0.51954793234E+02  0.27089808583E+02 -0.62569874800E+02  0.85735348611E+02  0.15500000000E+01 0.  1.
<mgrwt>
<rscale>  2 0.12500356E+03</rscale>
<asrwt>0</asrwt>
<pdfrwt beam="1">  1       21 0.26454308E-02 0.12500356E+03</pdfrwt>
<pdfrwt beam="2">  1       21 0.34951162E-01 0.12500356E+03</pdfrwt>
<totfact> 0.60406165E+06</totfact>
</mgrwt>
</event>
<event>
 5    0  0.1541193E+000  0.1250082E+03  0.7546771E-02  0.1235056E+00
         21   -1    0    0  503  502  0.00000000000E+00  0.00000000000E+00  0.12345962080E+03  0.12345962080E+03  0.00000000000E+00 0. -1.
         21   -1    0    0  502  503 -0.00000000000E+00 -0.00000000000E+00 -0.31644064433E+02  0.31644064433E+02  0.00000000000E+00 0. -1.
         25    2    1    2    0    0  0.00000000000E+00  0.00000000000E+00  0.91815556372E+02  0.15510368524E+03  0.12500822686E+03 0.  0.
          4    1    3    3  501    0 -0.20884187337E+02 -0.58335909413E+02  0.55921319395E+02  0.83479482933E+02  0.15500000000E+01 0. -1.
         -4    1    3    3    0  501  0.20884187337E+02  0.58335909413E+02  0.35894236976E+02  0.71624202306E+02  0.15500000000E+01 0. -1.
<mgrwt>
<rscale>  2 0.12500823E+03</rscale>
<asrwt>0</asrwt>
<pdfrwt beam="1">  1       21 0.18993788E-01 0.12500823E+03</pdfrwt>
<pdfrwt beam="2">  1       21 0.48683176E-02 0.12500823E+03</pdfrwt>
<totfact> 0.70108102E+06</totfact>
</mgrwt>
</event>
<event>
 5    0  0.1371520E+000  0.1249941E+03  0.7546771E-02  0.1235079E+00
         21   -1    0    0  503  502  0.00000000000E+00  0.00000000000E+00  0.78674910267E+01  0.78674910267E+01  0.00000000000E+00 0. -1.
         21   -1    0    0  502  503 -0.00000000000E+00 -0.00000000000E+00 -0.49645800573E+03  0.49645800573E+03  0.00000000000E+00 0. -1.
         25    2    1    2    0    0  0.00000000000E+00  0.00000000000E+00 -0.48859051470E+03  0.50432549675E+03  0.12499406234E+03 0.  0.
          4    1    3    3  501    0  0.49006594096E+02  0.38746689840E+02 -0.24721642362E+03  0.25499277411E+03  0.15500000000E+01 0.  1.
         -4    1    3    3    0  501 -0.49006594096E+02 -0.38746689840E+02 -0.24137409108E+03  0.24933272265E+03  0.15500000000E+01 0.  1.
<mgrwt>
<rscale>  2 0.12499406E+03</rscale>
<asrwt>0</asrwt>
<pdfrwt beam="1">  1       21 0.12103831E-02 0.12499406E+03</pdfrwt>
<pdfrwt beam="2">  1       21 0.76378165E-01 0.12499406E+03</pdfrwt>
<totfact> 0.41816634E+06</totfact>
</mgrwt>
</event>
<event>
 5    0  0.1481144E+000  0.1249845E+03  0.7546771E-02  0.1235094E+00
         21   -1    0    0  503  502  0.00000000000E+00  0.00000000000E+00  0.22573331889E+02  0.22573331889E+02  0.00000000000E+00 0. -1.
         21   -1    0    0  502  503 -0.00000000000E+00 -0.00000000000E+00 -0.17300416480E+03  0.17300416480E+03  0.00000000000E+00 0. -1.
         25    2    1    2    0    0  0.00000000000E+00  0.00000000000E+00 -0.15043083291E+03  0.19557749669E+03  0.12498448592E+03 0.  0.
          4    1    3    3  501    0  0.13162029475E+02  0.43417151121E+02 -0.14242213452E+03  0.14948162072E+03  0.15500000000E+01 0.  1.
         -4    1    3    3    0  501 -0.13162029475E+02 -0.43417151121E+02 -0.80086983879E+01  0.46095875968E+02  0.15500000000E+01 0.  1.
<mgrwt>
<rscale>  2 0.12498449E+03</rscale>
<asrwt>0</asrwt>
<pdfrwt beam="1">  1       21 0.34728201E-02 0.12498449E+03</pdfrwt>
<pdfrwt beam="2">  1       21 0.26616027E-01 0.12498449E+03</pdfrwt>
<totfact> 0.65433580E+06</totfact>
</mgrwt>
</event>
<event>
 5    0  0.1251142E+000  0.1249434E+03  0.7546771E-02  0.1235158E+00
         21   -1    0    0  503  502  0.00000000000E+00  0.00000000000E+00  0.13113674219E+03  0.13113674219E+03  0.00000000000E+00 0.  1.
         21   -1    0    0  502  503 -0.00000000000E+00 -0.00000000000E+00 -0.29760639943E+02  0.29760639943E+02  0.00000000000E+00 0.  1.
         25    2    1    2    0    0  0.00000000000E+00  0.00000000000E+00  0.10137610225E+03  0.16089738214E+03  0.12494340107E+03 0.  0.
          4    1    3    3  501    0  0.41760352302E+02  0.41518115839E+01  0.11024821701E+03  0.11797557551E+03  0.15500000000E+01 0.  1.
         -4    1    3    3    0  501 -0.41760352302E+02 -0.41518115839E+01 -0.88721147556E+01  0.42921806626E+02  0.15500000000E+01 0.  1.
<mgrwt>
<rscale>  2 0.12494340E+03</rscale>
<asrwt>0</asrwt>
<pdfrwt beam="1">  1       21 0.20174883E-01 0.12494340E+03</pdfrwt>
<pdfrwt beam="2">  1       21 0.45785601E-02 0.12494340E+03</pdfrwt>
<totfact> 0.69509975E+06</totfact>
</mgrwt>
</event>
<event>
 5    0  0.1222151E+000  0.1249949E+03  0.7546771E-02  0.1235077E+00
         21   -1    0    0  503  502  0.00000000000E+00  0.00000000000E+00  0.70717655806E+03  0.70717655806E+03  0.00000000000E+00 0.  1.
         21   -1    0    0  502  503 -0.00000000000E+00 -0.00000000000E+00 -0.55232721053E+01  0.55232721053E+01  0.00000000000E+00 0.  1.
         25    2    1    2    0    0  0.00000000000E+00  0.00000000000E+00  0.70165328595E+03  0.71269983016E+03  0.12499485680E+03 0.  0.
          4    1    3    3  501    0 -0.25571109608E+02 -0.17564752086E+02  0.41604082689E+02  0.51920172947E+02  0.15500000000E+01 0. -1.
         -4    1    3    3    0  501  0.25571109608E+02  0.17564752086E+02  0.66004920326E+03  0.66077965722E+03  0.15500000000E+01 0. -1.
<mgrwt>
<rscale>  2 0.12499486E+03</rscale>
<asrwt>0</asrwt>
<pdfrwt beam="1">  1       21 0.10879632E+00 0.12499486E+03</pdfrwt>
<pdfrwt beam="2">  1       21 0.84973473E-03 0.12499486E+03</pdfrwt>
<totfact> 0.32430388E+06</totfact>
</mgrwt>
</event>
<event>
 5    0  0.1513739E+000  0.1250146E+03  0.7546771E-02  0.1235046E+00
         21   -1    0    0  503  502  0.00000000000E+00  0.00000000000E+00  0.20021573824E+02  0.20021573824E+02  0.00000000000E+00 0.  1.
         21   -1    0    0  502  503 -0.00000000000E+00 -0.00000000000E+00 -0.19514773143E+03  0.19514773143E+03  0.00000000000E+00 0.  1.
         25    2    1    2    0    0  0.00000000000E+00  0.00000000000E+00 -0.17512615761E+03  0.21516930526E+03  0.12501463453E+03 0.  0.
          4    1    3    3  501    0  0.39776154255E+02 -0.35992307751E+02 -0.14272525297E+03  0.15248111031E+03  0.15500000000E+01 0. -1.
         -4    1    3    3    0  501 -0.39776154255E+02  0.35992307751E+02 -0.32400904632E+02  0.62688194946E+02  0.15500000000E+01 0. -1.
<mgrwt>
<rscale>  2 0.12501463E+03</rscale>
<asrwt>0</asrwt>
<pdfrwt beam="1">  1       21 0.30802420E-02 0.12501463E+03</pdfrwt>
<pdfrwt beam="2">  1       21 0.30022729E-01 0.12501463E+03</pdfrwt>
<totfact> 0.63296312E+06</totfact>
</mgrwt>
</event>
<event>
 5    0  0.1222151E+000  0.1250045E+03  0.7546771E-02  0.1235062E+00
         21   -1    0    0  503  502  0.00000000000E+00  0.00000000000E+00  0.10068952611E+04  0.10068952611E+04  0.00000000000E+00 0. -1.
         21   -1    0    0  502  503 -0.00000000000E+00 -0.00000000000E+00 -0.38797771028E+01  0.38797771028E+01  0.00000000000E+00 0. -1.
         25    2    1    2    0    0  0.00000000000E+00  0.00000000000E+00  0.10030154840E+04  0.10107750382E+04  0.12500446678E+03 0.  0.
          4    1    3    3  501    0 -0.59357707393E+02  0.19225363951E+02  0.47447776912E+03  0.47856505089E+03  0.15500000000E+01 0.  1.
         -4    1    3    3    0  501  0.59357707393E+02 -0.19225363951E+02  0.52853771489E+03  0.53220998732E+03  0.15500000000E+01 0.  1.
<mgrwt>
<rscale>  2 0.12500447E+03</rscale>
<asrwt>0</asrwt>
<pdfrwt beam="1">  1       21 0.15490675E+00 0.12500447E+03</pdfrwt>
<pdfrwt beam="2">  1       21 0.59688959E-03 0.12500447E+03</pdfrwt>
<totfact> 0.23348923E+06</totfact>
</mgrwt>
</event>
<event>
 5    0  0.1531924E+000  0.1249982E+03  0.7546771E-02  0.1235072E+00
         21   -1    0    0  503  502  0.00000000000E+00  0.00000000000E+00  0.11519222241E+03  0.11519222241E+03  0.00000000000E+00 0.  1.
         21   -1    0    0  502  503 -0.00000000000E+00 -0.00000000000E+00 -0.33909735672E+02  0.33909735672E+02  0.00000000000E+00 0.  1.
         25    2    1    2    0    0  0.00000000000E+00  0.00000000000E+00  0.81282486733E+02  0.14910195808E+03  0.12499820500E+03 0.  0.
          4    1    3    3  501    0  0.13772705816E+02  0.46679730479E+02  0.87376101136E+02  0.10002834705E+03  0.15500000000E+01 0. -1.
         -4    1    3    3    0  501 -0.13772705816E+02 -0.46679730479E+02 -0.60936144032E+01  0.49073611031E+02  0.15500000000E+01 0. -1.
<mgrwt>
<rscale>  2 0.12499820E+03</rscale>
<asrwt>0</asrwt>
<pdfrwt beam="1">  1       21 0.17721880E-01 0.12499820E+03</pdfrwt>
<pdfrwt beam="2">  1       21 0.52168824E-02 0.12499820E+03</pdfrwt>
<totfact> 0.70875433E+06</totfact>
</mgrwt>
</event>
<event>
 5    0  0.1481529E+000  0.1250094E+03  0.7546771E-02  0.1235055E+00
         21   -1    0    0  503  502  0.00000000000E+00  0.00000000000E+00  0.19051120188E+02  0.19051120188E+02  0.00000000000E+00 0.  1.
         21   -1    0    0  502  503 -0.00000000000E+00 -0.00000000000E+00 -0.20507124033E+03  0.20507124033E+03  0.00000000000E+00 0.  1.
         25    2    1    2    0    0  0.00000000000E+00  0.00000000000E+00 -0.18602012014E+03  0.22412236052E+03  0.12500938919E+03 0.  0.
          4    1    3    3  501    0  0.29022219922E+02 -0.52019143465E+02 -0.12684468390E+03  0.14014370079E+03  0.15500000000E+01 0. -1.
         -4    1    3    3    0  501 -0.29022219922E+02  0.52019143465E+02 -0.59175436242E+02  0.83978659732E+02  0.15500000000E+01 0. -1.
<mgrwt>
<rscale>  2 0.12500939E+03</rscale>
<asrwt>0</asrwt>
<pdfrwt beam="1">  1       21 0.29309415E-02 0.12500939E+03</pdfrwt>
<pdfrwt beam="2">  1       21 0.31549422E-01 0.12500939E+03</pdfrwt>
<totfact> 0.62388842E+06</totfact>
</mgrwt>
</event>
<event>
 5    0  0.1522971E+000  0.1250001E+03  0.7546771E-02  0.1235069E+00
         21   -1    0    0  503  502  0.00000000000E+00  0.00000000000E+00  0.62106065208E+02  0.62106065208E+02  0.00000000000E+00 0.  1.
         21   -1    0    0  502  503 -0.00000000000E+00 -0.00000000000E+00 -0.62896502825E+02  0.62896502825E+02  0.00000000000E+00 0.  1.
         25    2    1    2    0    0  0.00000000000E+00  0.00000000000E+00 -0.79043761686E+00  0.12500256803E+03  0.12500006889E+03 0.  0.
          4    1    3    3  501    0 -0.19375312530E+02 -0.52934110585E+02  0.26557667013E+02  0.62330850919E+02  0.15500000000E+01 0. -1.
         -4    1    3    3    0  501  0.19375312530E+02  0.52934110585E+02 -0.27348104630E+02  0.62671717113E+02  0.15500000000E+01 0. -1.
<mgrwt>
<rscale>  2 0.12500007E+03</rscale>
<asrwt>0</asrwt>
<pdfrwt beam="1">  1       21 0.95547793E-02 0.12500007E+03</pdfrwt>
<pdfrwt beam="2">  1       21 0.96763850E-02 0.12500007E+03</pdfrwt>
<totfact> 0.74043104E+06</totfact>
</mgrwt>
</event>
<event>
 5    0  0.1462840E+000  0.1250011E+03  0.7546771E-02  0.1235068E+00
         21   -1    0    0  503  502  0.00000000000E+00  0.00000000000E+00  0.19892370291E+02  0.19892370291E+02  0.00000000000E+00 0.  1.
         21   -1    0    0  502  503 -0.00000000000E+00 -0.00000000000E+00 -0.19637276087E+03  0.19637276087E+03  0.00000000000E+00 0.  1.
         25    2    1    2    0    0  0.00000000000E+00  0.00000000000E+00 -0.17648039058E+03  0.21626513117E+03  0.12500111478E+03 0.  0.
          4    1    3    3  501    0  0.33366436182E+02 -0.44722463662E+02 -0.13688353411E+03  0.14782733925E+03  0.15500000000E+01 0.  1.
         -4    1    3    3    0  501 -0.33366436182E+02  0.44722463662E+02 -0.39596856473E+02  0.68437791914E+02  0.15500000000E+01 0.  1.
<mgrwt>
<rscale>  2 0.12500111E+03</rscale>
<asrwt>0</asrwt>
<pdfrwt beam="1">  1       21 0.30603647E-02 0.12500111E+03</pdfrwt>
<pdfrwt beam="2">  1       21 0.30211194E-01 0.12500111E+03</pdfrwt>
<totfact> 0.63204560E+06</totfact>
</mgrwt>
</event>
<event>
 5    0  0.1400222E+000  0.1250002E+03  0.7546771E-02  0.1235069E+00
         21   -1    0    0  503  502  0.00000000000E+00  0.00000000000E+00  0.23063316855E+03  0.23063316855E+03  0.00000000000E+00 0.  1.
         21   -1    0    0  502  503 -0.00000000000E+00 -0.00000000000E+00 -0.16937114340E+02  0.16937114340E+02  0.00000000000E+00 0.  1.
         25    2    1    2    0    0  0.00000000000E+00  0.00000000000E+00  0.21369605421E+03  0.24757028289E+03  0.12500016554E+03 0.  0.
          4    1    3    3  501    0 -0.17159052520E+02 -0.29396658538E+02  0.21061992583E+03  0.21335827210E+03  0.15500000000E+01 0. -1.
         -4    1    3    3    0  501  0.17159052520E+02  0.29396658538E+02  0.30761283821E+01  0.34212010792E+02  0.15500000000E+01 0. -1.
<mgrwt>
<rscale>  2 0.12500017E+03</rscale>
<asrwt>0</asrwt>
<pdfrwt beam="1">  1       21 0.35482024E-01 0.12500017E+03</pdfrwt>
<pdfrwt beam="2">  1       21 0.26057101E-02 0.12500017E+03</pdfrwt>
<totfact> 0.60107451E+06</totfact>
</mgrwt>
</event>
<event>
 5    0  0.1625658E+000  0.1249992E+03  0.7546771E-02  0.1235071E+00
         21   -1    0    0  503  502  0.00000000000E+00  0.00000000000E+00  0.38924125393E+02  0.38924125393E+02  0.00000000000E+00 0.  1.
         21   -1    0    0  502  503 -0.00000000000E+00 -0.00000000000E+00 -0.10035417722E+03  0.10035417722E+03  0.00000000000E+00 0.  1.
         25    2    1    2    0    0  0.00000000000E+00  0.00000000000E+00 -0.61430051823E+02  0.13927830261E+03  0.12499917724E+03 0.  0.
          4    1    3    3  501    0  0.10056492408E+02  0.60804565355E+02 -0.19272118109E+02  0.64592145374E+02  0.15500000000E+01 0. -1.
         -4    1    3    3    0  501 -0.10056492408E+02 -0.60804565355E+02 -0.42157933715E+02  0.74686157236E+02  0.15500000000E+01 0. -1.
<mgrwt>
<rscale>  2 0.12499918E+03</rscale>
<asrwt>0</asrwt>
<pdfrwt beam="1">  1       21 0.59883271E-02 0.12499918E+03</pdfrwt>
<pdfrwt beam="2">  1       21 0.15439104E-01 0.12499918E+03</pdfrwt>
<totfact> 0.72135177E+06</totfact>
</mgrwt>
</event>
<event>
 5    0  0.1222151E+000  0.1250021E+03  0.7546771E-02  0.1235066E+00
         21   -1    0    0  503  502  0.00000000000E+00  0.00000000000E+00  0.16027884904E+01  0.16027884904E+01  0.00000000000E+00 0.  1.
         21   -1    0    0  502  503 -0.00000000000E+00 -0.00000000000E+00 -0.24372415439E+04  0.24372415439E+04  0.00000000000E+00 0.  1.
         25    2    1    2    0    0  0.00000000000E+00  0.00000000000E+00 -0.24356387554E+04  0.24388443324E+04  0.12500212310E+03 0.  0.
          4    1    3    3  501    0 -0.15290805271E+02 -0.29797863275E+02 -0.22469380424E+04  0.22471881742E+04  0.15500000000E+01 0. -1.
         -4    1    3    3    0  501  0.15290805271E+02  0.29797863275E+02 -0.18870071297E+03  0.19165615815E+03  0.15500000000E+01 0. -1.
<mgrwt>
<rscale>  2 0.12500212E+03</rscale>
<asrwt>0</asrwt>
<pdfrwt beam="1">  1       21 0.24658173E-03 0.12500212E+03</pdfrwt>
<pdfrwt beam="2">  1       21 0.37496194E+00 0.12500212E+03</pdfrwt>
<totfact> 0.44065847E+05</totfact>
</mgrwt>
</event>
<event>
 4    0  0.1508532E+000  0.1253509E+03  0.7546771E-02  0.1234522E+00
         21   -1    0    0  503  502  0.00000000000E+00  0.00000000000E+00  0.25037445392E+02  0.25037445392E+02  0.00000000000E+00 0. -1.
         21   -1    0    0  502  503 -0.00000000000E+00 -0.00000000000E+00 -0.15689349944E+03  0.15689349944E+03  0.00000000000E+00 0. -1.
          4    1    1    2  501    0 -0.15168747627E+02 -0.52501302939E+02 -0.21445576528E+02  0.58726424781E+02  0.15500000000E+01 0.  1.
         -4    1    1    2    0  501  0.15168747627E+02  0.52501302939E+02 -0.11041047752E+03  0.12320452005E+03  0.15500000000E+01 0.  1.
<mgrwt>
<rscale>  2 0.12535091E+03</rscale>
<asrwt>0</asrwt>
<pdfrwt beam="1">  1       21 0.38519146E-02 0.12535091E+03</pdfrwt>
<pdfrwt beam="2">  1       21 0.24137462E-01 0.12535091E+03</pdfrwt>
<totfact> 0.66338498E+06</totfact>
</mgrwt>
</event>
<event>
 5    0  0.1521954E+000  0.1249989E+03  0.7546771E-02  0.1235071E+00
         21   -1    0    0  503  502  0.00000000000E+00  0.00000000000E+00  0.63182258359E+02  0.63182258359E+02  0.00000000000E+00 0. -1.
         21   -1    0    0  502  503 -0.00000000000E+00 -0.00000000000E+00 -0.61823982768E+02  0.61823982768E+02  0.00000000000E+00 0. -1.
         25    2    1    2    0    0  0.00000000000E+00  0.00000000000E+00  0.13582755915E+01  0.12500624113E+03  0.12499886163E+03 0.  0.
          4    1    3    3  501    0 -0.33466501893E+01 -0.38815389847E+02  0.49528124677E+02  0.63033897155E+02  0.15500000000E+01 0. -1.
         -4    1    3    3    0  501  0.33466501893E+01  0.38815389847E+02 -0.48169849086E+02  0.61972343972E+02  0.15500000000E+01 0. -1.
<mgrwt>
<rscale>  2 0.12499886E+03</rscale>
<asrwt>0</asrwt>
<pdfrwt beam="1">  1       21 0.97203475E-02 0.12499886E+03</pdfrwt>
<pdfrwt beam="2">  1       21 0.95113819E-02 0.12499886E+03</pdfrwt>
<totfact> 0.74044894E+06</totfact>
</mgrwt>
</event>
<event>
 5    0  0.1506478E+000  0.1250033E+03  0.7546771E-02  0.1235064E+00
         21   -1    0    0  503  502  0.00000000000E+00  0.00000000000E+00  0.93703009498E+02  0.93703009498E+02  0.00000000000E+00 0.  1.
         21   -1    0    0  502  503 -0.00000000000E+00 -0.00000000000E+00 -0.41689768406E+02  0.41689768406E+02  0.00000000000E+00 0.  1.
         25    2    1    2    0    0  0.00000000000E+00  0.00000000000E+00  0.52013241092E+02  0.13539277790E+03  0.12500330820E+03 0.  0.
          4    1    3    3  501    0 -0.25504227802E+02 -0.30046772099E+02 -0.26507971549E+02  0.47522091757E+02  0.15500000000E+01 0.  1.
         -4    1    3    3    0  501  0.25504227802E+02  0.30046772099E+02  0.78521212641E+02  0.87870686147E+02  0.15500000000E+01 0.  1.
<mgrwt>
<rscale>  2 0.12500331E+03</rscale>
<asrwt>0</asrwt>
<pdfrwt beam="1">  1       21 0.14415848E-01 0.12500331E+03</pdfrwt>
<pdfrwt beam="2">  1       21 0.64138106E-02 0.12500331E+03</pdfrwt>
<totfact> 0.72638378E+06</totfact>
</mgrwt>
</event>
<event>
 5    0  0.1802640E+000  0.1250136E+03  0.7546771E-02  0.1235048E+00
         21   -1    0    0  503  502  0.00000000000E+00  0.00000000000E+00  0.99959138096E+02  0.99959138096E+02  0.00000000000E+00 0.  1.
         21   -1    0    0  502  503 -0.00000000000E+00 -0.00000000000E+00 -0.39086946191E+02  0.39086946191E+02  0.00000000000E+00 0.  1.
         25    2    1    2    0    0  0.00000000000E+00  0.00000000000E+00  0.60872191905E+02  0.13904608429E+03  0.12501355850E+03 0.  0.
          4    1    3    3  501    0 -0.57802319906E+02 -0.33295654772E+00  0.56838247568E+02  0.81081489460E+02  0.15500000000E+01 0. -1.
         -4    1    3    3    0  501  0.57802319906E+02  0.33295654772E+00  0.40339443373E+01  0.57964594827E+02  0.15500000000E+01 0. -1.
<mgrwt>
<rscale>  2 0.12501356E+03</rscale>
<asrwt>0</asrwt>
<pdfrwt beam="1">  1       21 0.15378329E-01 0.12501356E+03</pdfrwt>
<pdfrwt beam="2">  1       21 0.60133764E-02 0.12501356E+03</pdfrwt>
<totfact> 0.72139162E+06</totfact>
</mgrwt>
</event>
<event>
 5    0  0.1584823E+000  0.1249995E+03  0.7546771E-02  0.1235070E+00
         21   -1    0    0  503  502  0.00000000000E+00  0.00000000000E+00  0.69921736856E+02  0.69921736856E+02  0.00000000000E+00 0.  1.
         21   -1    0    0  502  503 -0.00000000000E+00 -0.00000000000E+00 -0.55865560126E+02  0.55865560126E+02  0.00000000000E+00 0.  1.
         25    2    1    2    0    0  0.00000000000E+00  0.00000000000E+00  0.14056176730E+02  0.12578729698E+03  0.12499947191E+03 0.  0.
          4    1    3    3  501    0 -0.28387748511E+02  0.50529756630E+02  0.30513862064E+02  0.65518080319E+02  0.15500000000E+01 0.  1.
         -4    1    3    3    0  501  0.28387748511E+02 -0.50529756630E+02 -0.16457685334E+02  0.60269216663E+02  0.15500000000E+01 0.  1.
<mgrwt>
<rscale>  2 0.12499947E+03</rscale>
<asrwt>0</asrwt>
<pdfrwt beam="1">  1       21 0.10757190E-01 0.12499947E+03</pdfrwt>
<pdfrwt beam="2">  1       21 0.85947015E-02 0.12499947E+03</pdfrwt>
<totfact> 0.73936427E+06</totfact>
</mgrwt>
</event>
<event>
 5    0  0.1616889E+000  0.1249998E+03  0.7546771E-02  0.1235070E+00
         21   -1    0    0  503  502  0.00000000000E+00  0.00000000000E+00  0.27502621375E+02  0.27502621375E+02  0.00000000000E+00 0. -1.
         21   -1    0    0  502  503 -0.00000000000E+00 -0.00000000000E+00 -0.14203140687E+03  0.14203140687E+03  0.00000000000E+00 0. -1.
         25    2    1    2    0    0  0.00000000000E+00  0.00000000000E+00 -0.11452878549E+03  0.16953402824E+03  0.12499977610E+03 0.  0.
          4    1    3    3  501    0 -0.61783079043E+02  0.65553064164E+00 -0.44668190942E+02  0.76257644591E+02  0.15500000000E+01 0. -1.
         -4    1    3    3    0  501  0.61783079043E+02 -0.65553064164E+00 -0.69860594552E+02  0.93276383654E+02  0.15500000000E+01 0. -1.
<mgrwt>
<rscale>  2 0.12499978E+03</rscale>
<asrwt>0</asrwt>
<pdfrwt beam="1">  1       21 0.42311725E-02 0.12499978E+03</pdfrwt>
<pdfrwt beam="2">  1       21 0.21850986E-01 0.12499978E+03</pdfrwt>
<totfact> 0.68373286E+06</totfact>
</mgrwt>
</event>
<event>
 5    0  0.1239984E+000  0.1250004E+03  0.7546771E-02  0.1235069E+00
         21   -1    0    0  503  502  0.00000000000E+00  0.00000000000E+00  0.56891701780E+01  0.56891701780E+01  0.00000000000E+00 0.  1.
         21   -1    0    0  502  503 -0.00000000000E+00 -0.00000000000E+00 -0.68661565294E+03  0.68661565294E+03  0.00000000000E+00 0.  1.
         25    2    1    2    0    0  0.00000000000E+00  0.00000000000E+00 -0.68092648276E+03  0.69230482312E+03  0.12500037274E+03 0.  0.
          4    1    3    3  501    0 -0.90929777195E+01 -0.61447470401E+02 -0.37777960450E+03  0.38285546351E+03  0.15500000000E+01 0.  1.
         -4    1    3    3    0  501  0.90929777195E+01  0.61447470401E+02 -0.30314687826E+03  0.30944935961E+03  0.15500000000E+01 0.  1.
<mgrwt>
<rscale>  2 0.12500037E+03</rscale>
<asrwt>0</asrwt>
<pdfrwt beam="1">  1       21 0.87525679E-03 0.12500037E+03</pdfrwt>
<pdfrwt beam="2">  1       21 0.10563320E+00 0.12500037E+03</pdfrwt>
<totfact> 0.33208620E+06</totfact>
</mgrwt>
</event>
<event>
 5    0  0.1578232E+000  0.1249962E+03  0.7546771E-02  0.1235075E+00
         21   -1    0    0  503  502  0.00000000000E+00  0.00000000000E+00  0.43968671357E+02  0.43968671357E+02  0.00000000000E+00 0. -1.
         21   -1    0    0  502  503 -0.00000000000E+00 -0.00000000000E+00 -0.88836220918E+02  0.88836220918E+02  0.00000000000E+00 0. -1.
         25    2    1    2    0    0  0.00000000000E+00  0.00000000000E+00 -0.44867549560E+02  0.13280489227E+03  0.12499616958E+03 0.  0.
          4    1    3    3  501    0  0.21982357780E+02  0.53455206255E+02 -0.47642020709E+02  0.74918941307E+02  0.15500000000E+01 0.  1.
         -4    1    3    3    0  501 -0.21982357780E+02 -0.53455206255E+02  0.27744711489E+01  0.57885950968E+02  0.15500000000E+01 0.  1.
<mgrwt>
<rscale>  2 0.12499617E+03</rscale>
<asrwt>0</asrwt>
<pdfrwt beam="1">  1       21 0.67644111E-02 0.12499617E+03</pdfrwt>
<pdfrwt beam="2">  1       21 0.13667111E-01 0.12499617E+03</pdfrwt>
<totfact> 0.72995595E+06</totfact>
</mgrwt>
</event>
<event>
 5    0  0.1222151E+000  0.1250024E+03  0.7546771E-02  0.1235066E+00
         21   -1    0    0  503  502  0.00000000000E+00  0.00000000000E+00  0.38816038206E+01  0.38816038206E+01  0.00000000000E+00 0.  1.
         21   -1    0    0  502  503 -0.00000000000E+00 -0.00000000000E+00 -0.10063883474E+04  0.10063883474E+04  0.00000000000E+00 0.  1.
         25    2    1    2    0    0  0.00000000000E+00  0.00000000000E+00 -0.10025067435E+04  0.10102699512E+04  0.12500241364E+03 0.  0.
          4    1    3    3  501    0 -0.84093221378E+01  0.44698858342E+02 -0.15501768725E+03  0.16155986660E+03  0.15500000000E+01 0. -1.
         -4    1    3    3    0  501  0.84093221378E+01 -0.44698858342E+02 -0.84748905629E+03  0.84871008458E+03  0.15500000000E+01 0. -1.
<mgrwt>
<rscale>  2 0.12500241E+03</rscale>
<asrwt>0</asrwt>
<pdfrwt beam="1">  1       21 0.59717024E-03 0.12500241E+03</pdfrwt>
<pdfrwt beam="2">  1       21 0.15482887E+00 0.12500241E+03</pdfrwt>
<totfact> 0.23362535E+06</totfact>
</mgrwt>
</event>
<event>
 5    0  0.1483385E+000  0.1249967E+03  0.7546771E-02  0.1235074E+00
         21   -1    0    0  503  502  0.00000000000E+00  0.00000000000E+00  0.45842641800E+02  0.45842641800E+02  0.00000000000E+00 0. -1.
         21   -1    0    0  502  503 -0.00000000000E+00 -0.00000000000E+00 -0.85205478523E+02  0.85205478523E+02  0.00000000000E+00 0. -1.
         25    2    1    2    0    0  0.00000000000E+00  0.00000000000E+00 -0.39362836723E+02  0.13104812032E+03  0.12499670766E+03 0.  0.
          4    1    3    3  501    0  0.24053636437E+02 -0.40889714240E+02 -0.62308068418E+02  0.78327798682E+02  0.15500000000E+01 0. -1.
         -4    1    3    3    0  501 -0.24053636437E+02  0.40889714240E+02  0.22945231695E+02  0.52720321641E+02  0.15500000000E+01 0. -1.
<mgrwt>
<rscale>  2 0.12499671E+03</rscale>
<asrwt>0</asrwt>
<pdfrwt beam="1">  1       21 0.70527142E-02 0.12499671E+03</pdfrwt>
<pdfrwt beam="2">  1       21 0.13108535E-01 0.12499671E+03</pdfrwt>
<totfact> 0.73230338E+06</totfact>
</mgrwt>
</event>
<event>
 5    0  0.1222151E+000  0.1249876E+03  0.7546771E-02  0.1235089E+00
         21   -1    0    0  503  502  0.00000000000E+00  0.00000000000E+00  0.77195257118E+02  0.77195257118E+02  0.00000000000E+00 0.  1.
         21   -1    0    0  502  503 -0.00000000000E+00 -0.00000000000E+00 -0.50592151732E+02  0.50592151732E+02  0.00000000000E+00 0.  1.
         25    2    1    2    0    0  0.00000000000E+00  0.00000000000E+00  0.26603105386E+02  0.12778740885E+03  0.12498758596E+03 0.  0.
          4    1    3    3  501    0 -0.19911416701E+02 -0.95754416779E+01 -0.46444790307E+02  0.51455559904E+02  0.15500000000E+01 0. -1.
         -4    1    3    3    0  501  0.19911416701E+02  0.95754416779E+01  0.73047895693E+02  0.76331848946E+02  0.15500000000E+01 0. -1.
<mgrwt>
<rscale>  2 0.12498759E+03</rscale>
<asrwt>0</asrwt>
<pdfrwt beam="1">  1       21 0.11876193E-01 0.12498759E+03</pdfrwt>
<pdfrwt beam="2">  1       21 0.77834080E-02 0.12498759E+03</pdfrwt>
<totfact> 0.73685648E+06</totfact>
</mgrwt>
</event>
<event>
 5    0  0.1469700E+000  0.1249933E+03  0.7546771E-02  0.1235080E+00
         21   -1    0    0  503  502  0.00000000000E+00  0.00000000000E+00  0.65976691822E+02  0.65976691822E+02  0.00000000000E+00 0.  1.
         21   -1    0    0  502  503 -0.00000000000E+00 -0.00000000000E+00 -0.59200166691E+02  0.59200166691E+02  0.00000000000E+00 0.  1.
         25    2    1    2    0    0  0.00000000000E+00  0.00000000000E+00  0.67765251313E+01  0.12517685851E+03  0.12499329828E+03 0.  0.
          4    1    3    3  501    0 -0.21402948449E+02  0.50462167197E+02  0.33414156151E+02  0.64213899211E+02  0.15500000000E+01 0. -1.
         -4    1    3    3    0  501  0.21402948449E+02 -0.50462167197E+02 -0.26637631020E+02  0.60962959303E+02  0.15500000000E+01 0. -1.
<mgrwt>
<rscale>  2 0.12499330E+03</rscale>
<asrwt>0</asrwt>
<pdfrwt beam="1">  1       21 0.10150260E-01 0.12499330E+03</pdfrwt>
<pdfrwt beam="2">  1       21 0.91077180E-02 0.12499330E+03</pdfrwt>
<totfact> 0.74032380E+06</totfact>
</mgrwt>
</event>
<event>
 5    0  0.1569860E+000  0.1249801E+03  0.7546771E-02  0.1235100E+00
         21   -1    0    0  503  502  0.00000000000E+00  0.00000000000E+00  0.51422513678E+02  0.51422513678E+02  0.00000000000E+00 0.  1.
         21   -1    0    0  502  503 -0.00000000000E+00 -0.00000000000E+00 -0.75939677619E+02  0.75939677619E+02  0.00000000000E+00 0.  1.
         25    2    1    2    0    0  0.00000000000E+00  0.00000000000E+00 -0.24517163941E+02  0.12736219130E+03  0.12498014420E+03 0.  0.
          4    1    3    3  501    0  0.52938701007E+02  0.20435037208E+02  0.14364231379E+02  0.58556216178E+02  0.15500000000E+01 0.  1.
         -4    1    3    3    0  501 -0.52938701007E+02 -0.20435037208E+02 -0.38881395320E+02  0.68805975119E+02  0.15500000000E+01 0.  1.
<mgrwt>
<rscale>  2 0.12498014E+03</rscale>
<asrwt>0</asrwt>
<pdfrwt beam="1">  1       21 0.79111560E-02 0.12498014E+03</pdfrwt>
<pdfrwt beam="2">  1       21 0.11683027E-01 0.12498014E+03</pdfrwt>
<totfact> 0.73757289E+06</totfact>
</mgrwt>
</event>
<event>
 5    0  0.1222151E+000  0.1250016E+03  0.7546771E-02  0.1235067E+00
         21   -1    0    0  503  502  0.00000000000E+00  0.00000000000E+00  0.65604770441E+03  0.65604770441E+03  0.00000000000E+00 0.  1.
         21   -1    0    0  502  503 -0.00000000000E+00 -0.00000000000E+00 -0.59543688628E+01  0.59543688628E+01  0.00000000000E+00 0.  1.
         25    2    1    2    0    0  0.00000000000E+00  0.00000000000E+00  0.65009333555E+03  0.66200207328E+03  0.12500160037E+03 0.  0.
          4    1    3    3  501    0 -0.61820435509E+01 -0.39297592779E+02  0.69881443717E+02  0.80425973023E+02  0.15500000000E+01 0. -1.
         -4    1    3    3    0  501  0.61820435509E+01  0.39297592779E+02  0.58021189183E+03  0.58157610025E+03  0.15500000000E+01 0. -1.
<mgrwt>
<rscale>  2 0.12500160E+03</rscale>
<asrwt>0</asrwt>
<pdfrwt beam="1">  1       21 0.10093036E+00 0.12500160E+03</pdfrwt>
<pdfrwt beam="2">  1       21 0.91605727E-03 0.12500160E+03</pdfrwt>
<totfact> 0.34425729E+06</totfact>
</mgrwt>
</event>
<event>
 5    0  0.1377059E+000  0.1249917E+03  0.7546771E-02  0.1235082E+00
         21   -1    0    0  503  502  0.00000000000E+00  0.00000000000E+00  0.31002454460E+03  0.31002454460E+03  0.00000000000E+00 0.  1.
         21   -1    0    0  502  503 -0.00000000000E+00 -0.00000000000E+00 -0.12598140222E+02  0.12598140222E+02  0.00000000000E+00 0.  1.
         25    2    1    2    0    0  0.00000000000E+00  0.00000000000E+00  0.29742640438E+03  0.32262268482E+03  0.12499172269E+03 0.  0.
          4    1    3    3  501    0  0.44593537619E+01  0.50144043503E+02  0.24421651240E+03  0.24935600727E+03  0.15500000000E+01 0. -1.
         -4    1    3    3    0  501 -0.44593537619E+01 -0.50144043503E+02  0.53209891980E+02  0.73266677551E+02  0.15500000000E+01 0. -1.
<mgrwt>
<rscale>  2 0.12499172E+03</rscale>
<asrwt>0</asrwt>
<pdfrwt beam="1">  1       21 0.47696078E-01 0.12499172E+03</pdfrwt>
<pdfrwt beam="2">  1       21 0.19381757E-02 0.12499172E+03</pdfrwt>
<totfact> 0.53637300E+06</totfact>
</mgrwt>
</event>
<event>
 5    0  0.1570774E+000  0.1250030E+03  0.7546771E-02  0.1235065E+00
         21   -1    0    0  503  502  0.00000000000E+00  0.00000000000E+00  0.39873112735E+02  0.39873112735E+02  0.00000000000E+00 0.  1.
         21   -1    0    0  502  503 -0.00000000000E+00 -0.00000000000E+00 -0.97971720633E+02  0.97971720633E+02  0.00000000000E+00 0.  1.
         25    2    1    2    0    0  0.00000000000E+00  0.00000000000E+00 -0.58098607898E+02  0.13784483337E+03  0.12500299935E+03 0.  0.
          4    1    3    3  501    0 -0.27658826307E+02 -0.56011971402E+02 -0.27618575900E+02  0.68319395839E+02  0.15500000000E+01 0.  1.
         -4    1    3    3    0  501  0.27658826307E+02  0.56011971402E+02 -0.30480031998E+02  0.69525437529E+02  0.15500000000E+01 0.  1.
<mgrwt>
<rscale>  2 0.12500300E+03</rscale>
<asrwt>0</asrwt>
<pdfrwt beam="1">  1       21 0.61343252E-02 0.12500300E+03</pdfrwt>
<pdfrwt beam="2">  1       21 0.15072572E-01 0.12500300E+03</pdfrwt>
<totfact> 0.72316398E+06</totfact>
</mgrwt>
</event>
<event>
 5    0  0.1222151E+000  0.1250027E+03  0.7546771E-02  0.1235065E+00
         21   -1    0    0  503  502  0.00000000000E+00  0.00000000000E+00  0.16705820437E+04  0.16705820437E+04  0.00000000000E+00 0. -1.
         21   -1    0    0  502  503 -0.00000000000E+00 -0.00000000000E+00 -0.23383575393E+01  0.23383575393E+01  0.00000000000E+00 0. -1.
         25    2    1    2    0    0  0.00000000000E+00  0.00000000000E+00  0.16682436861E+04  0.16729204012E+04  0.12500268984E+03 0.  0.
          4    1    3    3  501    0  0.49957163914E+02 -0.46538608806E+01  0.33576822036E+03  0.33949974514E+03  0.15500000000E+01 0.  1.
         -4    1    3    3    0  501 -0.49957163914E+02  0.46538608806E+01  0.13324754658E+04  0.13334206561E+04  0.15500000000E+01 0.  1.
<mgrwt>
<rscale>  2 0.12500269E+03</rscale>
<asrwt>0</asrwt>
<pdfrwt beam="1">  1       21 0.25701167E+00 0.12500269E+03</pdfrwt>
<pdfrwt beam="2">  1       21 0.35974865E-03 0.12500269E+03</pdfrwt>
<totfact> 0.11611252E+06</totfact>
</mgrwt>
</event>
<event>
 5    0  0.1684329E+000  0.1249865E+03  0.7546771E-02  0.1235090E+00
         21   -1    0    0  503  502  0.00000000000E+00  0.00000000000E+00  0.12087103906E+03  0.12087103906E+03  0.00000000000E+00 0. -1.
         21   -1    0    0  502  503 -0.00000000000E+00 -0.00000000000E+00 -0.32310517792E+02  0.32310517792E+02  0.00000000000E+00 0. -1.
         25    2    1    2    0    0  0.00000000000E+00  0.00000000000E+00  0.88560521266E+02  0.15318155685E+03  0.12498649300E+03 0.  0.
          4    1    3    3  501    0 -0.49455323021E+02 -0.37524031612E+02  0.52869978864E+02  0.81556845749E+02  0.15500000000E+01 0.  1.
         -4    1    3    3    0  501  0.49455323021E+02  0.37524031612E+02  0.35690542402E+02  0.71624711102E+02  0.15500000000E+01 0.  1.
<mgrwt>
<rscale>  2 0.12498649E+03</rscale>
<asrwt>0</asrwt>
<pdfrwt beam="1">  1       21 0.18595544E-01 0.12498649E+03</pdfrwt>
<pdfrwt beam="2">  1       21 0.49708490E-02 0.12498649E+03</pdfrwt>
<totfact> 0.70385980E+06</totfact>
</mgrwt>
</event>
<event>
 4    0  0.1612828E+000  0.1251359E+03  0.7546771E-02  0.1234857E+00
         21   -1    0    0  503  502  0.00000000000E+00  0.00000000000E+00  0.12766642007E+03  0.12766642007E+03  0.00000000000E+00 0. -1.
         21   -1    0    0  502  503 -0.00000000000E+00 -0.00000000000E+00 -0.30663896565E+02  0.30663896565E+02  0.00000000000E+00 0. -1.
          4    1    1    2  501    0 -0.14698561198E+02  0.59297296907E+02  0.65482737660E+02  0.89569015587E+02  0.15500000000E+01 0.  1.
         -4    1    1    2    0  501  0.14698561198E+02 -0.59297296907E+02  0.31519785840E+02  0.68761301043E+02  0.15500000000E+01 0.  1.
<mgrwt>
<rscale>  2 0.12513592E+03</rscale>
<asrwt>0</asrwt>
<pdfrwt beam="1">  1       21 0.19640987E-01 0.12513592E+03</pdfrwt>
<pdfrwt beam="2">  1       21 0.47175226E-02 0.12513592E+03</pdfrwt>
<totfact> 0.69483633E+06</totfact>
</mgrwt>
</event>
<event>
 5    0  0.1284044E+000  0.1249512E+03  0.7546771E-02  0.1235146E+00
         21   -1    0    0  503  502  0.00000000000E+00  0.00000000000E+00  0.48920084513E+03  0.48920084513E+03  0.00000000000E+00 0.  1.
         21   -1    0    0  502  503 -0.00000000000E+00 -0.00000000000E+00 -0.79787270294E+01  0.79787270294E+01  0.00000000000E+00 0.  1.
         25    2    1    2    0    0  0.00000000000E+00  0.00000000000E+00  0.48122211810E+03  0.49717957216E+03  0.12495119056E+03 0.  0.
          4    1    3    3  501    0  0.30140480558E+02 -0.48339044230E+02  0.34249852177E+03  0.34720707320E+03  0.15500000000E+01 0. -1.
         -4    1    3    3    0  501 -0.30140480558E+02  0.48339044230E+02  0.13872359634E+03  0.14997249897E+03  0.15500000000E+01 0. -1.
<mgrwt>
<rscale>  2 0.12495119E+03</rscale>
<asrwt>0</asrwt>
<pdfrwt beam="1">  1       21 0.75261645E-01 0.12495119E+03</pdfrwt>
<pdfrwt beam="2">  1       21 0.12274968E-02 0.12495119E+03</pdfrwt>
<totfact> 0.42248779E+06</totfact>
</mgrwt>
</event>
<event>
 5    0  0.1681703E+000  0.1249973E+03  0.7546771E-02  0.1235073E+00
         21   -1    0    0  503  502  0.00000000000E+00  0.00000000000E+00  0.40915253655E+02  0.40915253655E+02  0.00000000000E+00 0. -1.
         21   -1    0    0  502  503 -0.00000000000E+00 -0.00000000000E+00 -0.95467615494E+02  0.95467615494E+02  0.00000000000E+00 0. -1.
         25    2    1    2    0    0  0.00000000000E+00  0.00000000000E+00 -0.54552361840E+02  0.13638286915E+03  0.12499730723E+03 0.  0.
          4    1    3    3  501    0  0.71443013274E-01  0.62401477471E+02 -0.23872811490E+02  0.66830106412E+02  0.15500000000E+01 0.  1.
         -4    1    3    3    0  501 -0.71443013274E-01 -0.62401477471E+02 -0.30679550350E+02  0.69552762737E+02  0.15500000000E+01 0.  1.
<mgrwt>
<rscale>  2 0.12499731E+03</rscale>
<asrwt>0</asrwt>
<pdfrwt beam="1">  1       21 0.62946545E-02 0.12499731E+03</pdfrwt>
<pdfrwt beam="2">  1       21 0.14687325E-01 0.12499731E+03</pdfrwt>
<totfact> 0.72518865E+06</totfact>
</mgrwt>
</event>
<event>
 5    0  0.1289125E+000  0.1249930E+03  0.7546771E-02  0.1235080E+00
         21   -1    0    0  503  502  0.00000000000E+00  0.00000000000E+00  0.97201736911E+01  0.97201736911E+01  0.00000000000E+00 0.  1.
         21   -1    0    0  502  503 -0.00000000000E+00 -0.00000000000E+00 -0.40182538549E+03  0.40182538549E+03  0.00000000000E+00 0.  1.
         25    2    1    2    0    0  0.00000000000E+00  0.00000000000E+00 -0.39210521180E+03  0.41154555918E+03  0.12499300045E+03 0.  0.
          4    1    3    3  501    0  0.53694664295E+01  0.31406750349E+02 -0.37300053122E+03  0.37436214275E+03  0.15500000000E+01 0.  1.
         -4    1    3    3    0  501 -0.53694664295E+01 -0.31406750349E+02 -0.19104680581E+02  0.37183416429E+02  0.15500000000E+01 0.  1.
<mgrwt>
<rscale>  2 0.12499300E+03</rscale>
<asrwt>0</asrwt>
<pdfrwt beam="1">  1       21 0.14954114E-02 0.12499300E+03</pdfrwt>
<pdfrwt beam="2">  1       21 0.61819288E-01 0.12499300E+03</pdfrwt>
<totfact> 0.47293128E+06</totfact>
</mgrwt>
</event>
<event>
 5    0  0.1222151E+000  0.1249880E+03  0.7546771E-02  0.1235088E+00
         21   -1    0    0  503  502  0.00000000000E+00  0.00000000000E+00  0.83135651445E+03  0.83135651445E+03  0.00000000000E+00 0. -1.
         21   -1    0    0  502  503 -0.00000000000E+00 -0.00000000000E+00 -0.46977411173E+01  0.46977411173E+01  0.00000000000E+00 0. -1.
         25    2    1    2    0    0  0.00000000000E+00  0.00000000000E+00  0.82665877333E+03  0.83605425557E+03  0.12498796232E+03 0.  0.
          4    1    3    3  501    0  0.19452696759E+02 -0.44167541246E+02  0.67870258509E+03  0.68041809252E+03  0.15500000000E+01 0.  1.
         -4    1    3    3    0  501 -0.19452696759E+02  0.44167541246E+02  0.14795618824E+03  0.15563616305E+03  0.15500000000E+01 0.  1.
<mgrwt>
<rscale>  2 0.12498796E+03</rscale>
<asrwt>0</asrwt>
<pdfrwt beam="1">  1       21 0.12790089E+00 0.12498796E+03</pdfrwt>
<pdfrwt beam="2">  1       21 0.72273006E-03 0.12498796E+03</pdfrwt>
<totfact> 0.28211008E+06</totfact>
</mgrwt>
</event>
<event>
 5    0  0.1386129E+000  0.1249982E+03  0.7546771E-02  0.1235072E+00
         21   -1    0    0  503  502  0.00000000000E+00  0.00000000000E+00  0.69891820036E+01  0.69891820036E+01  0.00000000000E+00 0. -1.
         21   -1    0    0  502  503 -0.00000000000E+00 -0.00000000000E+00 -0.55888347715E+03  0.55888347715E+03  0.00000000000E+00 0. -1.
         25    2    1    2    0    0  0.00000000000E+00  0.00000000000E+00 -0.55189429515E+03  0.56587265915E+03  0.12499821344E+03 0.  0.
          4    1    3    3  501    0 -0.28191368741E+02 -0.55521556910E+02 -0.25271352578E+03  0.26027663200E+03  0.15500000000E+01 0.  1.
         -4    1    3    3    0  501  0.28191368741E+02  0.55521556910E+02 -0.29918076937E+03  0.30559602715E+03  0.15500000000E+01 0.  1.
<mgrwt>
<rscale>  2 0.12499821E+03</rscale>
<asrwt>0</asrwt>
<pdfrwt beam="1">  1       21 0.10752587E-02 0.12499821E+03</pdfrwt>
<pdfrwt beam="2">  1       21 0.85982081E-01 0.12499821E+03</pdfrwt>
<totfact> 0.38684641E+06</totfact>
</mgrwt>
</event>
<event>
 5    0  0.1366553E+000  0.1250008E+03  0.7546771E-02  0.1235068E+00
         21   -1    0    0  503  502  0.00000000000E+00  0.00000000000E+00  0.33076173034E+03  0.33076173034E+03  0.00000000000E+00 0.  1.
         21   -1    0    0  502  503 -0.00000000000E+00 -0.00000000000E+00 -0.11810018310E+02  0.11810018310E+02  0.00000000000E+00 0.  1.
         25    2    1    2    0    0  0.00000000000E+00  0.00000000000E+00  0.31895171203E+03  0.34257174865E+03  0.12500083346E+03 0.  0.
          4    1    3    3  501    0 -0.43957159842E+02  0.22631183496E+02  0.26417431086E+03  0.26876545795E+03  0.15500000000E+01 0. -1.
         -4    1    3    3    0  501  0.43957159842E+02 -0.22631183496E+02  0.54777401162E+02  0.73806290693E+02  0.15500000000E+01 0. -1.
<mgrwt>
<rscale>  2 0.12500083E+03</rscale>
<asrwt>0</asrwt>
<pdfrwt beam="1">  1       21 0.50886413E-01 0.12500083E+03</pdfrwt>
<pdfrwt beam="2">  1       21 0.18169261E-02 0.12500083E+03</pdfrwt>
<totfact> 0.52090666E+06</totfact>
</mgrwt>
</event>
<event>
 5    0  0.1448999E+000  0.1249594E+03  0.7546771E-02  0.1235133E+00
         21   -1    0    0  503  502  0.00000000000E+00  0.00000000000E+00  0.10751747077E+02  0.10751747077E+02  0.00000000000E+00 0.  1.
         21   -1    0    0  502  503 -0.00000000000E+00 -0.00000000000E+00 -0.36307725795E+03  0.36307725795E+03  0.00000000000E+00 0.  1.
         25    2    1    2    0    0  0.00000000000E+00  0.00000000000E+00 -0.35232551087E+03  0.37382900502E+03  0.12495943096E+03 0.  0.
          4    1    3    3  501    0  0.12747391637E+02  0.60946407629E+02 -0.16139994486E+03  0.17300088236E+03  0.15500000000E+01 0. -1.
         -4    1    3    3    0  501 -0.12747391637E+02 -0.60946407629E+02 -0.19092556601E+03  0.20082812266E+03  0.15500000000E+01 0. -1.
<mgrwt>
<rscale>  2 0.12495943E+03</rscale>
<asrwt>0</asrwt>
<pdfrwt beam="1">  1       21 0.16541151E-02 0.12495943E+03</pdfrwt>
<pdfrwt beam="2">  1       21 0.55858033E-01 0.12495943E+03</pdfrwt>
<totfact> 0.49875934E+06</totfact>
</mgrwt>
</event>
<event>
 5    0  0.1503904E+000  0.1250017E+03  0.7546771E-02  0.1235067E+00
         21   -1    0    0  503  502  0.00000000000E+00  0.00000000000E+00  0.19369579352E+03  0.19369579352E+03  0.00000000000E+00 0. -1.
         21   -1    0    0  502  503 -0.00000000000E+00 -0.00000000000E+00 -0.20167475342E+02  0.20167475342E+02  0.00000000000E+00 0. -1.
         25    2    1    2    0    0  0.00000000000E+00  0.00000000000E+00  0.17352831818E+03  0.21386326887E+03  0.12500168223E+03 0.  0.
          4    1    3    3  501    0 -0.52584028651E+02  0.24545612828E+02  0.47140111001E+02  0.74780744469E+02  0.15500000000E+01 0.  1.
         -4    1    3    3    0  501  0.52584028651E+02 -0.24545612828E+02  0.12638820718E+03  0.13908252440E+03  0.15500000000E+01 0.  1.
<mgrwt>
<rscale>  2 0.12500168E+03</rscale>
<asrwt>0</asrwt>
<pdfrwt beam="1">  1       21 0.29799352E-01 0.12500168E+03</pdfrwt>
<pdfrwt beam="2">  1       21 0.31026886E-02 0.12500168E+03</pdfrwt>
<totfact> 0.63452656E+06</totfact>
</mgrwt>
</event>
<event>
 5    0  0.1370403E+000  0.1250037E+03  0.7546771E-02  0.1235063E+00
         21   -1    0    0  503  502  0.00000000000E+00  0.00000000000E+00  0.33555828695E+03  0.33555828695E+03  0.00000000000E+00 0.  1.
         21   -1    0    0  502  503 -0.00000000000E+00 -0.00000000000E+00 -0.11641739642E+02  0.11641739642E+02  0.00000000000E+00 0.  1.
         25    2    1    2    0    0  0.00000000000E+00  0.00000000000E+00  0.32391654731E+03  0.34720002660E+03  0.12500371533E+03 0.  0.
          4    1    3    3  501    0 -0.41010941991E+02  0.30175906261E+02  0.26254879079E+03  0.26744485922E+03  0.15500000000E+01 0. -1.
         -4    1    3    3    0  501  0.41010941991E+02 -0.30175906261E+02  0.61367756526E+02  0.79755167373E+02  0.15500000000E+01 0. -1.
<mgrwt>
<rscale>  2 0.12500372E+03</rscale>
<asrwt>0</asrwt>
<pdfrwt beam="1">  1       21 0.51624344E-01 0.12500372E+03</pdfrwt>
<pdfrwt beam="2">  1       21 0.17910371E-02 0.12500372E+03</pdfrwt>
<totfact> 0.51741071E+06</totfact>
</mgrwt>
</event>
<event>
 5    0  0.1382185E+000  0.1249899E+03  0.7546771E-02  0.1235085E+00
         21   -1    0    0  503  502  0.00000000000E+00  0.00000000000E+00  0.41825301467E+03  0.41825301467E+03  0.00000000000E+00 0. -1.
         21   -1    0    0  502  503 -0.00000000000E+00 -0.00000000000E+00 -0.93379317379E+01  0.93379317379E+01  0.00000000000E+00 0. -1.
         25    2    1    2    0    0  0.00000000000E+00  0.00000000000E+00  0.40891508293E+03  0.42759094641E+03  0.12498988919E+03 0.  0.
          4    1    3    3  501    0  0.17077278769E+02  0.44117831356E+02  0.34405795431E+03  0.34729856740E+03  0.15500000000E+01 0.  1.
         -4    1    3    3    0  501 -0.17077278769E+02 -0.44117831356E+02  0.64857128623E+02  0.80292379009E+02  0.15500000000E+01 0.  1.
<mgrwt>
<rscale>  2 0.12498989E+03</rscale>
<asrwt>0</asrwt>
<pdfrwt beam="1">  1       21 0.64346603E-01 0.12498989E+03</pdfrwt>
<pdfrwt beam="2">  1       21 0.14366052E-02 0.12498989E+03</pdfrwt>
<totfact> 0.46275230E+06</totfact>
</mgrwt>
</event>
<event>
 4    0  0.1527342E+000  0.1251663E+03  0.7546771E-02  0.1234810E+00
         21   -1    0    0  503  502  0.00000000000E+00  0.00000000000E+00  0.39119866928E+02  0.39119866928E+02  0.00000000000E+00 0.  1.
         21   -1    0    0  502  503 -0.00000000000E+00 -0.00000000000E+00 -0.10011915176E+03  0.10011915176E+03  0.00000000000E+00 0.  1.
          4    1    1    2  501    0 -0.17172050044E+01  0.37899135641E+02  0.24842643495E+02  0.45374582215E+02  0.15500000000E+01 0.  1.
         -4    1    1    2    0  501  0.17172050044E+01 -0.37899135641E+02 -0.85841928325E+02  0.93864436470E+02  0.15500000000E+01 0.  1.
<mgrwt>
<rscale>  2 0.12516626E+03</rscale>
<asrwt>0</asrwt>
<pdfrwt beam="1">  1       21 0.60184411E-02 0.12516626E+03</pdfrwt>
<pdfrwt beam="2">  1       21 0.15402946E-01 0.12516626E+03</pdfrwt>
<totfact> 0.71834060E+06</totfact>
</mgrwt>
</event>
<event>
 5    0  0.1605624E+000  0.1249979E+03  0.7546771E-02  0.1235073E+00
         21   -1    0    0  503  502  0.00000000000E+00  0.00000000000E+00  0.16517900475E+03  0.16517900475E+03  0.00000000000E+00 0.  1.
         21   -1    0    0  502  503 -0.00000000000E+00 -0.00000000000E+00 -0.23647802888E+02  0.23647802888E+02  0.00000000000E+00 0.  1.
         25    2    1    2    0    0  0.00000000000E+00  0.00000000000E+00  0.14153120186E+03  0.18882680763E+03  0.12499792871E+03 0.  0.
          4    1    3    3  501    0 -0.47348010351E+02  0.38832230968E+02  0.89508601287E+02  0.10846182946E+03  0.15500000000E+01 0.  1.
         -4    1    3    3    0  501  0.47348010351E+02 -0.38832230968E+02  0.52022600570E+02  0.80364978170E+02  0.15500000000E+01 0.  1.
<mgrwt>
<rscale>  2 0.12499793E+03</rscale>
<asrwt>0</asrwt>
<pdfrwt beam="1">  1       21 0.25412154E-01 0.12499793E+03</pdfrwt>
<pdfrwt beam="2">  1       21 0.36381236E-02 0.12499793E+03</pdfrwt>
<totfact> 0.66156564E+06</totfact>
</mgrwt>
</event>
<event>
 5    0  0.1412592E+000  0.1249914E+03  0.7546771E-02  0.1235083E+00
         21   -1    0    0  503  502  0.00000000000E+00  0.00000000000E+00  0.25936648132E+03  0.25936648132E+03  0.00000000000E+00 0. -1.
         21   -1    0    0  502  503 -0.00000000000E+00 -0.00000000000E+00 -0.15058657466E+02  0.15058657466E+02  0.00000000000E+00 0. -1.
         25    2    1    2    0    0  0.00000000000E+00  0.00000000000E+00  0.24430782385E+03  0.27442513878E+03  0.12499137571E+03 0.  0.
          4    1    3    3  501    0  0.54684202563E+02 -0.11898949467E+02  0.61175961698E+02  0.82926761652E+02  0.15500000000E+01 0.  1.
         -4    1    3    3    0  501 -0.54684202563E+02  0.11898949467E+02  0.18313186215E+03  0.19149837713E+03  0.15500000000E+01 0.  1.
<mgrwt>
<rscale>  2 0.12499138E+03</rscale>
<asrwt>0</asrwt>
<pdfrwt beam="1">  1       21 0.39902532E-01 0.12499138E+03</pdfrwt>
<pdfrwt beam="2">  1       21 0.23167167E-02 0.12499138E+03</pdfrwt>
<totfact> 0.57663360E+06</totfact>
</mgrwt>
</event>
<event>
 5    0  0.1222151E+000  0.1249981E+03  0.7546771E-02  0.1235072E+00
         21   -1    0    0  503  502  0.00000000000E+00  0.00000000000E+00  0.17707194621E+04  0.17707194621E+04  0.00000000000E+00 0.  1.
         21   -1    0    0  502  503 -0.00000000000E+00 -0.00000000000E+00 -0.22059561919E+01  0.22059561919E+01  0.00000000000E+00 0.  1.
         25    2    1    2    0    0  0.00000000000E+00  0.00000000000E+00  0.17685135059E+04  0.17729254183E+04  0.12499807297E+03 0.  0.
          4    1    3    3  501    0  0.60513810827E+02 -0.89433563622E+01  0.70382784702E+03  0.70648279927E+03  0.15500000000E+01 0. -1.
         -4    1    3    3    0  501 -0.60513810827E+02  0.89433563622E+01  0.10646856589E+04  0.10664426190E+04  0.15500000000E+01 0. -1.
<mgrwt>
<rscale>  2 0.12499807E+03</rscale>
<asrwt>0</asrwt>
<pdfrwt beam="1">  1       21 0.27241724E+00 0.12499807E+03</pdfrwt>
<pdfrwt beam="2">  1       21 0.33937929E-03 0.12499807E+03</pdfrwt>
<totfact> 0.10385622E+06</totfact>
</mgrwt>
</event>
<event>
 5    0  0.1402995E+000  0.1250019E+03  0.7546771E-02  0.1235066E+00
         21   -1    0    0  503  502  0.00000000000E+00  0.00000000000E+00  0.33613792590E+03  0.33613792590E+03  0.00000000000E+00 0.  1.
         21   -1    0    0  502  503 -0.00000000000E+00 -0.00000000000E+00 -0.11621332590E+02  0.11621332590E+02  0.00000000000E+00 0.  1.
         25    2    1    2    0    0  0.00000000000E+00  0.00000000000E+00  0.32451659331E+03  0.34775925849E+03  0.12500193011E+03 0.  0.
          4    1    3    3  501    0  0.50656092215E+02  0.32877833499E+02  0.20685561069E+03  0.21549625933E+03  0.15500000000E+01 0. -1.
         -4    1    3    3    0  501 -0.50656092215E+02 -0.32877833499E+02  0.11766098262E+03  0.13226299916E+03  0.15500000000E+01 0. -1.
<mgrwt>
<rscale>  2 0.12500193E+03</rscale>
<asrwt>0</asrwt>
<pdfrwt beam="1">  1       21 0.51713520E-01 0.12500193E+03</pdfrwt>
<pdfrwt beam="2">  1       21 0.17878976E-02 0.12500193E+03</pdfrwt>
<totfact> 0.51701846E+06</totfact>
</mgrwt>
</event>
<event>
 5    0  0.1405746E+000  0.1249961E+03  0.7546771E-02  0.1235075E+00
         21   -1    0    0  503  502  0.00000000000E+00  0.00000000000E+00  0.28694000724E+03  0.28694000724E+03  0.00000000000E+00 0. -1.
         21   -1    0    0  502  503 -0.00000000000E+00 -0.00000000000E+00 -0.13612619897E+02  0.13612619897E+02  0.00000000000E+00 0. -1.
         25    2    1    2    0    0  0.00000000000E+00  0.00000000000E+00  0.27332738734E+03  0.30055262713E+03  0.12499608397E+03 0.  0.
          4    1    3    3  501    0 -0.34299057446E+02  0.22394911524E+02  0.23227380696E+02  0.47115508252E+02  0.15500000000E+01 0. -1.
         -4    1    3    3    0  501  0.34299057446E+02 -0.22394911524E+02  0.25010000664E+03  0.25343711888E+03  0.15500000000E+01 0. -1.
<mgrwt>
<rscale>  2 0.12499608E+03</rscale>
<asrwt>0</asrwt>
<pdfrwt beam="1">  1       21 0.44144612E-01 0.12499608E+03</pdfrwt>
<pdfrwt beam="2">  1       21 0.20942494E-02 0.12499608E+03</pdfrwt>
<totfact> 0.55415733E+06</totfact>
</mgrwt>
</event>
<event>
 5    0  0.1576402E+000  0.1249972E+03  0.7546771E-02  0.1235074E+00
         21   -1    0    0  503  502  0.00000000000E+00  0.00000000000E+00  0.11837381519E+03  0.11837381519E+03  0.00000000000E+00 0.  1.
         21   -1    0    0  502  503 -0.00000000000E+00 -0.00000000000E+00 -0.32997788313E+02  0.32997788313E+02  0.00000000000E+00 0.  1.
         25    2    1    2    0    0  0.00000000000E+00  0.00000000000E+00  0.85376026876E+02  0.15137160350E+03  0.12499718550E+03 0.  0.
          4    1    3    3  501    0  0.42497122207E+02  0.37205258592E+02  0.75034071542E+02  0.93929500451E+02  0.15500000000E+01 0. -1.
         -4    1    3    3    0  501 -0.42497122207E+02 -0.37205258592E+02  0.10341955334E+02  0.57442103051E+02  0.15500000000E+01 0. -1.
<mgrwt>
<rscale>  2 0.12499719E+03</rscale>
<asrwt>0</asrwt>
<pdfrwt beam="1">  1       21 0.18211356E-01 0.12499719E+03</pdfrwt>
<pdfrwt beam="2">  1       21 0.50765829E-02 0.12499719E+03</pdfrwt>
<totfact> 0.70592382E+06</totfact>
</mgrwt>
</event>
<event>
 5    0  0.1271143E+000  0.1250019E+03  0.7546771E-02  0.1235066E+00
         21   -1    0    0  503  502  0.00000000000E+00  0.00000000000E+00  0.73479545216E+01  0.73479545216E+01  0.00000000000E+00 0.  1.
         21   -1    0    0  502  503 -0.00000000000E+00 -0.00000000000E+00 -0.53162633707E+03  0.53162633707E+03  0.00000000000E+00 0.  1.
         25    2    1    2    0    0  0.00000000000E+00  0.00000000000E+00 -0.52427838255E+03  0.53897429159E+03  0.12500185834E+03 0.  0.
          4    1    3    3  501    0  0.35586408006E+02  0.32121073779E+02 -0.89357243015E+02  0.10141634580E+03  0.15500000000E+01 0. -1.
         -4    1    3    3    0  501 -0.35586408006E+02 -0.32121073779E+02 -0.43492113954E+03  0.43755794580E+03  0.15500000000E+01 0. -1.
<mgrwt>
<rscale>  2 0.12500186E+03</rscale>
<asrwt>0</asrwt>
<pdfrwt beam="1">  1       21 0.11304544E-02 0.12500186E+03</pdfrwt>
<pdfrwt beam="2">  1       21 0.81788675E-01 0.12500186E+03</pdfrwt>
<totfact> 0.40004476E+06</totfact>
</mgrwt>
</event>
<event>
 5    0  0.1222151E+000  0.1250043E+03  0.7546771E-02  0.1235063E+00
         21   -1    0    0  503  502  0.00000000000E+00  0.00000000000E+00  0.89320735745E+03  0.89320735745E+03  0.00000000000E+00 0. -1.
         21   -1    0    0  502  503 -0.00000000000E+00 -0.00000000000E+00 -0.43735838757E+01  0.43735838757E+01  0.00000000000E+00 0. -1.
         25    2    1    2    0    0  0.00000000000E+00  0.00000000000E+00  0.88883377357E+03  0.89758094133E+03  0.12500427667E+03 0.  0.
          4    1    3    3  501    0  0.54921565973E+02 -0.28730512598E+02  0.38774443840E+03  0.39267031053E+03  0.15500000000E+01 0. -1.
         -4    1    3    3    0  501 -0.54921565973E+02  0.28730512598E+02  0.50108933518E+03  0.50491063080E+03  0.15500000000E+01 0. -1.
<mgrwt>
<rscale>  2 0.12500428E+03</rscale>
<asrwt>0</asrwt>
<pdfrwt beam="1">  1       21 0.13741637E+00 0.12500428E+03</pdfrwt>
<pdfrwt beam="2">  1       21 0.67285977E-03 0.12500428E+03</pdfrwt>
<totfact> 0.26366021E+06</totfact>
</mgrwt>
</event>
<event>
 5    0  0.1601129E+000  0.1250140E+03  0.7546771E-02  0.1235047E+00
         21   -1    0    0  503  502  0.00000000000E+00  0.00000000000E+00  0.58195408653E+02  0.58195408653E+02  0.00000000000E+00 0. -1.
         21   -1    0    0  502  503 -0.00000000000E+00 -0.00000000000E+00 -0.67138040755E+02  0.67138040755E+02  0.00000000000E+00 0. -1.
         25    2    1    2    0    0  0.00000000000E+00  0.00000000000E+00 -0.89426321016E+01  0.12533344941E+03  0.12501401070E+03 0.  0.
          4    1    3    3  501    0  0.20302876382E+02  0.44628691244E+02  0.34367786472E+02  0.59895526699E+02  0.15500000000E+01 0.  1.
         -4    1    3    3    0  501 -0.20302876382E+02 -0.44628691244E+02 -0.43310418574E+02  0.65437922710E+02  0.15500000000E+01 0.  1.
<mgrwt>
<rscale>  2 0.12501401E+03</rscale>
<asrwt>0</asrwt>
<pdfrwt beam="1">  1       21 0.89531398E-02 0.12501401E+03</pdfrwt>
<pdfrwt beam="2">  1       21 0.10328929E-01 0.12501401E+03</pdfrwt>
<totfact> 0.73972058E+06</totfact>
</mgrwt>
</event>
<event>
 5    0  0.1222151E+000  0.1250045E+03  0.7546771E-02  0.1235062E+00
         21   -1    0    0  503  502  0.00000000000E+00  0.00000000000E+00  0.57257376238E+01  0.57257376238E+01  0.00000000000E+00 0.  1.
         21   -1    0    0  502  503 -0.00000000000E+00 -0.00000000000E+00 -0.68227575246E+03  0.68227575246E+03  0.00000000000E+00 0.  1.
         25    2    1    2    0    0  0.00000000000E+00  0.00000000000E+00 -0.67655001484E+03  0.68800149009E+03  0.12500451105E+03 0.  0.
          4    1    3    3  501    0 -0.37013721359E+02 -0.48385464912E+02 -0.41472863266E+03  0.41918183409E+03  0.15500000000E+01 0. -1.
         -4    1    3    3    0  501  0.37013721359E+02  0.48385464912E+02 -0.26182138218E+03  0.26881965600E+03  0.15500000000E+01 0. -1.
<mgrwt>
<rscale>  2 0.12500451E+03</rscale>
<asrwt>0</asrwt>
<pdfrwt beam="1">  1       21 0.88088239E-03 0.12500451E+03</pdfrwt>
<pdfrwt beam="2">  1       21 0.10496554E+00 0.12500451E+03</pdfrwt>
<totfact> 0.33374136E+06</totfact>
</mgrwt>
</event>
<event>
 5    0  0.1630145E+000  0.1250233E+03  0.7546771E-02  0.1235033E+00
         21   -1    0    0  503  502  0.00000000000E+00  0.00000000000E+00  0.55318160842E+02  0.55318160842E+02  0.00000000000E+00 0.  1.
         21   -1    0    0  502  503 -0.00000000000E+00 -0.00000000000E+00 -0.70640596239E+02  0.70640596239E+02  0.00000000000E+00 0.  1.
         25    2    1    2    0    0  0.00000000000E+00  0.00000000000E+00 -0.15322435397E+02  0.12595875708E+03  0.12502332366E+03 0.  0.
          4    1    3    3  501    0 -0.40595224276E+02 -0.47148217297E+02 -0.17540094420E+01  0.62260787638E+02  0.15500000000E+01 0. -1.
         -4    1    3    3    0  501  0.40595224276E+02  0.47148217297E+02 -0.13568425955E+02  0.63697969443E+02  0.15500000000E+01 0. -1.
<mgrwt>
<rscale>  2 0.12502332E+03</rscale>
<asrwt>0</asrwt>
<pdfrwt beam="1">  1       21 0.85104863E-02 0.12502332E+03</pdfrwt>
<pdfrwt beam="2">  1       21 0.10867784E-01 0.12502332E+03</pdfrwt>
<totfact> 0.73867767E+06</totfact>
</mgrwt>
</event>
<event>
 5    0  0.1386849E+000  0.1250177E+03  0.7546771E-02  0.1235042E+00
         21   -1    0    0  503  502  0.00000000000E+00  0.00000000000E+00  0.10840338004E+02  0.10840338004E+02  0.00000000000E+00 0.  1.
         21   -1    0    0  502  503 -0.00000000000E+00 -0.00000000000E+00 -0.36044626727E+03  0.36044626727E+03  0.00000000000E+00 0.  1.
         25    2    1    2    0    0  0.00000000000E+00  0.00000000000E+00 -0.34960592926E+03  0.37128660527E+03  0.12501774865E+03 0.  0.
          4    1    3    3  501    0  0.52551356858E+02 -0.11662376848E+02 -0.80545190059E+02  0.96889557141E+02  0.15500000000E+01 0.  1.
         -4    1    3    3    0  501 -0.52551356858E+02  0.11662376848E+02 -0.26906073920E+03  0.27439704813E+03  0.15500000000E+01 0.  1.
<mgrwt>
<rscale>  2 0.12501775E+03</rscale>
<asrwt>0</asrwt>
<pdfrwt beam="1">  1       21 0.16677443E-02 0.12501775E+03</pdfrwt>
<pdfrwt beam="2">  1       21 0.55453273E-01 0.12501775E+03</pdfrwt>
<totfact> 0.49981557E+06</totfact>
</mgrwt>
</event>
<event>
 5    0  0.1397794E+000  0.1249993E+03  0.7546771E-02  0.1235070E+00
         21   -1    0    0  503  502  0.00000000000E+00  0.00000000000E+00  0.94873410644E+01  0.94873410644E+01  0.00000000000E+00 0. -1.
         21   -1    0    0  502  503 -0.00000000000E+00 -0.00000000000E+00 -0.41172844138E+03  0.41172844138E+03  0.00000000000E+00 0. -1.
         25    2    1    2    0    0  0.00000000000E+00  0.00000000000E+00 -0.40224110031E+03  0.42121578244E+03  0.12499933039E+03 0.  0.
          4    1    3    3  501    0 -0.79816526166E+00 -0.58924003544E+02 -0.13115225917E+03  0.14379149087E+03  0.15500000000E+01 0. -1.
         -4    1    3    3    0  501  0.79816526166E+00  0.58924003544E+02 -0.27108884114E+03  0.27742429157E+03  0.15500000000E+01 0. -1.
<mgrwt>
<rscale>  2 0.12499933E+03</rscale>
<asrwt>0</asrwt>
<pdfrwt beam="1">  1       21 0.14595908E-02 0.12499933E+03</pdfrwt>
<pdfrwt beam="2">  1       21 0.63342843E-01 0.12499933E+03</pdfrwt>
<totfact> 0.46666026E+06</totfact>
</mgrwt>
</event>
<event>
 5    0  0.1222151E+000  0.1249988E+03  0.7546771E-02  0.1235071E+00
         21   -1    0    0  503  502  0.00000000000E+00  0.00000000000E+00  0.16172155267E+02  0.16172155267E+02  0.00000000000E+00 0.  1.
         21   -1    0    0  502  503 -0.00000000000E+00 -0.00000000000E+00 -0.24153721373E+03  0.24153721373E+03  0.00000000000E+00 0.  1.
         25    2    1    2    0    0  0.00000000000E+00  0.00000000000E+00 -0.22536505847E+03  0.25770936900E+03  0.12499883717E+03 0.  0.
          4    1    3    3  501    0  0.23452042102E+02  0.62788344529E+01  0.60100592816E+01  0.25058837830E+02  0.15500000000E+01 0.  1.
         -4    1    3    3    0  501 -0.23452042102E+02 -0.62788344529E+01 -0.23137511775E+03  0.23265053117E+03  0.15500000000E+01 0.  1.
<mgrwt>
<rscale>  2 0.12499884E+03</rscale>
<asrwt>0</asrwt>
<pdfrwt beam="1">  1       21 0.24880240E-02 0.12499884E+03</pdfrwt>
<pdfrwt beam="2">  1       21 0.37159570E-01 0.12499884E+03</pdfrwt>
<totfact> 0.59161595E+06</totfact>
</mgrwt>
</event>
<event>
 5    0  0.1469764E+000  0.1250016E+03  0.7546771E-02  0.1235067E+00
         21   -1    0    0  503  502  0.00000000000E+00  0.00000000000E+00  0.31136267272E+03  0.31136267272E+03  0.00000000000E+00 0. -1.
         21   -1    0    0  502  503 -0.00000000000E+00 -0.00000000000E+00 -0.12545987566E+02  0.12545987566E+02  0.00000000000E+00 0. -1.
         25    2    1    2    0    0  0.00000000000E+00  0.00000000000E+00  0.29881668516E+03  0.32390866029E+03  0.12500163552E+03 0.  0.
          4    1    3    3  501    0  0.46758985806E+02 -0.23842090778E+02  0.61569603437E+02  0.80920124899E+02  0.15500000000E+01 0.  1.
         -4    1    3    3    0  501 -0.46758985806E+02  0.23842090778E+02  0.23724708172E+03  0.24298853539E+03  0.15500000000E+01 0.  1.
<mgrwt>
<rscale>  2 0.12500164E+03</rscale>
<asrwt>0</asrwt>
<pdfrwt beam="1">  1       21 0.47901943E-01 0.12500164E+03</pdfrwt>
<pdfrwt beam="2">  1       21 0.19301522E-02 0.12500164E+03</pdfrwt>
<totfact> 0.53522855E+06</totfact>
</mgrwt>
</event>
<event>
 5    0  0.1550308E+000  0.1250388E+03  0.7546771E-02  0.1235009E+00
         21   -1    0    0  503  502  0.00000000000E+00  0.00000000000E+00  0.21030237384E+02  0.21030237384E+02  0.00000000000E+00 0.  1.
         21   -1    0    0  502  503 -0.00000000000E+00 -0.00000000000E+00 -0.18585979192E+03  0.18585979192E+03  0.00000000000E+00 0.  1.
         25    2    1    2    0    0  0.00000000000E+00  0.00000000000E+00 -0.16482955453E+03  0.20689002930E+03  0.12503880268E+03 0.  0.
          4    1    3    3  501    0  0.31724371311E+02  0.53378356715E+02 -0.70646307829E+02  0.94069059794E+02  0.15500000000E+01 0.  1.
         -4    1    3    3    0  501 -0.31724371311E+02 -0.53378356715E+02 -0.94183246704E+02  0.11282096951E+03  0.15500000000E+01 0.  1.
<mgrwt>
<rscale>  2 0.12503880E+03</rscale>
<asrwt>0</asrwt>
<pdfrwt beam="1">  1       21 0.32354210E-02 0.12503880E+03</pdfrwt>
<pdfrwt beam="2">  1       21 0.28593816E-01 0.12503880E+03</pdfrwt>
<totfact> 0.64125254E+06</totfact>
</mgrwt>
</event>
<event>
 5    0  0.1535154E+000  0.1249984E+03  0.7546771E-02  0.1235072E+00
         21   -1    0    0  503  502  0.00000000000E+00  0.00000000000E+00  0.15209808793E+03  0.15209808793E+03  0.00000000000E+00 0. -1.
         21   -1    0    0  502  503 -0.00000000000E+00 -0.00000000000E+00 -0.25681777722E+02  0.25681777722E+02  0.00000000000E+00 0. -1.
         25    2    1    2    0    0  0.00000000000E+00  0.00000000000E+00  0.12641631021E+03  0.17777986565E+03  0.12499838857E+03 0.  0.
          4    1    3    3  501    0 -0.14800988351E+02 -0.46942347101E+02  0.84726148683E+01  0.49968399116E+02  0.15500000000E+01 0.  1.
         -4    1    3    3    0  501  0.14800988351E+02  0.46942347101E+02  0.11794369534E+03  0.12781146654E+03  0.15500000000E+01 0.  1.
<mgrwt>
<rscale>  2 0.12499839E+03</rscale>
<asrwt>0</asrwt>
<pdfrwt beam="1">  1       21 0.23399705E-01 0.12499839E+03</pdfrwt>
<pdfrwt beam="2">  1       21 0.39510428E-02 0.12499839E+03</pdfrwt>
<totfact> 0.67409896E+06</totfact>
</mgrwt>
</event>
<event>
 5    0  0.1598148E+000  0.1250020E+03  0.7546771E-02  0.1235066E+00
         21   -1    0    0  503  502  0.00000000000E+00  0.00000000000E+00  0.80181530828E+02  0.80181530828E+02  0.00000000000E+00 0.  1.
         21   -1    0    0  502  503 -0.00000000000E+00 -0.00000000000E+00 -0.48719149422E+02  0.48719149422E+02  0.00000000000E+00 0.  1.
         25    2    1    2    0    0  0.00000000000E+00  0.00000000000E+00  0.31462381405E+02  0.12890068025E+03  0.12500201568E+03 0.  0.
          4    1    3    3  501    0  0.29339557598E+00  0.61200436488E+02  0.28709183258E+02  0.67618039092E+02  0.15500000000E+01 0. -1.
         -4    1    3    3    0  501 -0.29339557598E+00 -0.61200436488E+02  0.27531981469E+01  0.61282641158E+02  0.15500000000E+01 0. -1.
<mgrwt>
<rscale>  2 0.12500202E+03</rscale>
<asrwt>0</asrwt>
<pdfrwt beam="1">  1       21 0.12335620E-01 0.12500202E+03</pdfrwt>
<pdfrwt beam="2">  1       21 0.74952538E-02 0.12500202E+03</pdfrwt>
<totfact> 0.73508440E+06</totfact>
</mgrwt>
</event>
<event>
 5    0  0.1534872E+000  0.1250044E+03  0.7546771E-02  0.1235062E+00
         21   -1    0    0  503  502  0.00000000000E+00  0.00000000000E+00  0.34016444634E+02  0.34016444634E+02  0.00000000000E+00 0.  1.
         21   -1    0    0  502  503 -0.00000000000E+00 -0.00000000000E+00 -0.11484225654E+03  0.11484225654E+03  0.00000000000E+00 0.  1.
         25    2    1    2    0    0  0.00000000000E+00  0.00000000000E+00 -0.80825811901E+02  0.14885870117E+03  0.12500440410E+03 0.  0.
          4    1    3    3  501    0 -0.41430592847E+02 -0.29288626889E+02 -0.83838213587E+02  0.98007990726E+02  0.15500000000E+01 0. -1.
         -4    1    3    3    0  501  0.41430592847E+02  0.29288626889E+02  0.30124016859E+01  0.50850710444E+02  0.15500000000E+01 0. -1.
<mgrwt>
<rscale>  2 0.12500440E+03</rscale>
<asrwt>0</asrwt>
<pdfrwt beam="1">  1       21 0.52332992E-02 0.12500440E+03</pdfrwt>
<pdfrwt beam="2">  1       21 0.17668039E-01 0.12500440E+03</pdfrwt>
<totfact> 0.70894915E+06</totfact>
</mgrwt>
</event>
<event>
 5    0  0.1534373E+000  0.1250034E+03  0.7546771E-02  0.1235064E+00
         21   -1    0    0  503  502  0.00000000000E+00  0.00000000000E+00  0.95970692870E+02  0.95970692870E+02  0.00000000000E+00 0.  1.
         21   -1    0    0  502  503 -0.00000000000E+00 -0.00000000000E+00 -0.40704712920E+02  0.40704712920E+02  0.00000000000E+00 0.  1.
         25    2    1    2    0    0  0.00000000000E+00  0.00000000000E+00  0.55265979950E+02  0.13667540579E+03  0.12500335199E+03 0.  0.
          4    1    3    3  501    0 -0.33969817124E+02  0.52439420431E+02  0.27125175247E+02  0.68132363255E+02  0.15500000000E+01 0.  1.
         -4    1    3    3    0  501  0.33969817124E+02 -0.52439420431E+02  0.28140804703E+02  0.68543042535E+02  0.15500000000E+01 0.  1.
<mgrwt>
<rscale>  2 0.12500335E+03</rscale>
<asrwt>0</asrwt>
<pdfrwt beam="1">  1       21 0.14764722E-01 0.12500335E+03</pdfrwt>
<pdfrwt beam="2">  1       21 0.62622636E-02 0.12500335E+03</pdfrwt>
<totfact> 0.72469194E+06</totfact>
</mgrwt>
</event>
<event>
 5    0  0.1222151E+000  0.1249862E+03  0.7546771E-02  0.1235091E+00
         21   -1    0    0  503  502  0.00000000000E+00  0.00000000000E+00  0.88482530157E+03  0.88482530157E+03  0.00000000000E+00 0. -1.
         21   -1    0    0  502  503 -0.00000000000E+00 -0.00000000000E+00 -0.44137418630E+01  0.44137418630E+01  0.00000000000E+00 0. -1.
         25    2    1    2    0    0  0.00000000000E+00  0.00000000000E+00  0.88041155971E+03  0.88923904344E+03  0.12498624684E+03 0.  0.
          4    1    3    3  501    0 -0.34340414139E+02  0.24764473762E+02  0.76705186804E+03  0.76822100594E+03  0.15500000000E+01 0. -1.
         -4    1    3    3    0  501  0.34340414139E+02 -0.24764473762E+02  0.11335969167E+03  0.12101803750E+03  0.15500000000E+01 0. -1.
<mgrwt>
<rscale>  2 0.12498625E+03</rscale>
<asrwt>0</asrwt>
<pdfrwt beam="1">  1       21 0.13612683E+00 0.12498625E+03</pdfrwt>
<pdfrwt beam="2">  1       21 0.67903792E-03 0.12498625E+03</pdfrwt>
<totfact> 0.26618224E+06</totfact>
</mgrwt>
</event>
<event>
 5    0  0.1376025E+000  0.1249996E+03  0.7546771E-02  0.1235070E+00
         21   -1    0    0  503  502  0.00000000000E+00  0.00000000000E+00  0.12349373118E+02  0.12349373118E+02  0.00000000000E+00 0. -1.
         21   -1    0    0  502  503 -0.00000000000E+00 -0.00000000000E+00 -0.31630964052E+03  0.31630964052E+03  0.00000000000E+00 0. -1.
         25    2    1    2    0    0  0.00000000000E+00  0.00000000000E+00 -0.30396026740E+03  0.32865901364E+03  0.12499961234E+03 0.  0.
          4    1    3    3  501    0  0.38974903028E+02 -0.12757129626E+02 -0.27592039632E+03  0.27895565065E+03  0.15500000000E+01 0. -1.
         -4    1    3    3    0  501 -0.38974903028E+02  0.12757129626E+02 -0.28039871081E+02  0.49703362990E+02  0.15500000000E+01 0. -1.
<mgrwt>
<rscale>  2 0.12499961E+03</rscale>
<asrwt>0</asrwt>
<pdfrwt beam="1">  1       21 0.18999035E-02 0.12499961E+03</pdfrwt>
<pdfrwt beam="2">  1       21 0.48663024E-01 0.12499961E+03</pdfrwt>
<totfact> 0.53154731E+06</totfact>
</mgrwt>
</event>
<event>
 5    0  0.1456993E+000  0.1250021E+03  0.7546771E-02  0.1235066E+00
         21   -1    0    0  503  502  0.00000000000E+00  0.00000000000E+00  0.18857004096E+02  0.18857004096E+02  0.00000000000E+00 0.  1.
         21   -1    0    0  502  503 -0.00000000000E+00 -0.00000000000E+00 -0.20715798887E+03  0.20715798887E+03  0.00000000000E+00 0.  1.
         25    2    1    2    0    0  0.00000000000E+00  0.00000000000E+00 -0.18830098478E+03  0.22601499297E+03  0.12500206470E+03 0.  0.
          4    1    3    3  501    0 -0.31728482100E+02  0.50505511075E+02 -0.60495076512E+02  0.84967994018E+02  0.15500000000E+01 0. -1.
         -4    1    3    3    0  501  0.31728482100E+02 -0.50505511075E+02 -0.12780590827E+03  0.14104699895E+03  0.15500000000E+01 0. -1.
<mgrwt>
<rscale>  2 0.12500206E+03</rscale>
<asrwt>0</asrwt>
<pdfrwt beam="1">  1       21 0.29010774E-02 0.12500206E+03</pdfrwt>
<pdfrwt beam="2">  1       21 0.31870462E-01 0.12500206E+03</pdfrwt>
<totfact> 0.62209561E+06</totfact>
</mgrwt>
</event>
<event>
 5    0  0.1490221E+000  0.1249982E+03  0.7546771E-02  0.1235072E+00
         21   -1    0    0  503  502  0.00000000000E+00  0.00000000000E+00  0.17711588958E+02  0.17711588958E+02  0.00000000000E+00 0. -1.
         21   -1    0    0  502  503 -0.00000000000E+00 -0.00000000000E+00 -0.22054132038E+03  0.22054132038E+03  0.00000000000E+00 0. -1.
         25    2    1    2    0    0  0.00000000000E+00  0.00000000000E+00 -0.20282973142E+03  0.23825290934E+03  0.12499819543E+03 0.  0.
          4    1    3    3  501    0 -0.10381149100E+02  0.47635912433E+02 -0.26937621740E+02  0.55722404605E+02  0.15500000000E+01 0. -1.
         -4    1    3    3    0  501  0.10381149100E+02 -0.47635912433E+02 -0.17589210968E+03  0.18253050473E+03  0.15500000000E+01 0. -1.
<mgrwt>
<rscale>  2 0.12499820E+03</rscale>
<asrwt>0</asrwt>
<pdfrwt beam="1">  1       21 0.27248598E-02 0.12499820E+03</pdfrwt>
<pdfrwt beam="2">  1       21 0.33929434E-01 0.12499820E+03</pdfrwt>
<totfact> 0.61004913E+06</totfact>
</mgrwt>
</event>
<event>
 5    0  0.1590530E+000  0.1249982E+03  0.7546771E-02  0.1235072E+00
         21   -1    0    0  503  502  0.00000000000E+00  0.00000000000E+00  0.39668360800E+02  0.39668360800E+02  0.00000000000E+00 0.  1.
         21   -1    0    0  502  503 -0.00000000000E+00 -0.00000000000E+00 -0.98469902572E+02  0.98469902572E+02  0.00000000000E+00 0.  1.
         25    2    1    2    0    0  0.00000000000E+00  0.00000000000E+00 -0.58801541773E+02  0.13813826337E+03  0.12499823396E+03 0.  0.
          4    1    3    3  501    0 -0.28455498603E+02 -0.54390105629E+02 -0.42276180343E+02  0.74549828406E+02  0.15500000000E+01 0. -1.
         -4    1    3    3    0  501  0.28455498603E+02  0.54390105629E+02 -0.16525361429E+02  0.63588434966E+02  0.15500000000E+01 0. -1.
<mgrwt>
<rscale>  2 0.12499823E+03</rscale>
<asrwt>0</asrwt>
<pdfrwt beam="1">  1       21 0.61028248E-02 0.12499823E+03</pdfrwt>
<pdfrwt beam="2">  1       21 0.15149216E-01 0.12499823E+03</pdfrwt>
<totfact> 0.72286549E+06</totfact>
</mgrwt>
</event>
<event>
 5    0  0.1497394E+000  0.1250013E+03  0.7546771E-02  0.1235067E+00
         21   -1    0    0  503  502  0.00000000000E+00  0.00000000000E+00  0.27068113299E+02  0.27068113299E+02  0.00000000000E+00 0.  1.
         21   -1    0    0  502  503 -0.00000000000E+00 -0.00000000000E+00 -0.14431477239E+03  0.14431477239E+03  0.00000000000E+00 0.  1.
         25    2    1    2    0    0  0.00000000000E+00  0.00000000000E+00 -0.11724665909E+03  0.17138288569E+03  0.12500125775E+03 0.  0.
          4    1    3    3  501    0  0.51705351574E+02  0.59721244848E+00 -0.10671035115E+03  0.11858879200E+03  0.15500000000E+01 0.  1.
         -4    1    3    3    0  501 -0.51705351574E+02 -0.59721244848E+00 -0.10536307941E+02  0.52794093695E+02  0.15500000000E+01 0.  1.
<mgrwt>
<rscale>  2 0.12500126E+03</rscale>
<asrwt>0</asrwt>
<pdfrwt beam="1">  1       21 0.41643252E-02 0.12500126E+03</pdfrwt>
<pdfrwt beam="2">  1       21 0.22202272E-01 0.12500126E+03</pdfrwt>
<totfact> 0.68151904E+06</totfact>
</mgrwt>
</event>
<event>
 5    0  0.1222151E+000  0.1249713E+03  0.7546771E-02  0.1235114E+00
         21   -1    0    0  503  502  0.00000000000E+00  0.00000000000E+00  0.42538983344E+01  0.42538983344E+01  0.00000000000E+00 0.  1.
         21   -1    0    0  502  503 -0.00000000000E+00 -0.00000000000E+00 -0.91785384857E+03  0.91785384857E+03  0.00000000000E+00 0.  1.
         25    2    1    2    0    0  0.00000000000E+00  0.00000000000E+00 -0.91359995023E+03  0.92210774690E+03  0.12497130803E+03 0.  0.
          4    1    3    3  501    0 -0.19152287325E+02  0.51975654462E+02 -0.66985705469E+03  0.67214518891E+03  0.15500000000E+01 0.  1.
         -4    1    3    3    0  501  0.19152287325E+02 -0.51975654462E+02 -0.24374289555E+03  0.24996255799E+03  0.15500000000E+01 0.  1.
<mgrwt>
<rscale>  2 0.12497131E+03</rscale>
<asrwt>0</asrwt>
<pdfrwt beam="1">  1       21 0.65444591E-03 0.12497131E+03</pdfrwt>
<pdfrwt beam="2">  1       21 0.14120828E+00 0.12497131E+03</pdfrwt>
<totfact> 0.25691566E+06</totfact>
</mgrwt>
</event>
<event>
 5    0  0.1472121E+000  0.1250060E+03  0.7546771E-02  0.1235060E+00
         21   -1    0    0  503  502  0.00000000000E+00  0.00000000000E+00  0.89704498538E+02  0.89704498538E+02  0.00000000000E+00 0. -1.
         21   -1    0    0  502  503 -0.00000000000E+00 -0.00000000000E+00 -0.43549919281E+02  0.43549919281E+02  0.00000000000E+00 0. -1.
         25    2    1    2    0    0  0.00000000000E+00  0.00000000000E+00  0.46154579257E+02  0.13325441782E+03  0.12500597859E+03 0.  0.
          4    1    3    3  501    0  0.41323171199E+02 -0.22744713049E+02 -0.20605895119E+02  0.51496911201E+02  0.15500000000E+01 0. -1.
         -4    1    3    3    0  501 -0.41323171199E+02  0.22744713049E+02  0.66760474376E+02  0.81757506618E+02  0.15500000000E+01 0. -1.
<mgrwt>
<rscale>  2 0.12500598E+03</rscale>
<asrwt>0</asrwt>
<pdfrwt beam="1">  1       21 0.13800692E-01 0.12500598E+03</pdfrwt>
<pdfrwt beam="2">  1       21 0.66999876E-02 0.12500598E+03</pdfrwt>
<totfact> 0.72917323E+06</totfact>
</mgrwt>
</event>
<event>
 5    0  0.1504260E+000  0.1250032E+03  0.7546771E-02  0.1235064E+00
         21   -1    0    0  503  502  0.00000000000E+00  0.00000000000E+00  0.87093954139E+02  0.87093954139E+02  0.00000000000E+00 0. -1.
         21   -1    0    0  502  503 -0.00000000000E+00 -0.00000000000E+00 -0.44853261294E+02  0.44853261294E+02  0.00000000000E+00 0. -1.
         25    2    1    2    0    0  0.00000000000E+00  0.00000000000E+00  0.42240692844E+02  0.13194721543E+03  0.12500316607E+03 0.  0.
          4    1    3    3  501    0  0.28433006102E+02 -0.44476659532E+02  0.56405385664E+02  0.77269522524E+02  0.15500000000E+01 0. -1.
         -4    1    3    3    0  501 -0.28433006102E+02  0.44476659532E+02 -0.14164692820E+02  0.54677692909E+02  0.15500000000E+01 0. -1.
<mgrwt>
<rscale>  2 0.12500317E+03</rscale>
<asrwt>0</asrwt>
<pdfrwt beam="1">  1       21 0.13399070E-01 0.12500317E+03</pdfrwt>
<pdfrwt beam="2">  1       21 0.69005018E-02 0.12500317E+03</pdfrwt>
<totfact> 0.73097405E+06</totfact>
</mgrwt>
</event>
<event>
 5    0  0.1222151E+000  0.1249705E+03  0.7546771E-02  0.1235115E+00
         21   -1    0    0  503  502  0.00000000000E+00  0.00000000000E+00  0.27334950966E+01  0.27334950966E+01  0.00000000000E+00 0. -1.
         21   -1    0    0  502  503 -0.00000000000E+00 -0.00000000000E+00 -0.14283578476E+04  0.14283578476E+04  0.00000000000E+00 0. -1.
         25    2    1    2    0    0  0.00000000000E+00  0.00000000000E+00 -0.14256243525E+04  0.14310913427E+04  0.12497054329E+03 0.  0.
          4    1    3    3  501    0  0.16978434803E+02  0.55309388704E+02 -0.44312896261E+03  0.44689268928E+03  0.15500000000E+01 0.  1.
         -4    1    3    3    0  501 -0.16978434803E+02 -0.55309388704E+02 -0.98249538988E+03  0.98419865341E+03  0.15500000000E+01 0.  1.
<mgrwt>
<rscale>  2 0.12497054E+03</rscale>
<asrwt>0</asrwt>
<pdfrwt beam="1">  1       21 0.42053684E-03 0.12497054E+03</pdfrwt>
<pdfrwt beam="2">  1       21 0.21974781E+00 0.12497054E+03</pdfrwt>
<totfact> 0.15057398E+06</totfact>
</mgrwt>
</event>
<event>
 5    0  0.1489002E+000  0.1249991E+03  0.7546771E-02  0.1235071E+00
         21   -1    0    0  503  502  0.00000000000E+00  0.00000000000E+00  0.18399868828E+02  0.18399868828E+02  0.00000000000E+00 0.  1.
         21   -1    0    0  502  503 -0.00000000000E+00 -0.00000000000E+00 -0.21229477905E+03  0.21229477905E+03  0.00000000000E+00 0.  1.
         25    2    1    2    0    0  0.00000000000E+00  0.00000000000E+00 -0.19389491023E+03  0.23069464788E+03  0.12499913740E+03 0.  0.
          4    1    3    3  501    0 -0.54716940870E+02  0.46539141984E+01 -0.15195011597E+03  0.16157612069E+03  0.15500000000E+01 0.  1.
         -4    1    3    3    0  501  0.54716940870E+02 -0.46539141984E+01 -0.41944794258E+02  0.69118527189E+02  0.15500000000E+01 0.  1.
<mgrwt>
<rscale>  2 0.12499914E+03</rscale>
<asrwt>0</asrwt>
<pdfrwt beam="1">  1       21 0.28307490E-02 0.12499914E+03</pdfrwt>
<pdfrwt beam="2">  1       21 0.32660736E-01 0.12499914E+03</pdfrwt>
<totfact> 0.61746262E+06</totfact>
</mgrwt>
</event>
<event>
 5    0  0.1479303E+000  0.1250004E+03  0.7546771E-02  0.1235069E+00
         21   -1    0    0  503  502  0.00000000000E+00  0.00000000000E+00  0.23967169706E+03  0.23967169706E+03  0.00000000000E+00 0. -1.
         21   -1    0    0  502  503 -0.00000000000E+00 -0.00000000000E+00 -0.16298439360E+02  0.16298439360E+02  0.00000000000E+00 0. -1.
         25    2    1    2    0    0  0.00000000000E+00  0.00000000000E+00  0.22337325770E+03  0.25597013642E+03  0.12500039393E+03 0.  0.
          4    1    3    3  501    0  0.39188782919E+02  0.48073546713E+02  0.96220248305E+02  0.11448827575E+03  0.15500000000E+01 0. -1.
         -4    1    3    3    0  501 -0.39188782919E+02 -0.48073546713E+02  0.12715300939E+03  0.14148186067E+03  0.15500000000E+01 0. -1.
<mgrwt>
<rscale>  2 0.12500039E+03</rscale>
<asrwt>0</asrwt>
<pdfrwt beam="1">  1       21 0.36872566E-01 0.12500039E+03</pdfrwt>
<pdfrwt beam="2">  1       21 0.25074524E-02 0.12500039E+03</pdfrwt>
<totfact> 0.59320031E+06</totfact>
</mgrwt>
</event>
<event>
 5    0  0.1597192E+000  0.1249997E+03  0.7546771E-02  0.1235070E+00
         21   -1    0    0  503  502  0.00000000000E+00  0.00000000000E+00  0.20531219444E+03  0.20531219444E+03  0.00000000000E+00 0. -1.
         21   -1    0    0  502  503 -0.00000000000E+00 -0.00000000000E+00 -0.19025802870E+02  0.19025802870E+02  0.00000000000E+00 0. -1.
         25    2    1    2    0    0  0.00000000000E+00  0.00000000000E+00  0.18628639157E+03  0.22433799731E+03  0.12499966941E+03 0.  0.
          4    1    3    3  501    0  0.38447112990E+02  0.41890996622E+02  0.46660907012E+02  0.73570910274E+02  0.15500000000E+01 0.  1.
         -4    1    3    3    0  501 -0.38447112990E+02 -0.41890996622E+02  0.13962548456E+03  0.15076708704E+03  0.15500000000E+01 0.  1.
<mgrwt>
<rscale>  2 0.12499967E+03</rscale>
<asrwt>0</asrwt>
<pdfrwt beam="1">  1       21 0.31586490E-01 0.12499967E+03</pdfrwt>
<pdfrwt beam="2">  1       21 0.29270467E-02 0.12499967E+03</pdfrwt>
<totfact> 0.62382388E+06</totfact>
</mgrwt>
</event>
<event>
 5    0  0.1546770E+000  0.1249996E+03  0.7546771E-02  0.1235070E+00
         21   -1    0    0  503  502  0.00000000000E+00  0.00000000000E+00  0.18520973807E+03  0.18520973807E+03  0.00000000000E+00 0.  1.
         21   -1    0    0  502  503 -0.00000000000E+00 -0.00000000000E+00 -0.21090825275E+02  0.21090825275E+02  0.00000000000E+00 0.  1.
         25    2    1    2    0    0  0.00000000000E+00  0.00000000000E+00  0.16411891280E+03  0.20630056335E+03  0.12499961960E+03 0.  0.
          4    1    3    3  501    0 -0.35377425505E+02  0.41642001952E+02  0.32048911355E+02  0.63365241110E+02  0.15500000000E+01 0. -1.
         -4    1    3    3    0  501  0.35377425505E+02 -0.41642001952E+02  0.13207000144E+03  0.14293532224E+03  0.15500000000E+01 0. -1.
<mgrwt>
<rscale>  2 0.12499962E+03</rscale>
<asrwt>0</asrwt>
<pdfrwt beam="1">  1       21 0.28493805E-01 0.12499962E+03</pdfrwt>
<pdfrwt beam="2">  1       21 0.32447425E-02 0.12499962E+03</pdfrwt>
<totfact> 0.64251492E+06</totfact>
</mgrwt>
</event>
<event>
 5    0  0.1350107E+000  0.1250113E+03  0.7546771E-02  0.1235052E+00
         21   -1    0    0  503  502  0.00000000000E+00  0.00000000000E+00  0.91106786293E+01  0.91106786293E+01  0.00000000000E+00 0. -1.
         21   -1    0    0  502  503 -0.00000000000E+00 -0.00000000000E+00 -0.42883258660E+03  0.42883258660E+03  0.00000000000E+00 0. -1.
         25    2    1    2    0    0  0.00000000000E+00  0.00000000000E+00 -0.41972190797E+03  0.43794326523E+03  0.12501129361E+03 0.  0.
          4    1    3    3  501    0  0.44312219877E+02 -0.16217513960E+02 -0.35336398039E+03  0.35650397715E+03  0.15500000000E+01 0.  1.
         -4    1    3    3    0  501 -0.44312219877E+02  0.16217513960E+02 -0.66357927581E+02  0.81439288076E+02  0.15500000000E+01 0.  1.
<mgrwt>
<rscale>  2 0.12501129E+03</rscale>
<asrwt>0</asrwt>
<pdfrwt beam="1">  1       21 0.14016427E-02 0.12501129E+03</pdfrwt>
<pdfrwt beam="2">  1       21 0.65974251E-01 0.12501129E+03</pdfrwt>
<totfact> 0.45609534E+06</totfact>
</mgrwt>
</event>
<event>
 5    0  0.1271477E+000  0.1250258E+03  0.7546771E-02  0.1235029E+00
         21   -1    0    0  503  502  0.00000000000E+00  0.00000000000E+00  0.39856198959E+03  0.39856198959E+03  0.00000000000E+00 0.  1.
         21   -1    0    0  502  503 -0.00000000000E+00 -0.00000000000E+00 -0.98048987374E+01  0.98048987374E+01  0.00000000000E+00 0.  1.
         25    2    1    2    0    0  0.00000000000E+00  0.00000000000E+00  0.38875709085E+03  0.40836688833E+03  0.12502575652E+03 0.  0.
          4    1    3    3  501    0  0.97028597526E+01  0.29489862363E+02  0.17226053492E+02  0.35537823350E+02  0.15500000000E+01 0.  1.
         -4    1    3    3    0  501 -0.97028597526E+01 -0.29489862363E+02  0.37153103736E+03  0.37282906498E+03  0.15500000000E+01 0.  1.
<mgrwt>
<rscale>  2 0.12502576E+03</rscale>
<asrwt>0</asrwt>
<pdfrwt beam="1">  1       21 0.61317217E-01 0.12502576E+03</pdfrwt>
<pdfrwt beam="2">  1       21 0.15084463E-02 0.12502576E+03</pdfrwt>
<totfact> 0.47460746E+06</totfact>
</mgrwt>
</event>
<event>
 5    0  0.1419075E+000  0.1249990E+03  0.7546771E-02  0.1235071E+00
         21   -1    0    0  503  502  0.00000000000E+00  0.00000000000E+00  0.41215108026E+03  0.41215108026E+03  0.00000000000E+00 0.  1.
         21   -1    0    0  502  503 -0.00000000000E+00 -0.00000000000E+00 -0.94775653427E+01  0.94775653427E+01  0.00000000000E+00 0.  1.
         25    2    1    2    0    0  0.00000000000E+00  0.00000000000E+00  0.40267351492E+03  0.42162864561E+03  0.12499902070E+03 0.  0.
          4    1    3    3  501    0  0.15558920215E+02  0.59584979237E+02  0.23692793602E+03  0.24480543114E+03  0.15500000000E+01 0. -1.
         -4    1    3    3    0  501 -0.15558920215E+02 -0.59584979237E+02  0.16574557890E+03  0.17682321447E+03  0.15500000000E+01 0. -1.
<mgrwt>
<rscale>  2 0.12499902E+03</rscale>
<asrwt>0</asrwt>
<pdfrwt beam="1">  1       21 0.63407845E-01 0.12499902E+03</pdfrwt>
<pdfrwt beam="2">  1       21 0.14580873E-02 0.12499902E+03</pdfrwt>
<totfact> 0.46640218E+06</totfact>
</mgrwt>
</event>
<event>
 5    0  0.1308235E+000  0.1249994E+03  0.7546771E-02  0.1235070E+00
         21   -1    0    0  503  502  0.00000000000E+00  0.00000000000E+00  0.53986925349E+03  0.53986925349E+03  0.00000000000E+00 0. -1.
         21   -1    0    0  502  503 -0.00000000000E+00 -0.00000000000E+00 -0.72354773647E+01  0.72354773647E+01  0.00000000000E+00 0. -1.
         25    2    1    2    0    0  0.00000000000E+00  0.00000000000E+00  0.53263377613E+03  0.54710473086E+03  0.12499938822E+03 0.  0.
          4    1    3    3  501    0 -0.17403643788E+01 -0.40937988136E+02  0.47276650214E+03  0.47454137416E+03  0.15500000000E+01 0.  1.
         -4    1    3    3    0  501  0.17403643788E+01  0.40937988136E+02  0.59867273983E+02  0.72563356696E+02  0.15500000000E+01 0.  1.
<mgrwt>
<rscale>  2 0.12499939E+03</rscale>
<asrwt>0</asrwt>
<pdfrwt beam="1">  1       21 0.83056777E-01 0.12499939E+03</pdfrwt>
<pdfrwt beam="2">  1       21 0.11131508E-02 0.12499939E+03</pdfrwt>
<totfact> 0.39600125E+06</totfact>
</mgrwt>
</event>
<event>
 5    0  0.1501041E+000  0.1250031E+03  0.7546771E-02  0.1235064E+00
         21   -1    0    0  503  502  0.00000000000E+00  0.00000000000E+00  0.15514941913E+02  0.15514941913E+02  0.00000000000E+00 0.  1.
         21   -1    0    0  502  503 -0.00000000000E+00 -0.00000000000E+00 -0.25178584848E+03  0.25178584848E+03  0.00000000000E+00 0.  1.
         25    2    1    2    0    0  0.00000000000E+00  0.00000000000E+00 -0.23627090657E+03  0.26730079039E+03  0.12500308498E+03 0.  0.
          4    1    3    3  501    0 -0.56860725204E+02 -0.24566505956E+02 -0.10058205455E+03  0.11813470059E+03  0.15500000000E+01 0.  1.
         -4    1    3    3    0  501  0.56860725204E+02  0.24566505956E+02 -0.13568885202E+03  0.14916608980E+03  0.15500000000E+01 0.  1.
<mgrwt>
<rscale>  2 0.12500308E+03</rscale>
<asrwt>0</asrwt>
<pdfrwt beam="1">  1       21 0.23869142E-02 0.12500308E+03</pdfrwt>
<pdfrwt beam="2">  1       21 0.38736283E-01 0.12500308E+03</pdfrwt>
<totfact> 0.58281983E+06</totfact>
</mgrwt>
</event>
<event>
 5    0  0.1222151E+000  0.1250010E+03  0.7546771E-02  0.1235068E+00
         21   -1    0    0  503  502  0.00000000000E+00  0.00000000000E+00  0.96518498269E+03  0.96518498269E+03  0.00000000000E+00 0. -1.
         21   -1    0    0  502  503 -0.00000000000E+00 -0.00000000000E+00 -0.40472151210E+01  0.40472151210E+01  0.00000000000E+00 0. -1.
         25    2    1    2    0    0  0.00000000000E+00  0.00000000000E+00  0.96113776757E+03  0.96923219781E+03  0.12500098010E+03 0.  0.
          4    1    3    3  501    0  0.29879673066E+02  0.40076274813E+02  0.77120763460E+03  0.77282761391E+03  0.15500000000E+01 0. -1.
         -4    1    3    3    0  501 -0.29879673066E+02 -0.40076274813E+02  0.18993013297E+03  0.19640458390E+03  0.15500000000E+01 0. -1.
<mgrwt>
<rscale>  2 0.12500098E+03</rscale>
<asrwt>0</asrwt>
<pdfrwt beam="1">  1       21 0.14848981E+00 0.12500098E+03</pdfrwt>
<pdfrwt beam="2">  1       21 0.62264925E-03 0.12500098E+03</pdfrwt>
<totfact> 0.24402902E+06</totfact>
</mgrwt>
</event>
<event>
 5    0  0.1385986E+000  0.1250048E+03  0.7546771E-02  0.1235062E+00
         21   -1    0    0  503  502  0.00000000000E+00  0.00000000000E+00  0.13030441687E+02  0.13030441687E+02  0.00000000000E+00 0.  1.
         21   -1    0    0  502  503 -0.00000000000E+00 -0.00000000000E+00 -0.29980182613E+03  0.29980182613E+03  0.00000000000E+00 0.  1.
         25    2    1    2    0    0  0.00000000000E+00  0.00000000000E+00 -0.28677138444E+03  0.31283226782E+03  0.12500480332E+03 0.  0.
          4    1    3    3  501    0 -0.45412547453E+02 -0.38017439021E+02 -0.93552489233E+02  0.11073434823E+03  0.15500000000E+01 0. -1.
         -4    1    3    3    0  501  0.45412547453E+02  0.38017439021E+02 -0.19321889521E+03  0.20209791959E+03  0.15500000000E+01 0. -1.
<mgrwt>
<rscale>  2 0.12500480E+03</rscale>
<asrwt>0</asrwt>
<pdfrwt beam="1">  1       21 0.20046835E-02 0.12500480E+03</pdfrwt>
<pdfrwt beam="2">  1       21 0.46123354E-01 0.12500480E+03</pdfrwt>
<totfact> 0.54399725E+06</totfact>
</mgrwt>
</event>
<event>
 5    0  0.1468460E+000  0.1249977E+03  0.7546771E-02  0.1235073E+00
         21   -1    0    0  503  502  0.00000000000E+00  0.00000000000E+00  0.18823470526E+02  0.18823470526E+02  0.00000000000E+00 0.  1.
         21   -1    0    0  502  503 -0.00000000000E+00 -0.00000000000E+00 -0.20751241149E+03  0.20751241149E+03  0.00000000000E+00 0.  1.
         25    2    1    2    0    0  0.00000000000E+00  0.00000000000E+00 -0.18868894096E+03  0.22633588201E+03  0.12499766016E+03 0.  0.
          4    1    3    3  501    0  0.38115884152E+02 -0.45469155588E+02 -0.12980116678E+03  0.14272704766E+03  0.15500000000E+01 0.  1.
         -4    1    3    3    0  501 -0.38115884152E+02  0.45469155588E+02 -0.58887774177E+02  0.83608834355E+02  0.15500000000E+01 0.  1.
<mgrwt>
<rscale>  2 0.12499766E+03</rscale>
<asrwt>0</asrwt>
<pdfrwt beam="1">  1       21 0.28959185E-02 0.12499766E+03</pdfrwt>
<pdfrwt beam="2">  1       21 0.31924986E-01 0.12499766E+03</pdfrwt>
<totfact> 0.62184197E+06</totfact>
</mgrwt>
</event>
<event>
 5    0  0.1404553E+000  0.1250016E+03  0.7546771E-02  0.1235067E+00
         21   -1    0    0  503  502  0.00000000000E+00  0.00000000000E+00  0.20937014491E+03  0.20937014491E+03  0.00000000000E+00 0.  1.
         21   -1    0    0  502  503 -0.00000000000E+00 -0.00000000000E+00 -0.18657635814E+02  0.18657635814E+02  0.00000000000E+00 0.  1.
         25    2    1    2    0    0  0.00000000000E+00  0.00000000000E+00  0.19071250909E+03  0.22802778072E+03  0.12500163061E+03 0.  0.
          4    1    3    3  501    0 -0.28859858459E+02 -0.34459759194E+02  0.16185558900E+02  0.47798967049E+02  0.15500000000E+01 0.  1.
         -4    1    3    3    0  501  0.28859858459E+02  0.34459759194E+02  0.17452695019E+03  0.18022881367E+03  0.15500000000E+01 0.  1.
<mgrwt>
<rscale>  2 0.12500163E+03</rscale>
<asrwt>0</asrwt>
<pdfrwt beam="1">  1       21 0.32210790E-01 0.12500163E+03</pdfrwt>
<pdfrwt beam="2">  1       21 0.28704057E-02 0.12500163E+03</pdfrwt>
<totfact> 0.62008247E+06</totfact>
</mgrwt>
</event>
<event>
 5    0  0.1434758E+000  0.1249910E+03  0.7546771E-02  0.1235083E+00
         21   -1    0    0  503  502  0.00000000000E+00  0.00000000000E+00  0.11563991368E+03  0.11563991368E+03  0.00000000000E+00 0. -1.
         21   -1    0    0  502  503 -0.00000000000E+00 -0.00000000000E+00 -0.33774560377E+02  0.33774560377E+02  0.00000000000E+00 0. -1.
         25    2    1    2    0    0  0.00000000000E+00  0.00000000000E+00  0.81865353299E+02  0.14941447405E+03  0.12499099562E+03 0.  0.
          4    1    3    3  501    0  0.36545047139E+02 -0.21193409142E+02 -0.14089371767E+02  0.44560228435E+02  0.15500000000E+01 0. -1.
         -4    1    3    3    0  501 -0.36545047139E+02  0.21193409142E+02  0.95954725065E+02  0.10485424562E+03  0.15500000000E+01 0. -1.
<mgrwt>
<rscale>  2 0.12499100E+03</rscale>
<asrwt>0</asrwt>
<pdfrwt beam="1">  1       21 0.17790756E-01 0.12499100E+03</pdfrwt>
<pdfrwt beam="2">  1       21 0.51960863E-02 0.12499100E+03</pdfrwt>
<totfact> 0.70849070E+06</totfact>
</mgrwt>
</event>
<event>
 5    0  0.1411414E+000  0.1250614E+03  0.7546771E-02  0.1234973E+00
         21   -1    0    0  503  502  0.00000000000E+00  0.00000000000E+00  0.28403462732E+03  0.28403462732E+03  0.00000000000E+00 0.  1.
         21   -1    0    0  502  503 -0.00000000000E+00 -0.00000000000E+00 -0.13766232776E+02  0.13766232776E+02  0.00000000000E+00 0.  1.
         25    2    1    2    0    0  0.00000000000E+00  0.00000000000E+00  0.27026839454E+03  0.29780086010E+03  0.12506137367E+03 0.  0.
          4    1    3    3  501    0 -0.42720905329E+02  0.34350311660E+02  0.63591391808E+02  0.83971943382E+02  0.15500000000E+01 0.  1.
         -4    1    3    3    0  501  0.42720905329E+02 -0.34350311660E+02  0.20667700274E+03  0.21382891671E+03  0.15500000000E+01 0.  1.
<mgrwt>
<rscale>  2 0.12506137E+03</rscale>
<asrwt>0</asrwt>
<pdfrwt beam="1">  1       21 0.43697631E-01 0.12506137E+03</pdfrwt>
<pdfrwt beam="2">  1       21 0.21178822E-02 0.12506137E+03</pdfrwt>
<totfact> 0.55553704E+06</totfact>
</mgrwt>
</event>
<event>
 4    0  0.1950993E+000  0.1248878E+03  0.7546771E-02  0.1235245E+00
         21   -1    0    0  503  502  0.00000000000E+00  0.00000000000E+00  0.14285368924E+03  0.14285368924E+03  0.00000000000E+00 0. -1.
         21   -1    0    0  502  503 -0.00000000000E+00 -0.00000000000E+00 -0.27295356648E+02  0.27295356648E+02  0.00000000000E+00 0. -1.
          4    1    1    2  501    0 -0.49797045663E+02  0.37597608513E+02  0.55225238292E+02  0.83339998602E+02  0.15500000000E+01 0.  1.
         -4    1    1    2    0  501  0.49797045663E+02 -0.37597608513E+02  0.60333094295E+02  0.86809047281E+02  0.15500000000E+01 0.  1.
<mgrwt>
<rscale>  2 0.12488783E+03</rscale>
<asrwt>0</asrwt>
<pdfrwt beam="1">  1       21 0.21977490E-01 0.12488783E+03</pdfrwt>
<pdfrwt beam="2">  1       21 0.41992857E-02 0.12488783E+03</pdfrwt>
<totfact> 0.68494823E+06</totfact>
</mgrwt>
</event>
<event>
 5    0  0.1496883E+000  0.1250072E+03  0.7546771E-02  0.1235058E+00
         21   -1    0    0  503  502  0.00000000000E+00  0.00000000000E+00  0.12723445401E+03  0.12723445401E+03  0.00000000000E+00 0. -1.
         21   -1    0    0  502  503 -0.00000000000E+00 -0.00000000000E+00 -0.30704746296E+02  0.30704746296E+02  0.00000000000E+00 0. -1.
         25    2    1    2    0    0  0.00000000000E+00  0.00000000000E+00  0.96529707711E+02  0.15793920030E+03  0.12500722588E+03 0.  0.
          4    1    3    3  501    0 -0.44554937029E+02 -0.31427062239E+02  0.97041080339E+01  0.55401939202E+02  0.15500000000E+01 0. -1.
         -4    1    3    3    0  501  0.44554937029E+02  0.31427062239E+02  0.86825599677E+02  0.10253726110E+03  0.15500000000E+01 0. -1.
<mgrwt>
<rscale>  2 0.12500723E+03</rscale>
<asrwt>0</asrwt>
<pdfrwt beam="1">  1       21 0.19574531E-01 0.12500723E+03</pdfrwt>
<pdfrwt beam="2">  1       21 0.47238072E-02 0.12500723E+03</pdfrwt>
<totfact> 0.69759365E+06</totfact>
</mgrwt>
</event>
<event>
 5    0  0.1387067E+000  0.1249980E+03  0.7546771E-02  0.1235072E+00
         21   -1    0    0  503  502  0.00000000000E+00  0.00000000000E+00  0.78347129564E+01  0.78347129564E+01  0.00000000000E+00 0. -1.
         21   -1    0    0  502  503 -0.00000000000E+00 -0.00000000000E+00 -0.49856647533E+03  0.49856647533E+03  0.00000000000E+00 0. -1.
         25    2    1    2    0    0  0.00000000000E+00  0.00000000000E+00 -0.49073176237E+03  0.50640118829E+03  0.12499800357E+03 0.  0.
          4    1    3    3  501    0 -0.58552294196E+02 -0.17872745788E+02 -0.19477902215E+03  0.20417902969E+03  0.15500000000E+01 0.  1.
         -4    1    3    3    0  501  0.58552294196E+02  0.17872745788E+02 -0.29595274023E+03  0.30222215859E+03  0.15500000000E+01 0.  1.
<mgrwt>
<rscale>  2 0.12499800E+03</rscale>
<asrwt>0</asrwt>
<pdfrwt beam="1">  1       21 0.12053401E-02 0.12499800E+03</pdfrwt>
<pdfrwt beam="2">  1       21 0.76702557E-01 0.12499800E+03</pdfrwt>
<totfact> 0.41701099E+06</totfact>
</mgrwt>
</event>
<event>
 5    0  0.1414408E+000  0.1249942E+03  0.7546771E-02  0.1235078E+00
         21   -1    0    0  503  502  0.00000000000E+00  0.00000000000E+00  0.95842250475E+01  0.95842250475E+01  0.00000000000E+00 0. -1.
         21   -1    0    0  502  503 -0.00000000000E+00 -0.00000000000E+00 -0.40753273999E+03  0.40753273999E+03  0.00000000000E+00 0. -1.
         25    2    1    2    0    0  0.00000000000E+00  0.00000000000E+00 -0.39794851494E+03  0.41711696504E+03  0.12499416777E+03 0.  0.
          4    1    3    3  501    0 -0.84853189384E+01  0.59495743339E+02 -0.25597299825E+03  0.26293786803E+03  0.15500000000E+01 0.  1.
         -4    1    3    3    0  501  0.84853189384E+01 -0.59495743339E+02 -0.14197551670E+03  0.15417909701E+03  0.15500000000E+01 0.  1.
<mgrwt>
<rscale>  2 0.12499417E+03</rscale>
<asrwt>0</asrwt>
<pdfrwt beam="1">  1       21 0.14744959E-02 0.12499417E+03</pdfrwt>
<pdfrwt beam="2">  1       21 0.62697356E-01 0.12499417E+03</pdfrwt>
<totfact> 0.46933177E+06</totfact>
</mgrwt>
</event>
<event>
 5    0  0.1432249E+000  0.1249999E+03  0.7546771E-02  0.1235069E+00
         21   -1    0    0  503  502  0.00000000000E+00  0.00000000000E+00  0.30015213566E+02  0.30015213566E+02  0.00000000000E+00 0.  1.
         21   -1    0    0  502  503 -0.00000000000E+00 -0.00000000000E+00 -0.13014221497E+03  0.13014221497E+03  0.00000000000E+00 0.  1.
         25    2    1    2    0    0  0.00000000000E+00  0.00000000000E+00 -0.10012700140E+03  0.16015742853E+03  0.12499994202E+03 0.  0.
          4    1    3    3  501    0 -0.17769795064E+02  0.28187344959E+02  0.17656295654E+02  0.37741744907E+02  0.15500000000E+01 0.  1.
         -4    1    3    3    0  501  0.17769795064E+02 -0.28187344959E+02 -0.11778329705E+03  0.12241568362E+03  0.15500000000E+01 0.  1.
<mgrwt>
<rscale>  2 0.12499994E+03</rscale>
<asrwt>0</asrwt>
<pdfrwt beam="1">  1       21 0.46177252E-02 0.12499994E+03</pdfrwt>
<pdfrwt beam="2">  1       21 0.20021879E-01 0.12499994E+03</pdfrwt>
<totfact> 0.69500367E+06</totfact>
</mgrwt>
</event>
<event>
 5    0  0.1528707E+000  0.1250195E+03  0.7546771E-02  0.1235039E+00
         21   -1    0    0  503  502  0.00000000000E+00  0.00000000000E+00  0.16194225999E+02  0.16194225999E+02  0.00000000000E+00 0.  1.
         21   -1    0    0  502  503 -0.00000000000E+00 -0.00000000000E+00 -0.24128764413E+03  0.24128764413E+03  0.00000000000E+00 0.  1.
         25    2    1    2    0    0  0.00000000000E+00  0.00000000000E+00 -0.22509341813E+03  0.25748187013E+03  0.12501946472E+03 0.  0.
          4    1    3    3  501    0 -0.57451643682E+02  0.11990897846E+02 -0.68346246668E+02  0.90100415795E+02  0.15500000000E+01 0.  1.
         -4    1    3    3    0  501  0.57451643682E+02 -0.11990897846E+02 -0.15674717147E+03  0.16738145434E+03  0.15500000000E+01 0.  1.
<mgrwt>
<rscale>  2 0.12501946E+03</rscale>
<asrwt>0</asrwt>
<pdfrwt beam="1">  1       21 0.24914196E-02 0.12501946E+03</pdfrwt>
<pdfrwt beam="2">  1       21 0.37121173E-01 0.12501946E+03</pdfrwt>
<totfact> 0.59151835E+06</totfact>
</mgrwt>
</event>
<event>
 5    0  0.1680003E+000  0.1249974E+03  0.7546771E-02  0.1235073E+00
         21   -1    0    0  503  502  0.00000000000E+00  0.00000000000E+00  0.84632589404E+02  0.84632589404E+02  0.00000000000E+00 0. -1.
         21   -1    0    0  502  503 -0.00000000000E+00 -0.00000000000E+00 -0.46153473813E+02  0.46153473813E+02  0.00000000000E+00 0. -1.
         25    2    1    2    0    0  0.00000000000E+00  0.00000000000E+00  0.38479115590E+02  0.13078606322E+03  0.12499740795E+03 0.  0.
          4    1    3    3  501    0  0.39562177454E+02  0.48187680518E+02  0.14993670156E+02  0.64143831218E+02  0.15500000000E+01 0.  1.
         -4    1    3    3    0  501 -0.39562177454E+02 -0.48187680518E+02  0.23485445434E+02  0.66642231999E+02  0.15500000000E+01 0.  1.
<mgrwt>
<rscale>  2 0.12499741E+03</rscale>
<asrwt>0</asrwt>
<pdfrwt beam="1">  1       21 0.13020398E-01 0.12499741E+03</pdfrwt>
<pdfrwt beam="2">  1       21 0.71005344E-02 0.12499741E+03</pdfrwt>
<totfact> 0.73264360E+06</totfact>
</mgrwt>
</event>
<event>
 5    0  0.1434132E+000  0.1250013E+03  0.7546771E-02  0.1235067E+00
         21   -1    0    0  503  502  0.00000000000E+00  0.00000000000E+00  0.27067000193E+03  0.27067000193E+03  0.00000000000E+00 0.  1.
         21   -1    0    0  502  503 -0.00000000000E+00 -0.00000000000E+00 -0.14432089684E+02  0.14432089684E+02  0.00000000000E+00 0.  1.
         25    2    1    2    0    0  0.00000000000E+00  0.00000000000E+00  0.25623791225E+03  0.28510209162E+03  0.12500133987E+03 0.  0.
          4    1    3    3  501    0 -0.14459772938E+02 -0.53425218600E+02  0.19424589517E+03  0.20198319065E+03  0.15500000000E+01 0.  1.
         -4    1    3    3    0  501  0.14459772938E+02  0.53425218600E+02  0.61992017077E+02  0.83118900962E+02  0.15500000000E+01 0.  1.
<mgrwt>
<rscale>  2 0.12500134E+03</rscale>
<asrwt>0</asrwt>
<pdfrwt beam="1">  1       21 0.41641535E-01 0.12500134E+03</pdfrwt>
<pdfrwt beam="2">  1       21 0.22203217E-02 0.12500134E+03</pdfrwt>
<totfact> 0.56715519E+06</totfact>
</mgrwt>
</event>
<event>
 5    0  0.1222151E+000  0.1249997E+03  0.7546771E-02  0.1235070E+00
         21   -1    0    0  503  502  0.00000000000E+00  0.00000000000E+00  0.26118182759E+01  0.26118182759E+01  0.00000000000E+00 0. -1.
         21   -1    0    0  502  503 -0.00000000000E+00 -0.00000000000E+00 -0.14955987066E+04  0.14955987066E+04  0.00000000000E+00 0. -1.
         25    2    1    2    0    0  0.00000000000E+00  0.00000000000E+00 -0.14929868883E+04  0.14982105249E+04  0.12499971257E+03 0.  0.
          4    1    3    3  501    0 -0.38804492572E+02 -0.41420648999E+02 -0.43339996432E+03  0.43710340925E+03  0.15500000000E+01 0.  1.
         -4    1    3    3    0  501  0.38804492572E+02  0.41420648999E+02 -0.10595869240E+04  0.10611071157E+04  0.15500000000E+01 0.  1.
<mgrwt>
<rscale>  2 0.12499971E+03</rscale>
<asrwt>0</asrwt>
<pdfrwt beam="1">  1       21 0.40181828E-03 0.12499971E+03</pdfrwt>
<pdfrwt beam="2">  1       21 0.23009206E+00 0.12499971E+03</pdfrwt>
<totfact> 0.14019768E+06</totfact>
</mgrwt>
</event>
<event>
 5    0  0.1496558E+000  0.1250001E+03  0.7546771E-02  0.1235069E+00
         21   -1    0    0  503  502  0.00000000000E+00  0.00000000000E+00  0.22359525113E+02  0.22359525113E+02  0.00000000000E+00 0.  1.
         21   -1    0    0  502  503 -0.00000000000E+00 -0.00000000000E+00 -0.17470224652E+03  0.17470224652E+03  0.00000000000E+00 0.  1.
         25    2    1    2    0    0  0.00000000000E+00  0.00000000000E+00 -0.15234272141E+03  0.19706177163E+03  0.12500014829E+03 0.  0.
          4    1    3    3  501    0  0.22373803925E+02  0.58186826105E+02 -0.69564572411E+02  0.93423370036E+02  0.15500000000E+01 0.  1.
         -4    1    3    3    0  501 -0.22373803925E+02 -0.58186826105E+02 -0.82778148998E+02  0.10363840160E+03  0.15500000000E+01 0.  1.
<mgrwt>
<rscale>  2 0.12500015E+03</rscale>
<asrwt>0</asrwt>
<pdfrwt beam="1">  1       21 0.34399267E-02 0.12500015E+03</pdfrwt>
<pdfrwt beam="2">  1       21 0.26877271E-01 0.12500015E+03</pdfrwt>
<totfact> 0.65245825E+06</totfact>
</mgrwt>
</event>
<event>
 5    0  0.1633558E+000  0.1250204E+03  0.7546771E-02  0.1235037E+00
         21   -1    0    0  503  502  0.00000000000E+00  0.00000000000E+00  0.37506247404E+02  0.37506247404E+02  0.00000000000E+00 0. -1.
         21   -1    0    0  502  503 -0.00000000000E+00 -0.00000000000E+00 -0.10418339453E+03  0.10418339453E+03  0.00000000000E+00 0. -1.
         25    2    1    2    0    0  0.00000000000E+00  0.00000000000E+00 -0.66677147129E+02  0.14168964194E+03  0.12502044906E+03 0.  0.
          4    1    3    3  501    0 -0.52239823637E+02 -0.31376755618E+02 -0.17649982965E+02  0.63461991502E+02  0.15500000000E+01 0. -1.
         -4    1    3    3    0  501  0.52239823637E+02  0.31376755618E+02 -0.49027164164E+02  0.78227650436E+02  0.15500000000E+01 0. -1.
<mgrwt>
<rscale>  2 0.12502045E+03</rscale>
<asrwt>0</asrwt>
<pdfrwt beam="1">  1       21 0.57701919E-02 0.12502045E+03</pdfrwt>
<pdfrwt beam="2">  1       21 0.16028215E-01 0.12502045E+03</pdfrwt>
<totfact> 0.71782090E+06</totfact>
</mgrwt>
</event>
<event>
 5    0  0.1222151E+000  0.1249977E+03  0.7546771E-02  0.1235073E+00
         21   -1    0    0  503  502  0.00000000000E+00  0.00000000000E+00  0.32695727629E+01  0.32695727629E+01  0.00000000000E+00 0. -1.
         21   -1    0    0  502  503 -0.00000000000E+00 -0.00000000000E+00 -0.11946838035E+04  0.11946838035E+04  0.00000000000E+00 0. -1.
         25    2    1    2    0    0  0.00000000000E+00  0.00000000000E+00 -0.11914142308E+04  0.11979533763E+04  0.12499768997E+03 0.  0.
          4    1    3    3  501    0 -0.21595315019E+02 -0.58521960164E+02 -0.56178847393E+03  0.56524319491E+03  0.15500000000E+01 0.  1.
         -4    1    3    3    0  501  0.21595315019E+02  0.58521960164E+02 -0.62962575684E+03  0.63271018139E+03  0.15500000000E+01 0.  1.
<mgrwt>
<rscale>  2 0.12499769E+03</rscale>
<asrwt>0</asrwt>
<pdfrwt beam="1">  1       21 0.50301009E-03 0.12499769E+03</pdfrwt>
<pdfrwt beam="2">  1       21 0.18379791E+00 0.12499769E+03</pdfrwt>
<totfact> 0.19185243E+06</totfact>
</mgrwt>
</event>
<event>
 5    0  0.1382403E+000  0.1250014E+03  0.7546771E-02  0.1235067E+00
         21   -1    0    0  503  502  0.00000000000E+00  0.00000000000E+00  0.11165634483E+02  0.11165634483E+02  0.00000000000E+00 0. -1.
         21   -1    0    0  502  503 -0.00000000000E+00 -0.00000000000E+00 -0.34985356494E+03  0.34985356494E+03  0.00000000000E+00 0. -1.
         25    2    1    2    0    0  0.00000000000E+00  0.00000000000E+00 -0.33868793045E+03  0.36101919942E+03  0.12500139245E+03 0.  0.
          4    1    3    3  501    0  0.18439348894E+02 -0.58493778150E+02 -0.20380868901E+03  0.21284246730E+03  0.15500000000E+01 0. -1.
         -4    1    3    3    0  501 -0.18439348894E+02  0.58493778150E+02 -0.13487924145E+03  0.14817673212E+03  0.15500000000E+01 0. -1.
<mgrwt>
<rscale>  2 0.12500139E+03</rscale>
<asrwt>0</asrwt>
<pdfrwt beam="1">  1       21 0.17177899E-02 0.12500139E+03</pdfrwt>
<pdfrwt beam="2">  1       21 0.53823625E-01 0.12500139E+03</pdfrwt>
<totfact> 0.50733019E+06</totfact>
</mgrwt>
</event>
<event>
 5    0  0.1524393E+000  0.1250003E+03  0.7546771E-02  0.1235069E+00
         21   -1    0    0  503  502  0.00000000000E+00  0.00000000000E+00  0.10090373723E+03  0.10090373723E+03  0.00000000000E+00 0. -1.
         21   -1    0    0  502  503 -0.00000000000E+00 -0.00000000000E+00 -0.38712840007E+02  0.38712840007E+02  0.00000000000E+00 0. -1.
         25    2    1    2    0    0  0.00000000000E+00  0.00000000000E+00  0.62190897221E+02  0.13961657723E+03  0.12500032377E+03 0.  0.
          4    1    3    3  501    0 -0.30807054599E+02 -0.49524788071E+02  0.56122862817E+02  0.80956515966E+02  0.15500000000E+01 0.  1.
         -4    1    3    3    0  501  0.30807054599E+02  0.49524788071E+02  0.60680344046E+01  0.58660061269E+02  0.15500000000E+01 0.  1.
<mgrwt>
<rscale>  2 0.12500032E+03</rscale>
<asrwt>0</asrwt>
<pdfrwt beam="1">  1       21 0.15523652E-01 0.12500032E+03</pdfrwt>
<pdfrwt beam="2">  1       21 0.59558216E-02 0.12500032E+03</pdfrwt>
<totfact> 0.72088808E+06</totfact>
</mgrwt>
</event>
<event>
 5    0  0.1410878E+000  0.1249945E+03  0.7546771E-02  0.1235078E+00
         21   -1    0    0  503  502  0.00000000000E+00  0.00000000000E+00  0.10573018363E+02  0.10573018363E+02  0.00000000000E+00 0. -1.
         21   -1    0    0  502  503 -0.00000000000E+00 -0.00000000000E+00 -0.36942181879E+03  0.36942181879E+03  0.00000000000E+00 0. -1.
         25    2    1    2    0    0  0.00000000000E+00  0.00000000000E+00 -0.35884880043E+03  0.37999483716E+03  0.12499445866E+03 0.  0.
          4    1    3    3  501    0 -0.16050645332E+02 -0.49265372019E+02 -0.28555811151E+03  0.29022497763E+03  0.15500000000E+01 0.  1.
         -4    1    3    3    0  501  0.16050645332E+02  0.49265372019E+02 -0.73290688922E+02  0.89769859521E+02  0.15500000000E+01 0.  1.
<mgrwt>
<rscale>  2 0.12499446E+03</rscale>
<asrwt>0</asrwt>
<pdfrwt beam="1">  1       21 0.16266183E-02 0.12499446E+03</pdfrwt>
<pdfrwt beam="2">  1       21 0.56834121E-01 0.12499446E+03</pdfrwt>
<totfact> 0.49403543E+06</totfact>
</mgrwt>
</event>
<event>
 5    0  0.1575311E+000  0.1249998E+03  0.7546771E-02  0.1235070E+00
         21   -1    0    0  503  502  0.00000000000E+00  0.00000000000E+00  0.54688779165E+02  0.54688779165E+02  0.00000000000E+00 0. -1.
         21   -1    0    0  502  503 -0.00000000000E+00 -0.00000000000E+00 -0.71426640605E+02  0.71426640605E+02  0.00000000000E+00 0. -1.
         25    2    1    2    0    0  0.00000000000E+00  0.00000000000E+00 -0.16737861440E+02  0.12611541977E+03  0.12499977239E+03 0.  0.
          4    1    3    3  501    0 -0.57305566549E+02  0.15720525837E+02 -0.27848514287E+02  0.65643012866E+02  0.15500000000E+01 0. -1.
         -4    1    3    3    0  501  0.57305566549E+02 -0.15720525837E+02  0.11110652846E+02  0.60472406904E+02  0.15500000000E+01 0. -1.
<mgrwt>
<rscale>  2 0.12499977E+03</rscale>
<asrwt>0</asrwt>
<pdfrwt beam="1">  1       21 0.84136584E-02 0.12499977E+03</pdfrwt>
<pdfrwt beam="2">  1       21 0.10988714E-01 0.12499977E+03</pdfrwt>
<totfact> 0.73890569E+06</totfact>
</mgrwt>
</event>
<event>
 5    0  0.1391621E+000  0.1250012E+03  0.7546771E-02  0.1235067E+00
         21   -1    0    0  503  502  0.00000000000E+00  0.00000000000E+00  0.31830904120E+03  0.31830904120E+03  0.00000000000E+00 0.  1.
         21   -1    0    0  502  503 -0.00000000000E+00 -0.00000000000E+00 -0.12272119028E+02  0.12272119028E+02  0.00000000000E+00 0.  1.
         25    2    1    2    0    0  0.00000000000E+00  0.00000000000E+00  0.30603692217E+03  0.33058116023E+03  0.12500122305E+03 0.  0.
          4    1    3    3  501    0  0.39855379985E+02 -0.29873865860E+02  0.25278159112E+03  0.25764672419E+03  0.15500000000E+01 0.  1.
         -4    1    3    3    0  501 -0.39855379985E+02  0.29873865860E+02  0.53255331054E+02  0.72934436042E+02  0.15500000000E+01 0.  1.
<mgrwt>
<rscale>  2 0.12500122E+03</rscale>
<asrwt>0</asrwt>
<pdfrwt beam="1">  1       21 0.48970615E-01 0.12500122E+03</pdfrwt>
<pdfrwt beam="2">  1       21 0.18880186E-02 0.12500122E+03</pdfrwt>
<totfact> 0.53003727E+06</totfact>
</mgrwt>
</event>
<event>
 5    0  0.1477573E+000  0.1250076E+03  0.7546771E-02  0.1235057E+00
         21   -1    0    0  503  502  0.00000000000E+00  0.00000000000E+00  0.24008832826E+02  0.24008832826E+02  0.00000000000E+00 0. -1.
         21   -1    0    0  502  503 -0.00000000000E+00 -0.00000000000E+00 -0.16272034800E+03  0.16272034800E+03  0.00000000000E+00 0. -1.
         25    2    1    2    0    0  0.00000000000E+00  0.00000000000E+00 -0.13871151517E+03  0.18672918083E+03  0.12500760989E+03 0.  0.
          4    1    3    3  501    0 -0.49936947788E+02 -0.28783879455E+02 -0.10539529959E+03  0.12013651462E+03  0.15500000000E+01 0. -1.
         -4    1    3    3    0  501  0.49936947788E+02  0.28783879455E+02 -0.33316215589E+02  0.66592666203E+02  0.15500000000E+01 0. -1.
<mgrwt>
<rscale>  2 0.12500761E+03</rscale>
<asrwt>0</asrwt>
<pdfrwt beam="1">  1       21 0.36936665E-02 0.12500761E+03</pdfrwt>
<pdfrwt beam="2">  1       21 0.25033900E-01 0.12500761E+03</pdfrwt>
<totfact> 0.66375038E+06</totfact>
</mgrwt>
</event>
<event>
 5    0  0.1222151E+000  0.1249964E+03  0.7546771E-02  0.1235075E+00
         21   -1    0    0  503  502  0.00000000000E+00  0.00000000000E+00  0.75016175100E+03  0.75016175100E+03  0.00000000000E+00 0. -1.
         21   -1    0    0  502  503 -0.00000000000E+00 -0.00000000000E+00 -0.52069111872E+01  0.52069111872E+01  0.00000000000E+00 0. -1.
         25    2    1    2    0    0  0.00000000000E+00  0.00000000000E+00  0.74495483981E+03  0.75536866218E+03  0.12499640976E+03 0.  0.
          4    1    3    3  501    0 -0.34709261254E+02  0.41989606391E+02  0.18761679476E+03  0.19537227039E+03  0.15500000000E+01 0. -1.
         -4    1    3    3    0  501  0.34709261254E+02 -0.41989606391E+02  0.55733804504E+03  0.55999639179E+03  0.15500000000E+01 0. -1.
<mgrwt>
<rscale>  2 0.12499641E+03</rscale>
<asrwt>0</asrwt>
<pdfrwt beam="1">  1       21 0.11540941E+00 0.12499641E+03</pdfrwt>
<pdfrwt beam="2">  1       21 0.80106386E-03 0.12499641E+03</pdfrwt>
<totfact> 0.30883698E+06</totfact>
</mgrwt>
</event>
<event>
 5    0  0.1518723E+000  0.1249973E+03  0.7546771E-02  0.1235074E+00
         21   -1    0    0  503  502  0.00000000000E+00  0.00000000000E+00  0.17795495827E+02  0.17795495827E+02  0.00000000000E+00 0. -1.
         21   -1    0    0  502  503 -0.00000000000E+00 -0.00000000000E+00 -0.21949822334E+03  0.21949822334E+03  0.00000000000E+00 0. -1.
         25    2    1    2    0    0  0.00000000000E+00  0.00000000000E+00 -0.20170272752E+03  0.23729371917E+03  0.12499727545E+03 0.  0.
          4    1    3    3  501    0  0.19309468328E+02  0.48684981286E+02 -0.16552479503E+03  0.17362011185E+03  0.15500000000E+01 0. -1.
         -4    1    3    3    0  501 -0.19309468328E+02 -0.48684981286E+02 -0.36177932488E+02  0.63673607319E+02  0.15500000000E+01 0. -1.
<mgrwt>
<rscale>  2 0.12499728E+03</rscale>
<asrwt>0</asrwt>
<pdfrwt beam="1">  1       21 0.27377686E-02 0.12499728E+03</pdfrwt>
<pdfrwt beam="2">  1       21 0.33768958E-01 0.12499728E+03</pdfrwt>
<totfact> 0.61099730E+06</totfact>
</mgrwt>
</event>
<event>
 5    0  0.1537975E+000  0.1250046E+03  0.7546771E-02  0.1235062E+00
         21   -1    0    0  503  502  0.00000000000E+00  0.00000000000E+00  0.45462547052E+02  0.45462547052E+02  0.00000000000E+00 0. -1.
         21   -1    0    0  502  503 -0.00000000000E+00 -0.00000000000E+00 -0.85928738247E+02  0.85928738247E+02  0.00000000000E+00 0. -1.
         25    2    1    2    0    0  0.00000000000E+00  0.00000000000E+00 -0.40466191195E+02  0.13139128530E+03  0.12500462881E+03 0.  0.
          4    1    3    3  501    0 -0.49719474045E+02 -0.28257300380E+02 -0.46691294619E+02  0.73844299829E+02  0.15500000000E+01 0. -1.
         -4    1    3    3    0  501  0.49719474045E+02  0.28257300380E+02  0.62251034237E+01  0.57546985470E+02  0.15500000000E+01 0. -1.
<mgrwt>
<rscale>  2 0.12500463E+03</rscale>
<asrwt>0</asrwt>
<pdfrwt beam="1">  1       21 0.69942380E-02 0.12500463E+03</pdfrwt>
<pdfrwt beam="2">  1       21 0.13219806E-01 0.12500463E+03</pdfrwt>
<totfact> 0.73169350E+06</totfact>
</mgrwt>
</event>
<event>
 5    0  0.1352517E+000  0.1250027E+03  0.7546771E-02  0.1235065E+00
         21   -1    0    0  503  502  0.00000000000E+00  0.00000000000E+00  0.12992630382E+02  0.12992630382E+02  0.00000000000E+00 0.  1.
         21   -1    0    0  502  503 -0.00000000000E+00 -0.00000000000E+00 -0.30066436723E+03  0.30066436723E+03  0.00000000000E+00 0.  1.
         25    2    1    2    0    0  0.00000000000E+00  0.00000000000E+00 -0.28767173685E+03  0.31365699761E+03  0.12500273585E+03 0.  0.
          4    1    3    3  501    0  0.47095314715E+02 -0.71709382829E+01 -0.42387548515E+02  0.63784777126E+02  0.15500000000E+01 0.  1.
         -4    1    3    3    0  501 -0.47095314715E+02  0.71709382829E+01 -0.24528418833E+03  0.24987222049E+03  0.15500000000E+01 0.  1.
<mgrwt>
<rscale>  2 0.12500274E+03</rscale>
<asrwt>0</asrwt>
<pdfrwt beam="1">  1       21 0.19988662E-02 0.12500274E+03</pdfrwt>
<pdfrwt beam="2">  1       21 0.46256056E-01 0.12500274E+03</pdfrwt>
<totfact> 0.54336121E+06</totfact>
</mgrwt>
</event>
<event>
 5    0  0.1251711E+000  0.1250022E+03  0.7546771E-02  0.1235066E+00
         21   -1    0    0  503  502  0.00000000000E+00  0.00000000000E+00  0.68332198784E+03  0.68332198784E+03  0.00000000000E+00 0.  1.
         21   -1    0    0  502  503 -0.00000000000E+00 -0.00000000000E+00 -0.57167577266E+01  0.57167577266E+01  0.00000000000E+00 0.  1.
         25    2    1    2    0    0  0.00000000000E+00  0.00000000000E+00  0.67760523012E+03  0.68903874557E+03  0.12500218004E+03 0.  0.
          4    1    3    3  501    0  0.59947742646E+02  0.90477100156E+00  0.24183882619E+03  0.24916454566E+03  0.15500000000E+01 0. -1.
         -4    1    3    3    0  501 -0.59947742646E+02 -0.90477100156E+00  0.43576640393E+03  0.43987419991E+03  0.15500000000E+01 0. -1.
<mgrwt>
<rscale>  2 0.12500218E+03</rscale>
<asrwt>0</asrwt>
<pdfrwt beam="1">  1       21 0.10512640E+00 0.12500218E+03</pdfrwt>
<pdfrwt beam="2">  1       21 0.87950173E-03 0.12500218E+03</pdfrwt>
<totfact> 0.33335249E+06</totfact>
</mgrwt>
</event>
<event>
 5    0  0.1379214E+000  0.1249959E+03  0.7546771E-02  0.1235076E+00
         21   -1    0    0  503  502  0.00000000000E+00  0.00000000000E+00  0.45555638663E+03  0.45555638663E+03  0.00000000000E+00 0.  1.
         21   -1    0    0  502  503 -0.00000000000E+00 -0.00000000000E+00 -0.85741228487E+01  0.85741228487E+01  0.00000000000E+00 0.  1.
         25    2    1    2    0    0  0.00000000000E+00  0.00000000000E+00  0.44698226378E+03  0.46413050948E+03  0.12499594271E+03 0.  0.
          4    1    3    3  501    0  0.57991192611E+02  0.19564225959E+02  0.17683856692E+03  0.18713636367E+03  0.15500000000E+01 0.  1.
         -4    1    3    3    0  501 -0.57991192611E+02 -0.19564225959E+02  0.27014369685E+03  0.27699414580E+03  0.15500000000E+01 0.  1.
<mgrwt>
<rscale>  2 0.12499594E+03</rscale>
<asrwt>0</asrwt>
<pdfrwt beam="1">  1       21 0.70085579E-01 0.12499594E+03</pdfrwt>
<pdfrwt beam="2">  1       21 0.13190962E-02 0.12499594E+03</pdfrwt>
<totfact> 0.44063091E+06</totfact>
</mgrwt>
</event>
<event>
 5    0  0.1607657E+000  0.1249893E+03  0.7546771E-02  0.1235086E+00
         21   -1    0    0  503  502  0.00000000000E+00  0.00000000000E+00  0.10473227391E+03  0.10473227391E+03  0.00000000000E+00 0. -1.
         21   -1    0    0  502  503 -0.00000000000E+00 -0.00000000000E+00 -0.37291072769E+02  0.37291072769E+02  0.00000000000E+00 0. -1.
         25    2    1    2    0    0  0.00000000000E+00  0.00000000000E+00  0.67441201142E+02  0.14202334668E+03  0.12498926110E+03 0.  0.
          4    1    3    3  501    0  0.48786910846E+02 -0.32974589133E+02  0.57438483009E+02  0.82274346115E+02  0.15500000000E+01 0.  1.
         -4    1    3    3    0  501 -0.48786910846E+02  0.32974589133E+02  0.10002718133E+02  0.59749000564E+02  0.15500000000E+01 0.  1.
<mgrwt>
<rscale>  2 0.12498926E+03</rscale>
<asrwt>0</asrwt>
<pdfrwt beam="1">  1       21 0.16112657E-01 0.12498926E+03</pdfrwt>
<pdfrwt beam="2">  1       21 0.57370882E-02 0.12498926E+03</pdfrwt>
<totfact> 0.71795891E+06</totfact>
</mgrwt>
</event>
<event>
 4    0  0.1951384E+000  0.1248797E+03  0.7546771E-02  0.1235257E+00
         21   -1    0    0  503  502  0.00000000000E+00  0.00000000000E+00  0.57593287602E+02  0.57593287602E+02  0.00000000000E+00 0.  1.
         21   -1    0    0  502  503 -0.00000000000E+00 -0.00000000000E+00 -0.67694223682E+02  0.67694223682E+02  0.00000000000E+00 0.  1.
          4    1    1    2  501    0 -0.58434489302E+02  0.21702357896E+02 -0.83396680713E+01  0.62908937694E+02  0.15500000000E+01 0. -1.
         -4    1    1    2    0  501  0.58434489302E+02 -0.21702357896E+02 -0.17612680087E+01  0.62378573591E+02  0.15500000000E+01 0. -1.
<mgrwt>
<rscale>  2 0.12487967E+03</rscale>
<asrwt>0</asrwt>
<pdfrwt beam="1">  1       21 0.88605058E-02 0.12487967E+03</pdfrwt>
<pdfrwt beam="2">  1       21 0.10414496E-01 0.12487967E+03</pdfrwt>
<totfact> 0.74232599E+06</totfact>
</mgrwt>
</event>
<event>
 5    0  0.1484118E+000  0.1250074E+03  0.7546771E-02  0.1235058E+00
         21   -1    0    0  503  502  0.00000000000E+00  0.00000000000E+00  0.38913175674E+02  0.38913175674E+02  0.00000000000E+00 0. -1.
         21   -1    0    0  502  503 -0.00000000000E+00 -0.00000000000E+00 -0.10039558743E+03  0.10039558743E+03  0.00000000000E+00 0. -1.
         25    2    1    2    0    0  0.00000000000E+00  0.00000000000E+00 -0.61482411751E+02  0.13930876310E+03  0.12500737787E+03 0.  0.
          4    1    3    3  501    0  0.22237369828E+01  0.45593782773E+02  0.16808359625E+02  0.48668896505E+02  0.15500000000E+01 0. -1.
         -4    1    3    3    0  501 -0.22237369828E+01 -0.45593782773E+02 -0.78290771376E+02  0.90639866595E+02  0.15500000000E+01 0. -1.
<mgrwt>
<rscale>  2 0.12500738E+03</rscale>
<asrwt>0</asrwt>
<pdfrwt beam="1">  1       21 0.59866424E-02 0.12500738E+03</pdfrwt>
<pdfrwt beam="2">  1       21 0.15445475E-01 0.12500738E+03</pdfrwt>
<totfact> 0.72116119E+06</totfact>
</mgrwt>
</event>
<event>
 4    0  0.1502939E+000  0.1257347E+03  0.7546771E-02  0.1233925E+00
         21   -1    0    0  503  502  0.00000000000E+00  0.00000000000E+00  0.21931880415E+02  0.21931880415E+02  0.00000000000E+00 0. -1.
         21   -1    0    0  502  503 -0.00000000000E+00 -0.00000000000E+00 -0.18020829280E+03  0.18020829280E+03  0.00000000000E+00 0. -1.
          4    1    1    2  501    0  0.55241211947E+02  0.29709805472E+02 -0.72780238543E+02  0.96091777280E+02  0.15500000000E+01 0. -1.
         -4    1    1    2    0  501 -0.55241211947E+02 -0.29709805472E+02 -0.85496173841E+02  0.10604839593E+03  0.15500000000E+01 0. -1.
<mgrwt>
<rscale>  2 0.12573475E+03</rscale>
<asrwt>0</asrwt>
<pdfrwt beam="1">  1       21 0.33741356E-02 0.12573475E+03</pdfrwt>
<pdfrwt beam="2">  1       21 0.27724352E-01 0.12573475E+03</pdfrwt>
<totfact> 0.63507114E+06</totfact>
</mgrwt>
</event>
<event>
 5    0  0.1222151E+000  0.1250052E+03  0.7546771E-02  0.1235061E+00
         21   -1    0    0  503  502  0.00000000000E+00  0.00000000000E+00  0.73072985024E+03  0.73072985024E+03  0.00000000000E+00 0.  1.
         21   -1    0    0  502  503 -0.00000000000E+00 -0.00000000000E+00 -0.53461235502E+01  0.53461235502E+01  0.00000000000E+00 0.  1.
         25    2    1    2    0    0  0.00000000000E+00  0.00000000000E+00  0.72538372669E+03  0.73607597379E+03  0.12500515287E+03 0.  0.
          4    1    3    3  501    0 -0.76438206078E+01 -0.61960718739E+02  0.37783183482E+03  0.38295803499E+03  0.15500000000E+01 0.  1.
         -4    1    3    3    0  501  0.76438206078E+01  0.61960718739E+02  0.34755189187E+03  0.35311793880E+03  0.15500000000E+01 0.  1.
<mgrwt>
<rscale>  2 0.12500515E+03</rscale>
<asrwt>0</asrwt>
<pdfrwt beam="1">  1       21 0.11241990E+00 0.12500515E+03</pdfrwt>
<pdfrwt beam="2">  1       21 0.82248113E-03 0.12500515E+03</pdfrwt>
<totfact> 0.31560746E+06</totfact>
</mgrwt>
</event>
<event>
 5    0  0.1222151E+000  0.1250008E+03  0.7546771E-02  0.1235068E+00
         21   -1    0    0  503  502  0.00000000000E+00  0.00000000000E+00  0.65440183464E+01  0.65440183464E+01  0.00000000000E+00 0.  1.
         21   -1    0    0  502  503 -0.00000000000E+00 -0.00000000000E+00 -0.59692661988E+03  0.59692661988E+03  0.00000000000E+00 0.  1.
         25    2    1    2    0    0  0.00000000000E+00  0.00000000000E+00 -0.59038260153E+03  0.60347063822E+03  0.12500078003E+03 0.  0.
          4    1    3    3  501    0 -0.26043175087E+02 -0.36158755821E+02 -0.50663251640E+03  0.50859080975E+03  0.15500000000E+01 0.  1.
         -4    1    3    3    0  501  0.26043175087E+02  0.36158755821E+02 -0.83750085127E+02  0.94879828467E+02  0.15500000000E+01 0.  1.
<mgrwt>
<rscale>  2 0.12500078E+03</rscale>
<asrwt>0</asrwt>
<pdfrwt beam="1">  1       21 0.10067716E-02 0.12500078E+03</pdfrwt>
<pdfrwt beam="2">  1       21 0.91834906E-01 0.12500078E+03</pdfrwt>
<totfact> 0.36935417E+06</totfact>
</mgrwt>
</event>
<event>
 5    0  0.1515242E+000  0.1250095E+03  0.7546771E-02  0.1235054E+00
         21   -1    0    0  503  502  0.00000000000E+00  0.00000000000E+00  0.23793004874E+02  0.23793004874E+02  0.00000000000E+00 0.  1.
         21   -1    0    0  502  503 -0.00000000000E+00 -0.00000000000E+00 -0.16420139774E+03  0.16420139774E+03  0.00000000000E+00 0.  1.
         25    2    1    2    0    0  0.00000000000E+00  0.00000000000E+00 -0.14040839286E+03  0.18799440261E+03  0.12500951414E+03 0.  0.
          4    1    3    3  501    0 -0.44587347716E+02  0.28716345395E+02 -0.20514100666E+02  0.56884891626E+02  0.15500000000E+01 0.  1.
         -4    1    3    3    0  501  0.44587347716E+02 -0.28716345395E+02 -0.11989429220E+03  0.13110951098E+03  0.15500000000E+01 0.  1.
<mgrwt>
<rscale>  2 0.12500951E+03</rscale>
<asrwt>0</asrwt>
<pdfrwt beam="1">  1       21 0.36604623E-02 0.12500951E+03</pdfrwt>
<pdfrwt beam="2">  1       21 0.25261753E-01 0.12500951E+03</pdfrwt>
<totfact> 0.66230092E+06</totfact>
</mgrwt>
</event>
<event>
 5    0  0.1408119E+000  0.1250630E+03  0.7546771E-02  0.1234971E+00
         21   -1    0    0  503  502  0.00000000000E+00  0.00000000000E+00  0.12581352803E+02  0.12581352803E+02  0.00000000000E+00 0. -1.
         21   -1    0    0  502  503 -0.00000000000E+00 -0.00000000000E+00 -0.31079259088E+03  0.31079259088E+03  0.00000000000E+00 0. -1.
         25    2    1    2    0    0  0.00000000000E+00  0.00000000000E+00 -0.29821123807E+03  0.32337394368E+03  0.12506304385E+03 0.  0.
          4    1    3    3  501    0 -0.13237842706E+02 -0.58365627681E+02 -0.19579154760E+03  0.20474012695E+03  0.15500000000E+01 0. -1.
         -4    1    3    3    0  501  0.13237842706E+02  0.58365627681E+02 -0.10241969048E+03  0.11863381673E+03  0.15500000000E+01 0. -1.
<mgrwt>
<rscale>  2 0.12506304E+03</rscale>
<asrwt>0</asrwt>
<pdfrwt beam="1">  1       21 0.19355929E-02 0.12506304E+03</pdfrwt>
<pdfrwt beam="2">  1       21 0.47814242E-01 0.12506304E+03</pdfrwt>
<totfact> 0.53482428E+06</totfact>
</mgrwt>
</event>
<event>
 5    0  0.1572397E+000  0.1249996E+03  0.7546771E-02  0.1235070E+00
         21   -1    0    0  503  502  0.00000000000E+00  0.00000000000E+00  0.11436557648E+03  0.11436557648E+03  0.00000000000E+00 0.  1.
         21   -1    0    0  502  503 -0.00000000000E+00 -0.00000000000E+00 -0.34155580436E+02  0.34155580436E+02  0.00000000000E+00 0.  1.
         25    2    1    2    0    0  0.00000000000E+00  0.00000000000E+00  0.80209996041E+02  0.14852115691E+03  0.12499956234E+03 0.  0.
          4    1    3    3  501    0 -0.37164609466E+02 -0.43949549085E+02  0.11218718746E+02  0.58660320591E+02  0.15500000000E+01 0. -1.
         -4    1    3    3    0  501  0.37164609466E+02  0.43949549085E+02  0.68991277295E+02  0.89860836321E+02  0.15500000000E+01 0. -1.
<mgrwt>
<rscale>  2 0.12499956E+03</rscale>
<asrwt>0</asrwt>
<pdfrwt beam="1">  1       21 0.17594704E-01 0.12499956E+03</pdfrwt>
<pdfrwt beam="2">  1       21 0.52547047E-02 0.12499956E+03</pdfrwt>
<totfact> 0.70946259E+06</totfact>
</mgrwt>
</event>
<event>
 4    0  0.1356230E+000  0.1251912E+03  0.7546771E-02  0.1234771E+00
         21   -1    0    0  503  502  0.00000000000E+00  0.00000000000E+00  0.11063948157E+02  0.11063948157E+02  0.00000000000E+00 0.  1.
         21   -1    0    0  502  503 -0.00000000000E+00 -0.00000000000E+00 -0.35414227840E+03  0.35414227840E+03  0.00000000000E+00 0.  1.
          4    1    1    2  501    0 -0.35523784353E+02 -0.25991525880E+02 -0.30129038993E+03  0.30449269324E+03  0.15500000000E+01 0. -1.
         -4    1    1    2    0  501  0.35523784353E+02  0.25991525880E+02 -0.41787940314E+02  0.60713533318E+02  0.15500000000E+01 0. -1.
<mgrwt>
<rscale>  2 0.12519124E+03</rscale>
<asrwt>0</asrwt>
<pdfrwt beam="1">  1       21 0.17021460E-02 0.12519124E+03</pdfrwt>
<pdfrwt beam="2">  1       21 0.54483423E-01 0.12519124E+03</pdfrwt>
<totfact> 0.50193942E+06</totfact>
</mgrwt>
</event>
<event>
 5    0  0.1625405E+000  0.1250648E+03  0.7546771E-02  0.1234968E+00
         21   -1    0    0  503  502  0.00000000000E+00  0.00000000000E+00  0.35518411199E+02  0.35518411199E+02  0.00000000000E+00 0. -1.
         21   -1    0    0  502  503 -0.00000000000E+00 -0.00000000000E+00 -0.11009224653E+03  0.11009224653E+03  0.00000000000E+00 0. -1.
         25    2    1    2    0    0  0.00000000000E+00  0.00000000000E+00 -0.74573835335E+02  0.14561065773E+03  0.12506481011E+03 0.  0.
          4    1    3    3  501    0  0.29471829024E+01  0.61810308494E+02 -0.26958285640E+02  0.67515567004E+02  0.15500000000E+01 0.  1.
         -4    1    3    3    0  501 -0.29471829024E+01 -0.61810308494E+02 -0.47615549696E+02  0.78095090730E+02  0.15500000000E+01 0.  1.
<mgrwt>
<rscale>  2 0.12506481E+03</rscale>
<asrwt>0</asrwt>
<pdfrwt beam="1">  1       21 0.54643710E-02 0.12506481E+03</pdfrwt>
<pdfrwt beam="2">  1       21 0.16937269E-01 0.12506481E+03</pdfrwt>
<totfact> 0.71197465E+06</totfact>
</mgrwt>
</event>
<event>
 5    0  0.1479770E+000  0.1250008E+03  0.7546771E-02  0.1235068E+00
         21   -1    0    0  503  502  0.00000000000E+00  0.00000000000E+00  0.21253545001E+02  0.21253545001E+02  0.00000000000E+00 0. -1.
         21   -1    0    0  502  503 -0.00000000000E+00 -0.00000000000E+00 -0.18379516794E+03  0.18379516794E+03  0.00000000000E+00 0. -1.
         25    2    1    2    0    0  0.00000000000E+00  0.00000000000E+00 -0.16254162294E+03  0.20504871294E+03  0.12500078196E+03 0.  0.
          4    1    3    3  501    0 -0.40269355342E+02  0.33428712643E+02 -0.25286111092E+02  0.58145418760E+02  0.15500000000E+01 0. -1.
         -4    1    3    3    0  501  0.40269355342E+02 -0.33428712643E+02 -0.13725551185E+03  0.14690329418E+03  0.15500000000E+01 0. -1.
<mgrwt>
<rscale>  2 0.12500078E+03</rscale>
<asrwt>0</asrwt>
<pdfrwt beam="1">  1       21 0.32697761E-02 0.12500078E+03</pdfrwt>
<pdfrwt beam="2">  1       21 0.28276181E-01 0.12500078E+03</pdfrwt>
<totfact> 0.64382987E+06</totfact>
</mgrwt>
</event>
<event>
 5    0  0.1222151E+000  0.1249758E+03  0.7546771E-02  0.1235107E+00
         21   -1    0    0  503  502  0.00000000000E+00  0.00000000000E+00  0.13710567152E+03  0.13710567152E+03  0.00000000000E+00 0. -1.
         21   -1    0    0  502  503 -0.00000000000E+00 -0.00000000000E+00 -0.28479776525E+02  0.28479776525E+02  0.00000000000E+00 0. -1.
         25    2    1    2    0    0  0.00000000000E+00  0.00000000000E+00  0.10862589499E+03  0.16558544804E+03  0.12497581983E+03 0.  0.
          4    1    3    3  501    0  0.23473541501E+02  0.20331961342E+01  0.13096727940E+03  0.13307881804E+03  0.15500000000E+01 0.  1.
         -4    1    3    3    0  501 -0.23473541501E+02 -0.20331961342E+01 -0.22341384406E+02  0.32506630006E+02  0.15500000000E+01 0.  1.
<mgrwt>
<rscale>  2 0.12497582E+03</rscale>
<asrwt>0</asrwt>
<pdfrwt beam="1">  1       21 0.21093180E-01 0.12497582E+03</pdfrwt>
<pdfrwt beam="2">  1       21 0.43815041E-02 0.12497582E+03</pdfrwt>
<totfact> 0.68885689E+06</totfact>
</mgrwt>
</event>
<event>
 5    0  0.1222151E+000  0.1249929E+03  0.7546771E-02  0.1235080E+00
         21   -1    0    0  503  502  0.00000000000E+00  0.00000000000E+00  0.59573412642E+03  0.59573412642E+03  0.00000000000E+00 0. -1.
         21   -1    0    0  502  503 -0.00000000000E+00 -0.00000000000E+00 -0.65562880467E+01  0.65562880467E+01  0.00000000000E+00 0. -1.
         25    2    1    2    0    0  0.00000000000E+00  0.00000000000E+00  0.58917783837E+03  0.60229041447E+03  0.12499287231E+03 0.  0.
          4    1    3    3  501    0  0.30522183228E+02  0.28258276981E+02  0.69953952040E+02  0.81400809535E+02  0.15500000000E+01 0.  1.
         -4    1    3    3    0  501 -0.30522183228E+02 -0.28258276981E+02  0.51922388633E+03  0.52088960493E+03  0.15500000000E+01 0.  1.
<mgrwt>
<rscale>  2 0.12499287E+03</rscale>
<asrwt>0</asrwt>
<pdfrwt beam="1">  1       21 0.91651362E-01 0.12499287E+03</pdfrwt>
<pdfrwt beam="2">  1       21 0.10086602E-02 0.12499287E+03</pdfrwt>
<totfact> 0.36995816E+06</totfact>
</mgrwt>
</event>
<event>
 5    0  0.1295939E+000  0.1250118E+03  0.7546771E-02  0.1235051E+00
         21   -1    0    0  503  502  0.00000000000E+00  0.00000000000E+00  0.45169885844E+03  0.45169885844E+03  0.00000000000E+00 0. -1.
         21   -1    0    0  502  503 -0.00000000000E+00 -0.00000000000E+00 -0.86495450044E+01  0.86495450044E+01  0.00000000000E+00 0. -1.
         25    2    1    2    0    0  0.00000000000E+00  0.00000000000E+00  0.44304931344E+03  0.46034840345E+03  0.12501183311E+03 0.  0.
          4    1    3    3  501    0  0.12934763932E+02  0.41009441252E+02  0.54571453331E+02  0.69494808500E+02  0.15500000000E+01 0. -1.
         -4    1    3    3    0  501 -0.12934763932E+02 -0.41009441252E+02  0.38847786011E+03  0.39085359495E+03  0.15500000000E+01 0. -1.
<mgrwt>
<rscale>  2 0.12501183E+03</rscale>
<asrwt>0</asrwt>
<pdfrwt beam="1">  1       21 0.69492114E-01 0.12501183E+03</pdfrwt>
<pdfrwt beam="2">  1       21 0.13306996E-02 0.12501183E+03</pdfrwt>
<totfact> 0.44266396E+06</totfact>
</mgrwt>
</event>
<event>
 5    0  0.1579110E+000  0.1249993E+03  0.7546771E-02  0.1235070E+00
         21   -1    0    0  503  502  0.00000000000E+00  0.00000000000E+00  0.98408784565E+02  0.98408784565E+02  0.00000000000E+00 0. -1.
         21   -1    0    0  502  503 -0.00000000000E+00 -0.00000000000E+00 -0.39693646663E+02  0.39693646663E+02  0.00000000000E+00 0. -1.
         25    2    1    2    0    0  0.00000000000E+00  0.00000000000E+00  0.58715137902E+02  0.13810243123E+03  0.12499925637E+03 0.  0.
          4    1    3    3  501    0  0.44574967974E+02  0.18626741330E+02 -0.14418055122E+02  0.50439727160E+02  0.15500000000E+01 0.  1.
         -4    1    3    3    0  501 -0.44574967974E+02 -0.18626741330E+02  0.73133193025E+02  0.87662704068E+02  0.15500000000E+01 0.  1.
<mgrwt>
<rscale>  2 0.12499926E+03</rscale>
<asrwt>0</asrwt>
<pdfrwt beam="1">  1       21 0.15139813E-01 0.12499926E+03</pdfrwt>
<pdfrwt beam="2">  1       21 0.61067149E-02 0.12499926E+03</pdfrwt>
<totfact> 0.72289380E+06</totfact>
</mgrwt>
</event>
<event>
 5    0  0.1280517E+000  0.1249692E+03  0.7546771E-02  0.1235117E+00
         21   -1    0    0  503  502  0.00000000000E+00  0.00000000000E+00  0.81296451983E+01  0.81296451983E+01  0.00000000000E+00 0.  1.
         21   -1    0    0  502  503 -0.00000000000E+00 -0.00000000000E+00 -0.48025766919E+03  0.48025766919E+03  0.00000000000E+00 0.  1.
         25    2    1    2    0    0  0.00000000000E+00  0.00000000000E+00 -0.47212802400E+03  0.48838731439E+03  0.12496918747E+03 0.  0.
          4    1    3    3  501    0 -0.14609546831E+02 -0.40930360238E+02 -0.41141316460E+03  0.41370512174E+03  0.15500000000E+01 0.  1.
         -4    1    3    3    0  501  0.14609546831E+02  0.40930360238E+02 -0.60714859393E+02  0.74682192650E+02  0.15500000000E+01 0.  1.
<mgrwt>
<rscale>  2 0.12496919E+03</rscale>
<asrwt>0</asrwt>
<pdfrwt beam="1">  1       21 0.12507145E-02 0.12496919E+03</pdfrwt>
<pdfrwt beam="2">  1       21 0.73885803E-01 0.12496919E+03</pdfrwt>
<totfact> 0.42713707E+06</totfact>
</mgrwt>
</event>
<event>
 5    0  0.1426918E+000  0.1250421E+03  0.7546771E-02  0.1235003E+00
         21   -1    0    0  503  502  0.00000000000E+00  0.00000000000E+00  0.15817517956E+02  0.15817517956E+02  0.00000000000E+00 0.  1.
         21   -1    0    0  502  503 -0.00000000000E+00 -0.00000000000E+00 -0.24712375266E+03  0.24712375266E+03  0.00000000000E+00 0.  1.
         25    2    1    2    0    0  0.00000000000E+00  0.00000000000E+00 -0.23130623470E+03  0.26294127062E+03  0.12504214322E+03 0.  0.
          4    1    3    3  501    0  0.21731811127E+02 -0.48566007159E+02 -0.18461645985E+03  0.19213684814E+03  0.15500000000E+01 0.  1.
         -4    1    3    3    0  501 -0.21731811127E+02  0.48566007159E+02 -0.46689774856E+02  0.70804422477E+02  0.15500000000E+01 0.  1.
<mgrwt>
<rscale>  2 0.12504214E+03</rscale>
<asrwt>0</asrwt>
<pdfrwt beam="1">  1       21 0.24334645E-02 0.12504214E+03</pdfrwt>
<pdfrwt beam="2">  1       21 0.38019036E-01 0.12504214E+03</pdfrwt>
<totfact> 0.58618493E+06</totfact>
</mgrwt>
</event>
<event>
 5    0  0.1444341E+000  0.1249989E+03  0.7546771E-02  0.1235071E+00
         21   -1    0    0  503  502  0.00000000000E+00  0.00000000000E+00  0.21733899496E+03  0.21733899496E+03  0.00000000000E+00 0.  1.
         21   -1    0    0  502  503 -0.00000000000E+00 -0.00000000000E+00 -0.17972765350E+02  0.17972765350E+02  0.00000000000E+00 0.  1.
         25    2    1    2    0    0  0.00000000000E+00  0.00000000000E+00  0.19936622961E+03  0.23531176031E+03  0.12499892412E+03 0.  0.
          4    1    3    3  501    0 -0.35069458852E+02  0.10835880152E+02  0.19486624933E+03  0.19829911969E+03  0.15500000000E+01 0. -1.
         -4    1    3    3    0  501  0.35069458852E+02 -0.10835880152E+02  0.44999802793E+01  0.37012640616E+02  0.15500000000E+01 0. -1.
<mgrwt>
<rscale>  2 0.12499892E+03</rscale>
<asrwt>0</asrwt>
<pdfrwt beam="1">  1       21 0.33436767E-01 0.12499892E+03</pdfrwt>
<pdfrwt beam="2">  1       21 0.27650410E-02 0.12499892E+03</pdfrwt>
<totfact> 0.61290970E+06</totfact>
</mgrwt>
</event>
<event>
 5    0  0.1553250E+000  0.1250056E+03  0.7546771E-02  0.1235061E+00
         21   -1    0    0  503  502  0.00000000000E+00  0.00000000000E+00  0.47061076846E+02  0.47061076846E+02  0.00000000000E+00 0. -1.
         21   -1    0    0  502  503 -0.00000000000E+00 -0.00000000000E+00 -0.83011270121E+02  0.83011270121E+02  0.00000000000E+00 0. -1.
         25    2    1    2    0    0  0.00000000000E+00  0.00000000000E+00 -0.35950193275E+02  0.13007234697E+03  0.12500559607E+03 0.  0.
          4    1    3    3  501    0  0.50111560819E+02  0.29685198271E+02 -0.41515461389E+02  0.71542403919E+02  0.15500000000E+01 0.  1.
         -4    1    3    3    0  501 -0.50111560819E+02 -0.29685198271E+02  0.55652681141E+01  0.58529943049E+02  0.15500000000E+01 0.  1.
<mgrwt>
<rscale>  2 0.12500560E+03</rscale>
<asrwt>0</asrwt>
<pdfrwt beam="1">  1       21 0.72401657E-02 0.12500560E+03</pdfrwt>
<pdfrwt beam="2">  1       21 0.12770965E-01 0.12500560E+03</pdfrwt>
<totfact> 0.73344768E+06</totfact>
</mgrwt>
</event>
<event>
 5    0  0.1369998E+000  0.1250032E+03  0.7546771E-02  0.1235064E+00
         21   -1    0    0  503  502  0.00000000000E+00  0.00000000000E+00  0.12511470230E+02  0.12511470230E+02  0.00000000000E+00 0.  1.
         21   -1    0    0  502  503 -0.00000000000E+00 -0.00000000000E+00 -0.31222935626E+03  0.31222935626E+03  0.00000000000E+00 0.  1.
         25    2    1    2    0    0  0.00000000000E+00  0.00000000000E+00 -0.29971788604E+03  0.32474082649E+03  0.12500317269E+03 0.  0.
          4    1    3    3  501    0 -0.31887196846E+02 -0.13727832217E+02 -0.14900166110E+02  0.37810899886E+02  0.15500000000E+01 0.  1.
         -4    1    3    3    0  501  0.31887196846E+02  0.13727832217E+02 -0.28481771993E+03  0.28692992661E+03  0.15500000000E+01 0.  1.
<mgrwt>
<rscale>  2 0.12500317E+03</rscale>
<asrwt>0</asrwt>
<pdfrwt beam="1">  1       21 0.19248417E-02 0.12500317E+03</pdfrwt>
<pdfrwt beam="2">  1       21 0.48035283E-01 0.12500317E+03</pdfrwt>
<totfact> 0.53455529E+06</totfact>
</mgrwt>
</event>
<event>
 5    0  0.1490379E+000  0.1249998E+03  0.7546771E-02  0.1235070E+00
         21   -1    0    0  503  502  0.00000000000E+00  0.00000000000E+00  0.14482709738E+03  0.14482709738E+03  0.00000000000E+00 0.  1.
         21   -1    0    0  502  503 -0.00000000000E+00 -0.00000000000E+00 -0.26971737293E+02  0.26971737293E+02  0.00000000000E+00 0.  1.
         25    2    1    2    0    0  0.00000000000E+00  0.00000000000E+00  0.11785536009E+03  0.17179883468E+03  0.12499981478E+03 0.  0.
          4    1    3    3  501    0  0.12954278502E+02  0.21759915825E+02 -0.19575637719E+02  0.32045520129E+02  0.15500000000E+01 0. -1.
         -4    1    3    3    0  501 -0.12954278502E+02 -0.21759915825E+02  0.13743099781E+03  0.13975331455E+03  0.15500000000E+01 0. -1.
<mgrwt>
<rscale>  2 0.12499981E+03</rscale>
<asrwt>0</asrwt>
<pdfrwt beam="1">  1       21 0.22281092E-01 0.12499981E+03</pdfrwt>
<pdfrwt beam="2">  1       21 0.41494981E-02 0.12499981E+03</pdfrwt>
<totfact> 0.68105352E+06</totfact>
</mgrwt>
</event>
<event>
 5    0  0.1269431E+000  0.1249983E+03  0.7546771E-02  0.1235072E+00
         21   -1    0    0  503  502  0.00000000000E+00  0.00000000000E+00  0.69733466987E+03  0.69733466987E+03  0.00000000000E+00 0.  1.
         21   -1    0    0  502  503 -0.00000000000E+00 -0.00000000000E+00 -0.56015343929E+01  0.56015343929E+01  0.00000000000E+00 0.  1.
         25    2    1    2    0    0  0.00000000000E+00  0.00000000000E+00  0.69173313547E+03  0.70293620426E+03  0.12499830617E+03 0.  0.
          4    1    3    3  501    0 -0.21076418289E+01  0.48455864354E+02  0.56736145015E+03  0.56943290260E+03  0.15500000000E+01 0. -1.
         -4    1    3    3    0  501  0.21076418289E+01 -0.48455864354E+02  0.12437168532E+03  0.13350330166E+03  0.15500000000E+01 0. -1.
<mgrwt>
<rscale>  2 0.12499831E+03</rscale>
<asrwt>0</asrwt>
<pdfrwt beam="1">  1       21 0.10728219E+00 0.12499831E+03</pdfrwt>
<pdfrwt beam="2">  1       21 0.86177507E-03 0.12499831E+03</pdfrwt>
<totfact> 0.32798640E+06</totfact>
</mgrwt>
</event>
<event>
 5    0  0.1222151E+000  0.1249991E+03  0.7546771E-02  0.1235071E+00
         21   -1    0    0  503  502  0.00000000000E+00  0.00000000000E+00  0.22000897179E+01  0.22000897179E+01  0.00000000000E+00 0.  1.
         21   -1    0    0  502  503 -0.00000000000E+00 -0.00000000000E+00 -0.17754710814E+04  0.17754710814E+04  0.00000000000E+00 0.  1.
         25    2    1    2    0    0  0.00000000000E+00  0.00000000000E+00 -0.17732709916E+04  0.17776711711E+04  0.12499913073E+03 0.  0.
          4    1    3    3  501    0  0.28119739375E+02  0.18728261002E+02 -0.13918596079E+03  0.14323617449E+03  0.15500000000E+01 0. -1.
         -4    1    3    3    0  501 -0.28119739375E+02 -0.18728261002E+02 -0.16340850309E+04  0.16344349966E+04  0.15500000000E+01 0. -1.
<mgrwt>
<rscale>  2 0.12499913E+03</rscale>
<asrwt>0</asrwt>
<pdfrwt beam="1">  1       21 0.33847516E-03 0.12499913E+03</pdfrwt>
<pdfrwt beam="2">  1       21 0.27314954E+00 0.12499913E+03</pdfrwt>
<totfact> 0.10329491E+06</totfact>
</mgrwt>
</event>
<event>
 5    0  0.1543310E+000  0.1250125E+03  0.7546771E-02  0.1235050E+00
         21   -1    0    0  503  502  0.00000000000E+00  0.00000000000E+00  0.33979182558E+02  0.33979182558E+02  0.00000000000E+00 0. -1.
         21   -1    0    0  502  503 -0.00000000000E+00 -0.00000000000E+00 -0.11498302779E+03  0.11498302779E+03  0.00000000000E+00 0. -1.
         25    2    1    2    0    0  0.00000000000E+00  0.00000000000E+00 -0.81003845230E+02  0.14896221035E+03  0.12501246806E+03 0.  0.
          4    1    3    3  501    0 -0.16261418649E+02 -0.57179793077E+02 -0.63442966190E+02  0.86956166727E+02  0.15500000000E+01 0. -1.
         -4    1    3    3    0  501  0.16261418649E+02  0.57179793077E+02 -0.17560879040E+02  0.62006043620E+02  0.15500000000E+01 0. -1.
<mgrwt>
<rscale>  2 0.12501247E+03</rscale>
<asrwt>0</asrwt>
<pdfrwt beam="1">  1       21 0.52275666E-02 0.12501247E+03</pdfrwt>
<pdfrwt beam="2">  1       21 0.17689697E-01 0.12501247E+03</pdfrwt>
<totfact> 0.70867314E+06</totfact>
</mgrwt>
</event>
<event>
 5    0  0.1242411E+000  0.1249866E+03  0.7546771E-02  0.1235090E+00
         21   -1    0    0  503  502  0.00000000000E+00  0.00000000000E+00  0.68167461483E+03  0.68167461483E+03  0.00000000000E+00 0.  1.
         21   -1    0    0  502  503 -0.00000000000E+00 -0.00000000000E+00 -0.57291423396E+01  0.57291423396E+01  0.00000000000E+00 0.  1.
         25    2    1    2    0    0  0.00000000000E+00  0.00000000000E+00  0.67594547249E+03  0.68740375717E+03  0.12498657364E+03 0.  0.
          4    1    3    3  501    0 -0.32758184837E+02  0.12742272529E+01  0.45483286031E+02  0.56087914359E+02  0.15500000000E+01 0.  1.
         -4    1    3    3    0  501  0.32758184837E+02 -0.12742272529E+01  0.63046218646E+03  0.63131584281E+03  0.15500000000E+01 0.  1.
<mgrwt>
<rscale>  2 0.12498657E+03</rscale>
<asrwt>0</asrwt>
<pdfrwt beam="1">  1       21 0.10487295E+00 0.12498657E+03</pdfrwt>
<pdfrwt beam="2">  1       21 0.88140705E-03 0.12498657E+03</pdfrwt>
<totfact> 0.33412589E+06</totfact>
</mgrwt>
</event>
<event>
 5    0  0.1546733E+000  0.1250011E+03  0.7546771E-02  0.1235067E+00
         21   -1    0    0  503  502  0.00000000000E+00  0.00000000000E+00  0.27679976380E+02  0.27679976380E+02  0.00000000000E+00 0. -1.
         21   -1    0    0  502  503 -0.00000000000E+00 -0.00000000000E+00 -0.14112444895E+03  0.14112444895E+03  0.00000000000E+00 0. -1.
         25    2    1    2    0    0  0.00000000000E+00  0.00000000000E+00 -0.11344447257E+03  0.16880442533E+03  0.12500114261E+03 0.  0.
          4    1    3    3  501    0 -0.95248289313E+00 -0.62435152336E+02 -0.59700353248E+02  0.86403646617E+02  0.15500000000E+01 0. -1.
         -4    1    3    3    0  501  0.95248289313E+00  0.62435152336E+02 -0.53744119324E+02  0.82400778715E+02  0.15500000000E+01 0. -1.
<mgrwt>
<rscale>  2 0.12500114E+03</rscale>
<asrwt>0</asrwt>
<pdfrwt beam="1">  1       21 0.42584578E-02 0.12500114E+03</pdfrwt>
<pdfrwt beam="2">  1       21 0.21711454E-01 0.12500114E+03</pdfrwt>
<totfact> 0.68457385E+06</totfact>
</mgrwt>
</event>
<event>
 5    0  0.1499001E+000  0.1250005E+03  0.7546771E-02  0.1235068E+00
         21   -1    0    0  503  502  0.00000000000E+00  0.00000000000E+00  0.44700211799E+02  0.44700211799E+02  0.00000000000E+00 0. -1.
         21   -1    0    0  502  503 -0.00000000000E+00 -0.00000000000E+00 -0.87388491871E+02  0.87388491871E+02  0.00000000000E+00 0. -1.
         25    2    1    2    0    0  0.00000000000E+00  0.00000000000E+00 -0.42688280072E+02  0.13208870367E+03  0.12500054553E+03 0.  0.
          4    1    3    3  501    0 -0.37249565354E+02  0.13309498055E+02 -0.72452066167E+02  0.82561354455E+02  0.15500000000E+01 0.  1.
         -4    1    3    3    0  501  0.37249565354E+02 -0.13309498055E+02  0.29763786095E+02  0.49527349215E+02  0.15500000000E+01 0.  1.
<mgrwt>
<rscale>  2 0.12500055E+03</rscale>
<asrwt>0</asrwt>
<pdfrwt beam="1">  1       21 0.68769557E-02 0.12500055E+03</pdfrwt>
<pdfrwt beam="2">  1       21 0.13444383E-01 0.12500055E+03</pdfrwt>
<totfact> 0.73083316E+06</totfact>
</mgrwt>
</event>
<event>
 5    0  0.1409218E+000  0.1250010E+03  0.7546771E-02  0.1235068E+00
         21   -1    0    0  503  502  0.00000000000E+00  0.00000000000E+00  0.22893617484E+03  0.22893617484E+03  0.00000000000E+00 0.  1.
         21   -1    0    0  502  503 -0.00000000000E+00 -0.00000000000E+00 -0.17062897039E+02  0.17062897039E+02  0.00000000000E+00 0.  1.
         25    2    1    2    0    0  0.00000000000E+00  0.00000000000E+00  0.21187327780E+03  0.24599907188E+03  0.12500103007E+03 0.  0.
          4    1    3    3  501    0 -0.14754613695E+02  0.26982900774E+02 -0.10991387348E+01  0.30812110694E+02  0.15500000000E+01 0.  1.
         -4    1    3    3    0  501  0.14754613695E+02 -0.26982900774E+02  0.21297241654E+03  0.21518696119E+03  0.15500000000E+01 0.  1.
<mgrwt>
<rscale>  2 0.12500103E+03</rscale>
<asrwt>0</asrwt>
<pdfrwt beam="1">  1       21 0.35220948E-01 0.12500103E+03</pdfrwt>
<pdfrwt beam="2">  1       21 0.26250612E-02 0.12500103E+03</pdfrwt>
<totfact> 0.60255365E+06</totfact>
</mgrwt>
</event>
<event>
 5    0  0.1544305E+000  0.1250084E+03  0.7546771E-02  0.1235056E+00
         21   -1    0    0  503  502  0.00000000000E+00  0.00000000000E+00  0.61724413999E+02  0.61724413999E+02  0.00000000000E+00 0. -1.
         21   -1    0    0  502  503 -0.00000000000E+00 -0.00000000000E+00 -0.63293853073E+02  0.63293853073E+02  0.00000000000E+00 0. -1.
         25    2    1    2    0    0  0.00000000000E+00  0.00000000000E+00 -0.15694390740E+01  0.12501826707E+03  0.12500841557E+03 0.  0.
          4    1    3    3  501    0  0.54422588816E+02  0.29521211494E+02 -0.92147010652E+01  0.62614960810E+02  0.15500000000E+01 0. -1.
         -4    1    3    3    0  501 -0.54422588816E+02 -0.29521211494E+02  0.76452619912E+01  0.62403306262E+02  0.15500000000E+01 0. -1.
<mgrwt>
<rscale>  2 0.12500842E+03</rscale>
<asrwt>0</asrwt>
<pdfrwt beam="1">  1       21 0.94960637E-02 0.12500842E+03</pdfrwt>
<pdfrwt beam="2">  1       21 0.97375159E-02 0.12500842E+03</pdfrwt>
<totfact> 0.74025186E+06</totfact>
</mgrwt>
</event>
<event>
 5    0  0.1394104E+000  0.1250020E+03  0.7546771E-02  0.1235066E+00
         21   -1    0    0  503  502  0.00000000000E+00  0.00000000000E+00  0.28010449008E+03  0.28010449008E+03  0.00000000000E+00 0.  1.
         21   -1    0    0  502  503 -0.00000000000E+00 -0.00000000000E+00 -0.13946144097E+02  0.13946144097E+02  0.00000000000E+00 0.  1.
         25    2    1    2    0    0  0.00000000000E+00  0.00000000000E+00  0.26615834598E+03  0.29405063418E+03  0.12500204128E+03 0.  0.
          4    1    3    3  501    0 -0.61874279797E+01 -0.48201474774E+02  0.40696470662E+02  0.63405612210E+02  0.15500000000E+01 0. -1.
         -4    1    3    3    0  501  0.61874279797E+01  0.48201474774E+02  0.22546187532E+03  0.23064502197E+03  0.15500000000E+01 0. -1.
<mgrwt>
<rscale>  2 0.12500204E+03</rscale>
<asrwt>0</asrwt>
<pdfrwt beam="1">  1       21 0.43092995E-01 0.12500204E+03</pdfrwt>
<pdfrwt beam="2">  1       21 0.21455608E-02 0.12500204E+03</pdfrwt>
<totfact> 0.55951373E+06</totfact>
</mgrwt>
</event>
<event>
 5    0  0.1515072E+000  0.1249989E+03  0.7546771E-02  0.1235071E+00
         21   -1    0    0  503  502  0.00000000000E+00  0.00000000000E+00  0.11273559870E+03  0.11273559870E+03  0.00000000000E+00 0. -1.
         21   -1    0    0  502  503 -0.00000000000E+00 -0.00000000000E+00 -0.34649033675E+02  0.34649033675E+02  0.00000000000E+00 0. -1.
         25    2    1    2    0    0  0.00000000000E+00  0.00000000000E+00  0.78086565029E+02  0.14738463238E+03  0.12499887289E+03 0.  0.
          4    1    3    3  501    0  0.58600091199E+02  0.12546869638E+02  0.18203681271E+02  0.62651186246E+02  0.15500000000E+01 0. -1.
         -4    1    3    3    0  501 -0.58600091199E+02 -0.12546869638E+02  0.59882883759E+02  0.84733446133E+02  0.15500000000E+01 0. -1.
<mgrwt>
<rscale>  2 0.12499887E+03</rscale>
<asrwt>0</asrwt>
<pdfrwt beam="1">  1       21 0.17343938E-01 0.12499887E+03</pdfrwt>
<pdfrwt beam="2">  1       21 0.53306206E-02 0.12499887E+03</pdfrwt>
<totfact> 0.71091346E+06</totfact>
</mgrwt>
</event>
<event>
 5    0  0.1640139E+000  0.1250023E+03  0.7546771E-02  0.1235066E+00
         21   -1    0    0  503  502  0.00000000000E+00  0.00000000000E+00  0.44938345896E+02  0.44938345896E+02  0.00000000000E+00 0.  1.
         21   -1    0    0  502  503 -0.00000000000E+00 -0.00000000000E+00 -0.86927802824E+02  0.86927802824E+02  0.00000000000E+00 0.  1.
         25    2    1    2    0    0  0.00000000000E+00  0.00000000000E+00 -0.41989456928E+02  0.13186614872E+03  0.12500226672E+03 0.  0.
          4    1    3    3  501    0  0.38228267415E+02  0.47705099764E+02 -0.73699535343E+01  0.61594607622E+02  0.15500000000E+01 0.  1.
         -4    1    3    3    0  501 -0.38228267415E+02 -0.47705099764E+02 -0.34619503393E+02  0.70271541098E+02  0.15500000000E+01 0.  1.
<mgrwt>
<rscale>  2 0.12500227E+03</rscale>
<asrwt>0</asrwt>
<pdfrwt beam="1">  1       21 0.69135917E-02 0.12500227E+03</pdfrwt>
<pdfrwt beam="2">  1       21 0.13373508E-01 0.12500227E+03</pdfrwt>
<totfact> 0.73109960E+06</totfact>
</mgrwt>
</event>
<event>
 5    0  0.1574730E+000  0.1250005E+03  0.7546771E-02  0.1235068E+00
         21   -1    0    0  503  502  0.00000000000E+00  0.00000000000E+00  0.26740685719E+02  0.26740685719E+02  0.00000000000E+00 0. -1.
         21   -1    0    0  502  503 -0.00000000000E+00 -0.00000000000E+00 -0.14608011498E+03  0.14608011498E+03  0.00000000000E+00 0. -1.
         25    2    1    2    0    0  0.00000000000E+00  0.00000000000E+00 -0.11933942926E+03  0.17282080070E+03  0.12500051911E+03 0.  0.
          4    1    3    3  501    0 -0.28189562846E+01  0.53877871832E+02 -0.10323920846E+03  0.11649681649E+03  0.15500000000E+01 0.  1.
         -4    1    3    3    0  501  0.28189562846E+01 -0.53877871832E+02 -0.16100220797E+02  0.56323984211E+02  0.15500000000E+01 0.  1.
<mgrwt>
<rscale>  2 0.12500052E+03</rscale>
<asrwt>0</asrwt>
<pdfrwt beam="1">  1       21 0.41139517E-02 0.12500052E+03</pdfrwt>
<pdfrwt beam="2">  1       21 0.22473863E-01 0.12500052E+03</pdfrwt>
<totfact> 0.67983913E+06</totfact>
</mgrwt>
</event>
<event>
 5    0  0.1638081E+000  0.1249974E+03  0.7546771E-02  0.1235073E+00
         21   -1    0    0  503  502  0.00000000000E+00  0.00000000000E+00  0.11034447964E+03  0.11034447964E+03  0.00000000000E+00 0.  1.
         21   -1    0    0  502  503 -0.00000000000E+00 -0.00000000000E+00 -0.35399012843E+02  0.35399012843E+02  0.00000000000E+00 0.  1.
         25    2    1    2    0    0  0.00000000000E+00  0.00000000000E+00  0.74945466800E+02  0.14574349249E+03  0.12499737041E+03 0.  0.
          4    1    3    3  501    0 -0.58630107038E+02  0.20461377807E+02  0.45510819312E+02  0.77005159616E+02  0.15500000000E+01 0. -1.
         -4    1    3    3    0  501  0.58630107038E+02 -0.20461377807E+02  0.29434647488E+02  0.68738332871E+02  0.15500000000E+01 0. -1.
<mgrwt>
<rscale>  2 0.12499737E+03</rscale>
<asrwt>0</asrwt>
<pdfrwt beam="1">  1       21 0.16976074E-01 0.12499737E+03</pdfrwt>
<pdfrwt beam="2">  1       21 0.54460020E-02 0.12499737E+03</pdfrwt>
<totfact> 0.71302860E+06</totfact>
</mgrwt>
</event>
<event>
 5    0  0.1435063E+000  0.1250086E+03  0.7546771E-02  0.1235056E+00
         21   -1    0    0  503  502  0.00000000000E+00  0.00000000000E+00  0.19225896343E+03  0.19225896343E+03  0.00000000000E+00 0.  1.
         21   -1    0    0  502  503 -0.00000000000E+00 -0.00000000000E+00 -0.20320452533E+02  0.20320452533E+02  0.00000000000E+00 0.  1.
         25    2    1    2    0    0  0.00000000000E+00  0.00000000000E+00  0.17193851090E+03  0.21257941596E+03  0.12500862595E+03 0.  0.
          4    1    3    3  501    0 -0.14627231781E+02  0.37953333348E+02  0.16663146148E+03  0.17153092397E+03  0.15500000000E+01 0. -1.
         -4    1    3    3    0  501  0.14627231781E+02 -0.37953333348E+02  0.53070494176E+01  0.41048491998E+02  0.15500000000E+01 0. -1.
<mgrwt>
<rscale>  2 0.12500863E+03</rscale>
<asrwt>0</asrwt>
<pdfrwt beam="1">  1       21 0.29578301E-01 0.12500863E+03</pdfrwt>
<pdfrwt beam="2">  1       21 0.31262236E-02 0.12500863E+03</pdfrwt>
<totfact> 0.63575301E+06</totfact>
</mgrwt>
</event>
<event>
 5    0  0.1619687E+000  0.1249995E+03  0.7546771E-02  0.1235070E+00
         21   -1    0    0  503  502  0.00000000000E+00  0.00000000000E+00  0.16740936561E+03  0.16740936561E+03  0.00000000000E+00 0. -1.
         21   -1    0    0  502  503 -0.00000000000E+00 -0.00000000000E+00 -0.23333349368E+02  0.23333349368E+02  0.00000000000E+00 0. -1.
         25    2    1    2    0    0  0.00000000000E+00  0.00000000000E+00  0.14407601624E+03  0.19074271498E+03  0.12499953944E+03 0.  0.
          4    1    3    3  501    0 -0.52460981344E+02 -0.31231441810E+02  0.92297003304E+02  0.11067383087E+03  0.15500000000E+01 0. -1.
         -4    1    3    3    0  501  0.52460981344E+02  0.31231441810E+02  0.51779012941E+02  0.80068884107E+02  0.15500000000E+01 0. -1.
<mgrwt>
<rscale>  2 0.12499954E+03</rscale>
<asrwt>0</asrwt>
<pdfrwt beam="1">  1       21 0.25755286E-01 0.12499954E+03</pdfrwt>
<pdfrwt beam="2">  1       21 0.35897462E-02 0.12499954E+03</pdfrwt>
<totfact> 0.65940783E+06</totfact>
</mgrwt>
</event>
<event>
 5    0  0.1529922E+000  0.1250016E+03  0.7546771E-02  0.1235067E+00
         21   -1    0    0  503  502  0.00000000000E+00  0.00000000000E+00  0.28508364943E+02  0.28508364943E+02  0.00000000000E+00 0. -1.
         21   -1    0    0  502  503 -0.00000000000E+00 -0.00000000000E+00 -0.13702467968E+03  0.13702467968E+03  0.00000000000E+00 0. -1.
         25    2    1    2    0    0  0.00000000000E+00  0.00000000000E+00 -0.10851631474E+03  0.16553304462E+03  0.12500159318E+03 0.  0.
          4    1    3    3  501    0 -0.22734068413E+02 -0.48468464725E+02 -0.96921069406E+02  0.11073448485E+03  0.15500000000E+01 0.  1.
         -4    1    3    3    0  501  0.22734068413E+02  0.48468464725E+02 -0.11595245330E+02  0.54798559777E+02  0.15500000000E+01 0.  1.
<mgrwt>
<rscale>  2 0.12500159E+03</rscale>
<asrwt>0</asrwt>
<pdfrwt beam="1">  1       21 0.43859024E-02 0.12500159E+03</pdfrwt>
<pdfrwt beam="2">  1       21 0.21080719E-01 0.12500159E+03</pdfrwt>
<totfact> 0.68846872E+06</totfact>
</mgrwt>
</event>
<event>
 5    0  0.1222151E+000  0.1249916E+03  0.7546771E-02  0.1235082E+00
         21   -1    0    0  503  502  0.00000000000E+00  0.00000000000E+00  0.54367606290E+01  0.54367606290E+01  0.00000000000E+00 0.  1.
         21   -1    0    0  502  503 -0.00000000000E+00 -0.00000000000E+00 -0.71839199303E+03  0.71839199303E+03  0.00000000000E+00 0.  1.
         25    2    1    2    0    0  0.00000000000E+00  0.00000000000E+00 -0.71295523240E+03  0.72382875366E+03  0.12499160458E+03 0.  0.
          4    1    3    3  501    0 -0.27056197653E+02  0.13528782053E+02 -0.67304339315E+03  0.67372463020E+03  0.15500000000E+01 0.  1.
         -4    1    3    3    0  501  0.27056197653E+02 -0.13528782053E+02 -0.39911839254E+02  0.50104123462E+02  0.15500000000E+01 0.  1.
<mgrwt>
<rscale>  2 0.12499160E+03</rscale>
<asrwt>0</asrwt>
<pdfrwt beam="1">  1       21 0.83642509E-03 0.12499160E+03</pdfrwt>
<pdfrwt beam="2">  1       21 0.11052179E+00 0.12499160E+03</pdfrwt>
<totfact> 0.32018136E+06</totfact>
</mgrwt>
</event>
<event>
 5    0  0.1222151E+000  0.1249978E+03  0.7546771E-02  0.1235073E+00
         21   -1    0    0  503  502  0.00000000000E+00  0.00000000000E+00  0.39580646671E+02  0.39580646671E+02  0.00000000000E+00 0.  1.
         21   -1    0    0  502  503 -0.00000000000E+00 -0.00000000000E+00 -0.98687359959E+02  0.98687359959E+02  0.00000000000E+00 0.  1.
         25    2    1    2    0    0  0.00000000000E+00  0.00000000000E+00 -0.59106713287E+02  0.13826800663E+03  0.12499775239E+03 0.  0.
          4    1    3    3  501    0  0.20069674597E+02 -0.10948637953E+01 -0.94992247228E+02  0.97107775686E+02  0.15500000000E+01 0. -1.
         -4    1    3    3    0  501 -0.20069674597E+02  0.10948637953E+01  0.35885533941E+02  0.41160230944E+02  0.15500000000E+01 0. -1.
<mgrwt>
<rscale>  2 0.12499775E+03</rscale>
<asrwt>0</asrwt>
<pdfrwt beam="1">  1       21 0.60893303E-02 0.12499775E+03</pdfrwt>
<pdfrwt beam="2">  1       21 0.15182671E-01 0.12499775E+03</pdfrwt>
<totfact> 0.72270369E+06</totfact>
</mgrwt>
</event>
<event>
 5    0  0.1271695E+000  0.1250120E+03  0.7546771E-02  0.1235051E+00
         21   -1    0    0  503  502  0.00000000000E+00  0.00000000000E+00  0.66321338441E+01  0.66321338441E+01  0.00000000000E+00 0. -1.
         21   -1    0    0  502  503 -0.00000000000E+00 -0.00000000000E+00 -0.58910164855E+03  0.58910164855E+03  0.00000000000E+00 0. -1.
         25    2    1    2    0    0  0.00000000000E+00  0.00000000000E+00 -0.58246951471E+03  0.59573378240E+03  0.12501201512E+03 0.  0.
          4    1    3    3  501    0 -0.14065855578E+02 -0.27958646975E+02 -0.54896665854E+03  0.54986028128E+03  0.15500000000E+01 0.  1.
         -4    1    3    3    0  501  0.14065855578E+02  0.27958646975E+02 -0.33502856167E+02  0.45873501122E+02  0.15500000000E+01 0.  1.
<mgrwt>
<rscale>  2 0.12501202E+03</rscale>
<asrwt>0</asrwt>
<pdfrwt beam="1">  1       21 0.10203280E-02 0.12501202E+03</pdfrwt>
<pdfrwt beam="2">  1       21 0.90631045E-01 0.12501202E+03</pdfrwt>
<totfact> 0.37275145E+06</totfact>
</mgrwt>
</event>
<event>
 5    0  0.1222151E+000  0.1249932E+03  0.7546771E-02  0.1235080E+00
         21   -1    0    0  503  502  0.00000000000E+00  0.00000000000E+00  0.49346882337E+01  0.49346882337E+01  0.00000000000E+00 0.  1.
         21   -1    0    0  502  503 -0.00000000000E+00 -0.00000000000E+00 -0.79150383299E+03  0.79150383299E+03  0.00000000000E+00 0.  1.
         25    2    1    2    0    0  0.00000000000E+00  0.00000000000E+00 -0.78656914476E+03  0.79643852123E+03  0.12499319424E+03 0.  0.
          4    1    3    3  501    0  0.56175292388E+02 -0.27271214696E+02 -0.38047805386E+03  0.38557143903E+03  0.15500000000E+01 0. -1.
         -4    1    3    3    0  501 -0.56175292388E+02  0.27271214696E+02 -0.40609109089E+03  0.41086708219E+03  0.15500000000E+01 0. -1.
<mgrwt>
<rscale>  2 0.12499319E+03</rscale>
<asrwt>0</asrwt>
<pdfrwt beam="1">  1       21 0.75918325E-03 0.12499319E+03</pdfrwt>
<pdfrwt beam="2">  1       21 0.12176975E+00 0.12499319E+03</pdfrwt>
<totfact> 0.29486142E+06</totfact>
</mgrwt>
</event>
<event>
 5    0  0.1307258E+000  0.1250027E+03  0.7546771E-02  0.1235065E+00
         21   -1    0    0  503  502  0.00000000000E+00  0.00000000000E+00  0.34566212456E+03  0.34566212456E+03  0.00000000000E+00 0. -1.
         21   -1    0    0  502  503 -0.00000000000E+00 -0.00000000000E+00 -0.11301266738E+02  0.11301266738E+02  0.00000000000E+00 0. -1.
         25    2    1    2    0    0  0.00000000000E+00  0.00000000000E+00  0.33436085782E+03  0.35696339130E+03  0.12500271790E+03 0.  0.
          4    1    3    3  501    0  0.81122863283E+01 -0.25640130417E+02  0.32823455330E+03  0.32933804815E+03  0.15500000000E+01 0.  1.
         -4    1    3    3    0  501 -0.81122863283E+01  0.25640130417E+02  0.61263045258E+01  0.27625343154E+02  0.15500000000E+01 0.  1.
<mgrwt>
<rscale>  2 0.12500272E+03</rscale>
<asrwt>0</asrwt>
<pdfrwt beam="1">  1       21 0.53178780E-01 0.12500272E+03</pdfrwt>
<pdfrwt beam="2">  1       21 0.17386567E-02 0.12500272E+03</pdfrwt>
<totfact> 0.51024773E+06</totfact>
</mgrwt>
</event>
<event>
 4    0  0.1921692E+000  0.1248860E+03  0.7546771E-02  0.1235248E+00
         21   -1    0    0  503  502  0.00000000000E+00  0.00000000000E+00  0.64575460688E+02  0.64575460688E+02  0.00000000000E+00 0.  1.
         21   -1    0    0  502  503 -0.00000000000E+00 -0.00000000000E+00 -0.60380987738E+02  0.60380987738E+02  0.00000000000E+00 0.  1.
          4    1    1    2  501    0 -0.17086977235E+02 -0.59498939561E+02 -0.59471352160E+01  0.62208194936E+02  0.15500000000E+01 0. -1.
         -4    1    1    2    0  501  0.17086977235E+02  0.59498939561E+02  0.10141608166E+02  0.62748253490E+02  0.15500000000E+01 0. -1.
<mgrwt>
<rscale>  2 0.12488603E+03</rscale>
<asrwt>0</asrwt>
<pdfrwt beam="1">  1       21 0.99346863E-02 0.12488603E+03</pdfrwt>
<pdfrwt beam="2">  1       21 0.92893827E-02 0.12488603E+03</pdfrwt>
<totfact> 0.74265639E+06</totfact>
</mgrwt>
</event>
<event>
 5    0  0.1222151E+000  0.1250498E+03  0.7546771E-02  0.1234992E+00
         21   -1    0    0  503  502  0.00000000000E+00  0.00000000000E+00  0.13541226225E+04  0.13541226225E+04  0.00000000000E+00 0. -1.
         21   -1    0    0  502  503 -0.00000000000E+00 -0.00000000000E+00 -0.28870072031E+01  0.28870072031E+01  0.00000000000E+00 0. -1.
         25    2    1    2    0    0  0.00000000000E+00  0.00000000000E+00  0.13512356153E+04  0.13570096297E+04  0.12504977833E+03 0.  0.
          4    1    3    3  501    0  0.20705232655E+02  0.50760765197E+02  0.10014592428E+04  0.10029598095E+04  0.15500000000E+01 0. -1.
         -4    1    3    3    0  501 -0.20705232655E+02 -0.50760765197E+02  0.34977637247E+03  0.35404982019E+03  0.15500000000E+01 0. -1.
<mgrwt>
<rscale>  2 0.12504978E+03</rscale>
<asrwt>0</asrwt>
<pdfrwt beam="1">  1       21 0.20832605E+00 0.12504978E+03</pdfrwt>
<pdfrwt beam="2">  1       21 0.44415603E-03 0.12504978E+03</pdfrwt>
<totfact> 0.16238751E+06</totfact>
</mgrwt>
</event>
<event>
 5    0  0.1464802E+000  0.1249833E+03  0.7546771E-02  0.1235095E+00
         21   -1    0    0  503  502  0.00000000000E+00  0.00000000000E+00  0.13815183699E+02  0.13815183699E+02  0.00000000000E+00 0.  1.
         21   -1    0    0  502  503 -0.00000000000E+00 -0.00000000000E+00 -0.28267504916E+03  0.28267504916E+03  0.00000000000E+00 0.  1.
         25    2    1    2    0    0  0.00000000000E+00  0.00000000000E+00 -0.26885986546E+03  0.29649023286E+03  0.12498332259E+03 0.  0.
          4    1    3    3  501    0  0.46883378247E+02 -0.22339870697E+02 -0.21680108090E+03  0.22293997433E+03  0.15500000000E+01 0.  1.
         -4    1    3    3    0  501 -0.46883378247E+02  0.22339870697E+02 -0.52058784566E+02  0.73550258525E+02  0.15500000000E+01 0.  1.
<mgrwt>
<rscale>  2 0.12498332E+03</rscale>
<asrwt>0</asrwt>
<pdfrwt beam="1">  1       21 0.21254131E-02 0.12498332E+03</pdfrwt>
<pdfrwt beam="2">  1       21 0.43488465E-01 0.12498332E+03</pdfrwt>
<totfact> 0.55772489E+06</totfact>
</mgrwt>
</event>
<event>
 5    0  0.1481558E+000  0.1250012E+03  0.7546771E-02  0.1235067E+00
         21   -1    0    0  503  502  0.00000000000E+00  0.00000000000E+00  0.69871337892E+02  0.69871337892E+02  0.00000000000E+00 0.  1.
         21   -1    0    0  502  503 -0.00000000000E+00 -0.00000000000E+00 -0.55907425595E+02  0.55907425595E+02  0.00000000000E+00 0.  1.
         25    2    1    2    0    0  0.00000000000E+00  0.00000000000E+00  0.13963912298E+02  0.12577876349E+03  0.12500122598E+03 0.  0.
          4    1    3    3  501    0 -0.36714951841E+02  0.25127625313E+02 -0.37160489735E+02  0.57988703554E+02  0.15500000000E+01 0. -1.
         -4    1    3    3    0  501  0.36714951841E+02 -0.25127625313E+02  0.51124402032E+02  0.67790059933E+02  0.15500000000E+01 0. -1.
<mgrwt>
<rscale>  2 0.12500123E+03</rscale>
<asrwt>0</asrwt>
<pdfrwt beam="1">  1       21 0.10749437E-01 0.12500123E+03</pdfrwt>
<pdfrwt beam="2">  1       21 0.86011424E-02 0.12500123E+03</pdfrwt>
<totfact> 0.73934301E+06</totfact>
</mgrwt>
</event>
<event>
 5    0  0.1222151E+000  0.1249891E+03  0.7546771E-02  0.1235086E+00
         21   -1    0    0  503  502  0.00000000000E+00  0.00000000000E+00  0.47318825350E+01  0.47318825350E+01  0.00000000000E+00 0.  1.
         21   -1    0    0  502  503 -0.00000000000E+00 -0.00000000000E+00 -0.82537301409E+03  0.82537301409E+03  0.00000000000E+00 0.  1.
         25    2    1    2    0    0  0.00000000000E+00  0.00000000000E+00 -0.82064113156E+03  0.83010489663E+03  0.12498908993E+03 0.  0.
          4    1    3    3  501    0 -0.10484374527E+02 -0.33941804505E+02 -0.69000905820E+02  0.77624066540E+02  0.15500000000E+01 0.  1.
         -4    1    3    3    0  501  0.10484374527E+02  0.33941804505E+02 -0.75164022574E+03  0.75248083009E+03  0.15500000000E+01 0.  1.
<mgrwt>
<rscale>  2 0.12498909E+03</rscale>
<asrwt>0</asrwt>
<pdfrwt beam="1">  1       21 0.72798183E-03 0.12498909E+03</pdfrwt>
<pdfrwt beam="2">  1       21 0.12698048E+00 0.12498909E+03</pdfrwt>
<totfact> 0.28397033E+06</totfact>
</mgrwt>
</event>
<event>
 5    0  0.1453918E+000  0.1249954E+03  0.7546771E-02  0.1235076E+00
         21   -1    0    0  503  502  0.00000000000E+00  0.00000000000E+00  0.37915999350E+03  0.37915999350E+03  0.00000000000E+00 0.  1.
         21   -1    0    0  502  503 -0.00000000000E+00 -0.00000000000E+00 -0.10301622698E+02  0.10301622698E+02  0.00000000000E+00 0.  1.
         25    2    1    2    0    0  0.00000000000E+00  0.00000000000E+00  0.36885837080E+03  0.38946161619E+03  0.12499541104E+03 0.  0.
          4    1    3    3  501    0 -0.51640945966E+02 -0.32315462643E+02  0.22765749109E+03  0.23567225584E+03  0.15500000000E+01 0. -1.
         -4    1    3    3    0  501  0.51640945966E+02  0.32315462643E+02  0.14120087971E+03  0.15378936035E+03  0.15500000000E+01 0. -1.
<mgrwt>
<rscale>  2 0.12499541E+03</rscale>
<asrwt>0</asrwt>
<pdfrwt beam="1">  1       21 0.58332296E-01 0.12499541E+03</pdfrwt>
<pdfrwt beam="2">  1       21 0.15848653E-02 0.12499541E+03</pdfrwt>
<totfact> 0.48753894E+06</totfact>
</mgrwt>
</event>
<event>
 5    0  0.1304821E+000  0.1250043E+03  0.7546771E-02  0.1235063E+00
         21   -1    0    0  503  502  0.00000000000E+00  0.00000000000E+00  0.12106313917E+02  0.12106313917E+02  0.00000000000E+00 0.  1.
         21   -1    0    0  502  503 -0.00000000000E+00 -0.00000000000E+00 -0.32268427346E+03  0.32268427346E+03  0.00000000000E+00 0.  1.
         25    2    1    2    0    0  0.00000000000E+00  0.00000000000E+00 -0.31057795954E+03  0.33479058737E+03  0.12500427369E+03 0.  0.
          4    1    3    3  501    0 -0.20041409065E+02 -0.23507471710E+02 -0.98272541872E+01  0.32453608865E+02  0.15500000000E+01 0. -1.
         -4    1    3    3    0  501  0.20041409065E+02  0.23507471710E+02 -0.30075070535E+03  0.30233697851E+03  0.15500000000E+01 0. -1.
<mgrwt>
<rscale>  2 0.12500427E+03</rscale>
<asrwt>0</asrwt>
<pdfrwt beam="1">  1       21 0.18625099E-02 0.12500427E+03</pdfrwt>
<pdfrwt beam="2">  1       21 0.49643734E-01 0.12500427E+03</pdfrwt>
<totfact> 0.52676046E+06</totfact>
</mgrwt>
</event>
<event>
 5    0  0.1222151E+000  0.1249994E+03  0.7546771E-02  0.1235070E+00
         21   -1    0    0  503  502  0.00000000000E+00  0.00000000000E+00  0.10082059937E+04  0.10082059937E+04  0.00000000000E+00 0. -1.
         21   -1    0    0  502  503 -0.00000000000E+00 -0.00000000000E+00 -0.38744213534E+01  0.38744213534E+01  0.00000000000E+00 0. -1.
         25    2    1    2    0    0  0.00000000000E+00  0.00000000000E+00  0.10043315724E+04  0.10120804151E+04  0.12499943729E+03 0.  0.
          4    1    3    3  501    0  0.52888387980E+02  0.25099903876E+02  0.32540104849E+03  0.33062884268E+03  0.15500000000E+01 0. -1.
         -4    1    3    3    0  501 -0.52888387980E+02 -0.25099903876E+02  0.67893052388E+03  0.68145157239E+03  0.15500000000E+01 0. -1.
<mgrwt>
<rscale>  2 0.12499944E+03</rscale>
<asrwt>0</asrwt>
<pdfrwt beam="1">  1       21 0.15510840E+00 0.12499944E+03</pdfrwt>
<pdfrwt beam="2">  1       21 0.59606563E-03 0.12499944E+03</pdfrwt>
<totfact> 0.23319699E+06</totfact>
</mgrwt>
</event>
<event>
 5    0  0.1222151E+000  0.1249962E+03  0.7546771E-02  0.1235075E+00
         21   -1    0    0  503  502  0.00000000000E+00  0.00000000000E+00  0.19485068260E+01  0.19485068260E+01  0.00000000000E+00 0. -1.
         21   -1    0    0  502  503 -0.00000000000E+00 -0.00000000000E+00 -0.20046170619E+04  0.20046170619E+04  0.00000000000E+00 0. -1.
         25    2    1    2    0    0  0.00000000000E+00  0.00000000000E+00 -0.20026685551E+04  0.20065655688E+04  0.12499616040E+03 0.  0.
          4    1    3    3  501    0 -0.12880361961E+02 -0.32969511023E+02 -0.17484311708E+03  0.17839677820E+03  0.15500000000E+01 0.  1.
         -4    1    3    3    0  501  0.12880361961E+02  0.32969511023E+02 -0.18278254380E+04  0.18281687906E+04  0.15500000000E+01 0.  1.
<mgrwt>
<rscale>  2 0.12499616E+03</rscale>
<asrwt>0</asrwt>
<pdfrwt beam="1">  1       21 0.29976967E-03 0.12499616E+03</pdfrwt>
<pdfrwt beam="2">  1       21 0.30840325E+00 0.12499616E+03</pdfrwt>
<totfact> 0.78848057E+05</totfact>
</mgrwt>
</event>
<event>
 5    0  0.1222151E+000  0.1250160E+03  0.7546771E-02  0.1235044E+00
         21   -1    0    0  503  502  0.00000000000E+00  0.00000000000E+00  0.56740618888E+01  0.56740618888E+01  0.00000000000E+00 0. -1.
         21   -1    0    0  502  503 -0.00000000000E+00 -0.00000000000E+00 -0.68861570715E+03  0.68861570715E+03  0.00000000000E+00 0. -1.
         25    2    1    2    0    0  0.00000000000E+00  0.00000000000E+00 -0.68294164526E+03  0.69428976904E+03  0.12501596922E+03 0.  0.
          4    1    3    3  501    0 -0.24516259548E+02 -0.32678936445E+02 -0.60407406220E+03  0.60545589022E+03  0.15500000000E+01 0. -1.
         -4    1    3    3    0  501  0.24516259548E+02  0.32678936445E+02 -0.78867583056E+02  0.88833878822E+02  0.15500000000E+01 0. -1.
<mgrwt>
<rscale>  2 0.12501597E+03</rscale>
<asrwt>0</asrwt>
<pdfrwt beam="1">  1       21 0.87293279E-03 0.12501597E+03</pdfrwt>
<pdfrwt beam="2">  1       21 0.10594085E+00 0.12501597E+03</pdfrwt>
<totfact> 0.33118345E+06</totfact>
</mgrwt>
</event>
<event>
 5    0  0.1524249E+000  0.1249930E+03  0.7546771E-02  0.1235080E+00
         21   -1    0    0  503  502  0.00000000000E+00  0.00000000000E+00  0.53840626148E+02  0.53840626148E+02  0.00000000000E+00 0. -1.
         21   -1    0    0  502  503 -0.00000000000E+00 -0.00000000000E+00 -0.72543989255E+02  0.72543989255E+02  0.00000000000E+00 0. -1.
         25    2    1    2    0    0  0.00000000000E+00  0.00000000000E+00 -0.18703363107E+02  0.12638461540E+03  0.12499302068E+03 0.  0.
          4    1    3    3  501    0  0.10263517582E+02  0.33196652277E+02 -0.61853303912E+02  0.70961899780E+02  0.15500000000E+01 0.  1.
         -4    1    3    3    0  501 -0.10263517582E+02 -0.33196652277E+02  0.43149940805E+02  0.55422715623E+02  0.15500000000E+01 0.  1.
<mgrwt>
<rscale>  2 0.12499302E+03</rscale>
<asrwt>0</asrwt>
<pdfrwt beam="1">  1       21 0.82831733E-02 0.12499302E+03</pdfrwt>
<pdfrwt beam="2">  1       21 0.11160614E-01 0.12499302E+03</pdfrwt>
<totfact> 0.73866330E+06</totfact>
</mgrwt>
</event>
<event>
 5    0  0.1529029E+000  0.1249987E+03  0.7546771E-02  0.1235071E+00
         21   -1    0    0  503  502  0.00000000000E+00  0.00000000000E+00  0.80575292627E+02  0.80575292627E+02  0.00000000000E+00 0. -1.
         21   -1    0    0  502  503 -0.00000000000E+00 -0.00000000000E+00 -0.48478463159E+02  0.48478463159E+02  0.00000000000E+00 0. -1.
         25    2    1    2    0    0  0.00000000000E+00  0.00000000000E+00  0.32096829468E+02  0.12905375579E+03  0.12499866168E+03 0.  0.
          4    1    3    3  501    0 -0.35107071648E+02 -0.34137353645E+02 -0.24016399162E+02  0.54562398429E+02  0.15500000000E+01 0.  1.
         -4    1    3    3    0  501  0.35107071648E+02  0.34137353645E+02  0.56113228630E+02  0.74491357357E+02  0.15500000000E+01 0.  1.
<mgrwt>
<rscale>  2 0.12499866E+03</rscale>
<asrwt>0</asrwt>
<pdfrwt beam="1">  1       21 0.12396199E-01 0.12499866E+03</pdfrwt>
<pdfrwt beam="2">  1       21 0.74582251E-02 0.12499866E+03</pdfrwt>
<totfact> 0.73494173E+06</totfact>
</mgrwt>
</event>
<event>
 5    0  0.1336326E+000  0.1250116E+03  0.7546771E-02  0.1235051E+00
         21   -1    0    0  503  502  0.00000000000E+00  0.00000000000E+00  0.46334287836E+03  0.46334287836E+03  0.00000000000E+00 0.  1.
         21   -1    0    0  502  503 -0.00000000000E+00 -0.00000000000E+00 -0.84321424519E+01  0.84321424519E+01  0.00000000000E+00 0.  1.
         25    2    1    2    0    0  0.00000000000E+00  0.00000000000E+00  0.45491073591E+03  0.47177502081E+03  0.12501156993E+03 0.  0.
          4    1    3    3  501    0 -0.42360832113E+02 -0.35604785413E+02  0.11792069973E+03  0.13026831836E+03  0.15500000000E+01 0. -1.
         -4    1    3    3    0  501  0.42360832113E+02  0.35604785413E+02  0.33699003617E+03  0.34150670245E+03  0.15500000000E+01 0. -1.
<mgrwt>
<rscale>  2 0.12501157E+03</rscale>
<asrwt>0</asrwt>
<pdfrwt beam="1">  1       21 0.71283500E-01 0.12501157E+03</pdfrwt>
<pdfrwt beam="2">  1       21 0.12972530E-02 0.12501157E+03</pdfrwt>
<totfact> 0.43604767E+06</totfact>
</mgrwt>
</event>
<event>
 5    0  0.1222151E+000  0.1249992E+03  0.7546771E-02  0.1235070E+00
         21   -1    0    0  503  502  0.00000000000E+00  0.00000000000E+00  0.20350933860E+04  0.20350933860E+04  0.00000000000E+00 0. -1.
         21   -1    0    0  502  503 -0.00000000000E+00 -0.00000000000E+00 -0.19194213787E+01  0.19194213787E+01  0.00000000000E+00 0. -1.
         25    2    1    2    0    0  0.00000000000E+00  0.00000000000E+00  0.20331739647E+04  0.20370128074E+04  0.12499922804E+03 0.  0.
          4    1    3    3  501    0 -0.75006160775E+01  0.58943531182E+02  0.70177059611E+03  0.70428330320E+03  0.15500000000E+01 0.  1.
         -4    1    3    3    0  501  0.75006160775E+01 -0.58943531182E+02  0.13314033685E+04  0.13327295042E+04  0.15500000000E+01 0.  1.
<mgrwt>
<rscale>  2 0.12499923E+03</rscale>
<asrwt>0</asrwt>
<pdfrwt beam="1">  1       21 0.31308956E+00 0.12499923E+03</pdfrwt>
<pdfrwt beam="2">  1       21 0.29529722E-03 0.12499923E+03</pdfrwt>
<totfact> 0.75928971E+05</totfact>
</mgrwt>
</event>
<event>
 5    0  0.1440007E+000  0.1250001E+03  0.7546771E-02  0.1235069E+00
         21   -1    0    0  503  502  0.00000000000E+00  0.00000000000E+00  0.22904678912E+03  0.22904678912E+03  0.00000000000E+00 0.  1.
         21   -1    0    0  502  503 -0.00000000000E+00 -0.00000000000E+00 -0.17054415187E+02  0.17054415187E+02  0.00000000000E+00 0.  1.
         25    2    1    2    0    0  0.00000000000E+00  0.00000000000E+00  0.21199237394E+03  0.24610120431E+03  0.12500014462E+03 0.  0.
          4    1    3    3  501    0 -0.43419045636E+02  0.20062895073E+02  0.26848092506E+02  0.54872177411E+02  0.15500000000E+01 0. -1.
         -4    1    3    3    0  501  0.43419045636E+02 -0.20062895073E+02  0.18514428143E+03  0.19122902690E+03  0.15500000000E+01 0. -1.
<mgrwt>
<rscale>  2 0.12500014E+03</rscale>
<asrwt>0</asrwt>
<pdfrwt beam="1">  1       21 0.35237965E-01 0.12500014E+03</pdfrwt>
<pdfrwt beam="2">  1       21 0.26237564E-02 0.12500014E+03</pdfrwt>
<totfact> 0.60246991E+06</totfact>
</mgrwt>
</event>
<event>
 5    0  0.1222151E+000  0.1249918E+03  0.7546771E-02  0.1235082E+00
         21   -1    0    0  503  502  0.00000000000E+00  0.00000000000E+00  0.43901675630E+01  0.43901675630E+01  0.00000000000E+00 0. -1.
         21   -1    0    0  502  503 -0.00000000000E+00 -0.00000000000E+00 -0.88965554155E+03  0.88965554155E+03  0.00000000000E+00 0. -1.
         25    2    1    2    0    0  0.00000000000E+00  0.00000000000E+00 -0.88526537399E+03  0.89404570912E+03  0.12499179014E+03 0.  0.
          4    1    3    3  501    0 -0.43532450359E+02  0.39615959230E+02 -0.29279214693E+03  0.29865388372E+03  0.15500000000E+01 0.  1.
         -4    1    3    3    0  501  0.43532450359E+02 -0.39615959230E+02 -0.59247322706E+03  0.59539182539E+03  0.15500000000E+01 0.  1.
<mgrwt>
<rscale>  2 0.12499179E+03</rscale>
<asrwt>0</asrwt>
<pdfrwt beam="1">  1       21 0.67541150E-03 0.12499179E+03</pdfrwt>
<pdfrwt beam="2">  1       21 0.13686986E+00 0.12499179E+03</pdfrwt>
<totfact> 0.26476460E+06</totfact>
</mgrwt>
</event>
<event>
 5    0  0.1563713E+000  0.1250021E+03  0.7546771E-02  0.1235066E+00
         21   -1    0    0  503  502  0.00000000000E+00  0.00000000000E+00  0.32092642062E+02  0.32092642062E+02  0.00000000000E+00 0. -1.
         21   -1    0    0  502  503 -0.00000000000E+00 -0.00000000000E+00 -0.12172211296E+03  0.12172211296E+03  0.00000000000E+00 0. -1.
         25    2    1    2    0    0  0.00000000000E+00  0.00000000000E+00 -0.89629470902E+02  0.15381475503E+03  0.12500214722E+03 0.  0.
          4    1    3    3  501    0 -0.43629957218E+02 -0.41152356919E+02 -0.23258478686E+02  0.64346320622E+02  0.15500000000E+01 0. -1.
         -4    1    3    3    0  501  0.43629957218E+02  0.41152356919E+02 -0.66370992216E+02  0.89468434403E+02  0.15500000000E+01 0. -1.
<mgrwt>
<rscale>  2 0.12500215E+03</rscale>
<asrwt>0</asrwt>
<pdfrwt beam="1">  1       21 0.49373296E-02 0.12500215E+03</pdfrwt>
<pdfrwt beam="2">  1       21 0.18726479E-01 0.12500215E+03</pdfrwt>
<totfact> 0.70279383E+06</totfact>
</mgrwt>
</event>
<event>
 5    0  0.1551270E+000  0.1249970E+03  0.7546771E-02  0.1235074E+00
         21   -1    0    0  503  502  0.00000000000E+00  0.00000000000E+00  0.13770705090E+03  0.13770705090E+03  0.00000000000E+00 0.  1.
         21   -1    0    0  502  503 -0.00000000000E+00 -0.00000000000E+00 -0.28365001057E+02  0.28365001057E+02  0.00000000000E+00 0.  1.
         25    2    1    2    0    0  0.00000000000E+00  0.00000000000E+00  0.10934204985E+03  0.16607205196E+03  0.12499697027E+03 0.  0.
          4    1    3    3  501    0 -0.51516696487E+02  0.12791529760E+02  0.10886065344E+02  0.54207953007E+02  0.15500000000E+01 0. -1.
         -4    1    3    3    0  501  0.51516696487E+02 -0.12791529760E+02  0.98455984502E+02  0.11186409895E+03  0.15500000000E+01 0. -1.
<mgrwt>
<rscale>  2 0.12499697E+03</rscale>
<asrwt>0</asrwt>
<pdfrwt beam="1">  1       21 0.21185700E-01 0.12499697E+03</pdfrwt>
<pdfrwt beam="2">  1       21 0.43638464E-02 0.12499697E+03</pdfrwt>
<totfact> 0.68790359E+06</totfact>
</mgrwt>
</event>
<event>
 5    0  0.1581807E+000  0.1249894E+03  0.7546771E-02  0.1235086E+00
         21   -1    0    0  503  502  0.00000000000E+00  0.00000000000E+00  0.39875548174E+02  0.39875548174E+02  0.00000000000E+00 0. -1.
         21   -1    0    0  502  503 -0.00000000000E+00 -0.00000000000E+00 -0.97944428900E+02  0.97944428900E+02  0.00000000000E+00 0. -1.
         25    2    1    2    0    0  0.00000000000E+00  0.00000000000E+00 -0.58068880726E+02  0.13781997707E+03  0.12498940424E+03 0.  0.
          4    1    3    3  501    0  0.56243553165E+02  0.27069592392E+02 -0.26099396014E+02  0.67673340963E+02  0.15500000000E+01 0. -1.
         -4    1    3    3    0  501 -0.56243553165E+02 -0.27069592392E+02 -0.31969484712E+02  0.70146636110E+02  0.15500000000E+01 0. -1.
<mgrwt>
<rscale>  2 0.12498940E+03</rscale>
<asrwt>0</asrwt>
<pdfrwt beam="1">  1       21 0.61346998E-02 0.12498940E+03</pdfrwt>
<pdfrwt beam="2">  1       21 0.15068373E-01 0.12498940E+03</pdfrwt>
<totfact> 0.72344730E+06</totfact>
</mgrwt>
</event>
<event>
 5    0  0.1446853E+000  0.1250065E+03  0.7546771E-02  0.1235059E+00
         21   -1    0    0  503  502  0.00000000000E+00  0.00000000000E+00  0.24337474808E+03  0.24337474808E+03  0.00000000000E+00 0.  1.
         21   -1    0    0  502  503 -0.00000000000E+00 -0.00000000000E+00 -0.16052023301E+02  0.16052023301E+02  0.00000000000E+00 0.  1.
         25    2    1    2    0    0  0.00000000000E+00  0.00000000000E+00  0.22732272478E+03  0.25942677138E+03  0.12500651386E+03 0.  0.
          4    1    3    3  501    0 -0.47413637103E+02  0.33209443464E+02  0.16247891746E+03  0.17248977140E+03  0.15500000000E+01 0.  1.
         -4    1    3    3    0  501  0.47413637103E+02 -0.33209443464E+02  0.64843807323E+02  0.86936999986E+02  0.15500000000E+01 0.  1.
<mgrwt>
<rscale>  2 0.12500651E+03</rscale>
<asrwt>0</asrwt>
<pdfrwt beam="1">  1       21 0.37442266E-01 0.12500651E+03</pdfrwt>
<pdfrwt beam="2">  1       21 0.24695422E-02 0.12500651E+03</pdfrwt>
<totfact> 0.58992171E+06</totfact>
</mgrwt>
</event>
<event>
 5    0  0.1515273E+000  0.1250126E+03  0.7546771E-02  0.1235050E+00
         21   -1    0    0  503  502  0.00000000000E+00  0.00000000000E+00  0.14545658508E+03  0.14545658508E+03  0.00000000000E+00 0. -1.
         21   -1    0    0  502  503 -0.00000000000E+00 -0.00000000000E+00 -0.26860522577E+02  0.26860522577E+02  0.00000000000E+00 0. -1.
         25    2    1    2    0    0  0.00000000000E+00  0.00000000000E+00  0.11859606251E+03  0.17231710766E+03  0.12501263756E+03 0.  0.
          4    1    3    3  501    0  0.30044574077E+02 -0.49694201977E+02  0.27491759099E+02  0.64268106087E+02  0.15500000000E+01 0.  1.
         -4    1    3    3    0  501 -0.30044574077E+02  0.49694201977E+02  0.91104303409E+02  0.10804900157E+03  0.15500000000E+01 0.  1.
<mgrwt>
<rscale>  2 0.12501264E+03</rscale>
<asrwt>0</asrwt>
<pdfrwt beam="1">  1       21 0.22377936E-01 0.12501264E+03</pdfrwt>
<pdfrwt beam="2">  1       21 0.41323882E-02 0.12501264E+03</pdfrwt>
<totfact> 0.68022191E+06</totfact>
</mgrwt>
</event>
<event>
 5    0  0.1451406E+000  0.1250051E+03  0.7546771E-02  0.1235061E+00
         21   -1    0    0  503  502  0.00000000000E+00  0.00000000000E+00  0.15040738159E+02  0.15040738159E+02  0.00000000000E+00 0.  1.
         21   -1    0    0  502  503 -0.00000000000E+00 -0.00000000000E+00 -0.25973244815E+03  0.25973244815E+03  0.00000000000E+00 0.  1.
         25    2    1    2    0    0  0.00000000000E+00  0.00000000000E+00 -0.24469170999E+03  0.27477318631E+03  0.12500508380E+03 0.  0.
          4    1    3    3  501    0  0.28245580745E+02 -0.55724546769E+02 -0.12467966983E+03  0.13946490782E+03  0.15500000000E+01 0. -1.
         -4    1    3    3    0  501 -0.28245580745E+02  0.55724546769E+02 -0.12001204016E+03  0.13530827849E+03  0.15500000000E+01 0. -1.
<mgrwt>
<rscale>  2 0.12500508E+03</rscale>
<asrwt>0</asrwt>
<pdfrwt beam="1">  1       21 0.23139598E-02 0.12500508E+03</pdfrwt>
<pdfrwt beam="2">  1       21 0.39958837E-01 0.12500508E+03</pdfrwt>
<totfact> 0.57612645E+06</totfact>
</mgrwt>
</event>
<event>
 5    0  0.1432942E+000  0.1249909E+03  0.7546771E-02  0.1235084E+00
         21   -1    0    0  503  502  0.00000000000E+00  0.00000000000E+00  0.17099998746E+03  0.17099998746E+03  0.00000000000E+00 0.  1.
         21   -1    0    0  502  503 -0.00000000000E+00 -0.00000000000E+00 -0.22840225323E+02  0.22840225323E+02  0.00000000000E+00 0.  1.
         25    2    1    2    0    0  0.00000000000E+00  0.00000000000E+00  0.14815976213E+03  0.19384021278E+03  0.12499085156E+03 0.  0.
          4    1    3    3  501    0  0.40035288263E+02 -0.38136355693E+02  0.11918945765E+03  0.13139914478E+03  0.15500000000E+01 0. -1.
         -4    1    3    3    0  501 -0.40035288263E+02  0.38136355693E+02  0.28970304480E+02  0.62441068004E+02  0.15500000000E+01 0. -1.
<mgrwt>
<rscale>  2 0.12499085E+03</rscale>
<asrwt>0</asrwt>
<pdfrwt beam="1">  1       21 0.26307690E-01 0.12499085E+03</pdfrwt>
<pdfrwt beam="2">  1       21 0.35138809E-02 0.12499085E+03</pdfrwt>
<totfact> 0.65613387E+06</totfact>
</mgrwt>
</event>
<event>
 5    0  0.1430101E+000  0.1250029E+03  0.7546771E-02  0.1235065E+00
         21   -1    0    0  503  502  0.00000000000E+00  0.00000000000E+00  0.17686584093E+02  0.17686584093E+02  0.00000000000E+00 0.  1.
         21   -1    0    0  502  503 -0.00000000000E+00 -0.00000000000E+00 -0.22086983442E+03  0.22086983442E+03  0.00000000000E+00 0.  1.
         25    2    1    2    0    0  0.00000000000E+00  0.00000000000E+00 -0.20318325033E+03  0.23855641851E+03  0.12500292637E+03 0.  0.
          4    1    3    3  501    0 -0.36052660601E+02  0.16366481545E+02 -0.19383647757E+03  0.19784498627E+03  0.15500000000E+01 0. -1.
         -4    1    3    3    0  501  0.36052660601E+02 -0.16366481545E+02 -0.93467727598E+01  0.40711432247E+02  0.15500000000E+01 0. -1.
<mgrwt>
<rscale>  2 0.12500293E+03</rscale>
<asrwt>0</asrwt>
<pdfrwt beam="1">  1       21 0.27210130E-02 0.12500293E+03</pdfrwt>
<pdfrwt beam="2">  1       21 0.33979973E-01 0.12500293E+03</pdfrwt>
<totfact> 0.60968135E+06</totfact>
</mgrwt>
</event>
<event>
 5    0  0.1529025E+000  0.1250026E+03  0.7546771E-02  0.1235065E+00
         21   -1    0    0  503  502  0.00000000000E+00  0.00000000000E+00  0.42739955247E+02  0.42739955247E+02  0.00000000000E+00 0.  1.
         21   -1    0    0  502  503 -0.00000000000E+00 -0.00000000000E+00 -0.91399476425E+02  0.91399476425E+02  0.00000000000E+00 0.  1.
         25    2    1    2    0    0  0.00000000000E+00  0.00000000000E+00 -0.48659521178E+02  0.13413943167E+03  0.12500255249E+03 0.  0.
          4    1    3    3  501    0 -0.57833134955E+02 -0.22177651727E+02 -0.33145294053E+02  0.70267579670E+02  0.15500000000E+01 0. -1.
         -4    1    3    3    0  501  0.57833134955E+02  0.22177651727E+02 -0.15514227125E+02  0.63871852001E+02  0.15500000000E+01 0. -1.
<mgrwt>
<rscale>  2 0.12500255E+03</rscale>
<asrwt>0</asrwt>
<pdfrwt beam="1">  1       21 0.65753778E-02 0.12500255E+03</pdfrwt>
<pdfrwt beam="2">  1       21 0.14061458E-01 0.12500255E+03</pdfrwt>
<totfact> 0.72805880E+06</totfact>
</mgrwt>
</event>
<event>
 5    0  0.1550038E+000  0.1250028E+03  0.7546771E-02  0.1235065E+00
         21   -1    0    0  503  502  0.00000000000E+00  0.00000000000E+00  0.31753360754E+02  0.31753360754E+02  0.00000000000E+00 0.  1.
         21   -1    0    0  502  503 -0.00000000000E+00 -0.00000000000E+00 -0.12302394487E+03  0.12302394487E+03  0.00000000000E+00 0.  1.
         25    2    1    2    0    0  0.00000000000E+00  0.00000000000E+00 -0.91270584113E+02  0.15477730562E+03  0.12500277921E+03 0.  0.
          4    1    3    3  501    0  0.29845519678E+02 -0.54636260239E+02 -0.52204151593E+02  0.81262241671E+02  0.15500000000E+01 0. -1.
         -4    1    3    3    0  501 -0.29845519678E+02  0.54636260239E+02 -0.39066432519E+02  0.73515063950E+02  0.15500000000E+01 0. -1.
<mgrwt>
<rscale>  2 0.12500278E+03</rscale>
<asrwt>0</asrwt>
<pdfrwt beam="1">  1       21 0.48851325E-02 0.12500278E+03</pdfrwt>
<pdfrwt beam="2">  1       21 0.18926761E-01 0.12500278E+03</pdfrwt>
<totfact> 0.70158388E+06</totfact>
</mgrwt>
</event>
<event>
 5    0  0.1483755E+000  0.1250032E+03  0.7546771E-02  0.1235064E+00
         21   -1    0    0  503  502  0.00000000000E+00  0.00000000000E+00  0.17890719916E+02  0.17890719916E+02  0.00000000000E+00 0.  1.
         21   -1    0    0  502  503 -0.00000000000E+00 -0.00000000000E+00 -0.21835080196E+03  0.21835080196E+03  0.00000000000E+00 0.  1.
         25    2    1    2    0    0  0.00000000000E+00  0.00000000000E+00 -0.20046008204E+03  0.23624152188E+03  0.12500324862E+03 0.  0.
          4    1    3    3  501    0  0.52631309794E+02  0.22612507150E+02 -0.14738897773E+03  0.15813694542E+03  0.15500000000E+01 0.  1.
         -4    1    3    3    0  501 -0.52631309794E+02 -0.22612507150E+02 -0.53071104313E+02  0.78104576455E+02  0.15500000000E+01 0.  1.
<mgrwt>
<rscale>  2 0.12500325E+03</rscale>
<asrwt>0</asrwt>
<pdfrwt beam="1">  1       21 0.27524185E-02 0.12500325E+03</pdfrwt>
<pdfrwt beam="2">  1       21 0.33592430E-01 0.12500325E+03</pdfrwt>
<totfact> 0.61193254E+06</totfact>
</mgrwt>
</event>
<event>
 5    0  0.1222151E+000  0.1249337E+03  0.7546771E-02  0.1235173E+00
         21   -1    0    0  503  502  0.00000000000E+00  0.00000000000E+00  0.92733900259E+01  0.92733900259E+01  0.00000000000E+00 0.  1.
         21   -1    0    0  502  503 -0.00000000000E+00 -0.00000000000E+00 -0.42078561131E+03  0.42078561131E+03  0.00000000000E+00 0.  1.
         25    2    1    2    0    0  0.00000000000E+00  0.00000000000E+00 -0.41151222128E+03  0.43005900134E+03  0.12493372789E+03 0.  0.
          4    1    3    3  501    0 -0.31086812067E+02  0.49022039214E+02 -0.12649679134E+03  0.13918832901E+03  0.15500000000E+01 0. -1.
         -4    1    3    3    0  501  0.31086812067E+02 -0.49022039214E+02 -0.28501542994E+03  0.29087067232E+03  0.15500000000E+01 0. -1.
<mgrwt>
<rscale>  2 0.12493373E+03</rscale>
<asrwt>0</asrwt>
<pdfrwt beam="1">  1       21 0.14266756E-02 0.12493373E+03</pdfrwt>
<pdfrwt beam="2">  1       21 0.64736237E-01 0.12493373E+03</pdfrwt>
<totfact> 0.46185819E+06</totfact>
</mgrwt>
</event>
<event>
 5    0  0.1452987E+000  0.1250001E+03  0.7546771E-02  0.1235069E+00
         21   -1    0    0  503  502  0.00000000000E+00  0.00000000000E+00  0.19014580285E+02  0.19014580285E+02  0.00000000000E+00 0.  1.
         21   -1    0    0  502  503 -0.00000000000E+00 -0.00000000000E+00 -0.20543467984E+03  0.20543467984E+03  0.00000000000E+00 0.  1.
         25    2    1    2    0    0  0.00000000000E+00  0.00000000000E+00 -0.18642009955E+03  0.22444926012E+03  0.12500006741E+03 0.  0.
          4    1    3    3  501    0 -0.47741325993E+02 -0.26117042122E+02 -0.14833556595E+03  0.15801005260E+03  0.15500000000E+01 0. -1.
         -4    1    3    3    0  501  0.47741325993E+02  0.26117042122E+02 -0.38084533605E+02  0.66439207526E+02  0.15500000000E+01 0. -1.
<mgrwt>
<rscale>  2 0.12500007E+03</rscale>
<asrwt>0</asrwt>
<pdfrwt beam="1">  1       21 0.29253203E-02 0.12500007E+03</pdfrwt>
<pdfrwt beam="2">  1       21 0.31605332E-01 0.12500007E+03</pdfrwt>
<totfact> 0.62370530E+06</totfact>
</mgrwt>
</event>
<event>
 5    0  0.1222151E+000  0.1249998E+03  0.7546771E-02  0.1235070E+00
         21   -1    0    0  503  502  0.00000000000E+00  0.00000000000E+00  0.81999576474E+03  0.81999576474E+03  0.00000000000E+00 0.  1.
         21   -1    0    0  502  503 -0.00000000000E+00 -0.00000000000E+00 -0.47637268792E+01  0.47637268792E+01  0.00000000000E+00 0.  1.
         25    2    1    2    0    0  0.00000000000E+00  0.00000000000E+00  0.81523203786E+03  0.82475949162E+03  0.12499977384E+03 0.  0.
          4    1    3    3  501    0 -0.47371171285E+02  0.21730475488E+02  0.63499573203E+03  0.63713281474E+03  0.15500000000E+01 0.  1.
         -4    1    3    3    0  501  0.47371171285E+02 -0.21730475488E+02  0.18023630584E+03  0.18762667688E+03  0.15500000000E+01 0.  1.
<mgrwt>
<rscale>  2 0.12499977E+03</rscale>
<asrwt>0</asrwt>
<pdfrwt beam="1">  1       21 0.12615308E+00 0.12499977E+03</pdfrwt>
<pdfrwt beam="2">  1       21 0.73288171E-03 0.12499977E+03</pdfrwt>
<totfact> 0.28558927E+06</totfact>
</mgrwt>
</event>
<event>
 5    0  0.1436214E+000  0.1249964E+03  0.7546771E-02  0.1235075E+00
         21   -1    0    0  503  502  0.00000000000E+00  0.00000000000E+00  0.15332933432E+03  0.15332933432E+03  0.00000000000E+00 0.  1.
         21   -1    0    0  502  503 -0.00000000000E+00 -0.00000000000E+00 -0.25474723289E+02  0.25474723289E+02  0.00000000000E+00 0.  1.
         25    2    1    2    0    0  0.00000000000E+00  0.00000000000E+00  0.12785461103E+03  0.17880405761E+03  0.12499635777E+03 0.  0.
          4    1    3    3  501    0  0.23363334494E+02 -0.44967828299E+02  0.11620656362E+03  0.12678453734E+03  0.15500000000E+01 0.  1.
         -4    1    3    3    0  501 -0.23363334494E+02  0.44967828299E+02  0.11648047415E+02  0.52019520271E+02  0.15500000000E+01 0.  1.
<mgrwt>
<rscale>  2 0.12499636E+03</rscale>
<asrwt>0</asrwt>
<pdfrwt beam="1">  1       21 0.23589128E-01 0.12499636E+03</pdfrwt>
<pdfrwt beam="2">  1       21 0.39191883E-02 0.12499636E+03</pdfrwt>
<totfact> 0.67295214E+06</totfact>
</mgrwt>
</event>
<event>
 5    0  0.1576182E+000  0.1250044E+03  0.7546771E-02  0.1235062E+00
         21   -1    0    0  503  502  0.00000000000E+00  0.00000000000E+00  0.35588232221E+02  0.35588232221E+02  0.00000000000E+00 0.  1.
         21   -1    0    0  502  503 -0.00000000000E+00 -0.00000000000E+00 -0.10977019328E+03  0.10977019328E+03  0.00000000000E+00 0.  1.
         25    2    1    2    0    0  0.00000000000E+00  0.00000000000E+00 -0.74181961064E+02  0.14535842551E+03  0.12500443399E+03 0.  0.
          4    1    3    3  501    0 -0.61692758768E+02  0.33437584059E+01 -0.26248137911E+02  0.67145695681E+02  0.15500000000E+01 0.  1.
         -4    1    3    3    0  501  0.61692758768E+02 -0.33437584059E+01 -0.47933823153E+02  0.78212729825E+02  0.15500000000E+01 0.  1.
<mgrwt>
<rscale>  2 0.12500443E+03</rscale>
<asrwt>0</asrwt>
<pdfrwt beam="1">  1       21 0.54751127E-02 0.12500443E+03</pdfrwt>
<pdfrwt beam="2">  1       21 0.16887722E-01 0.12500443E+03</pdfrwt>
<totfact> 0.71339205E+06</totfact>
</mgrwt>
</event>
<event>
 5    0  0.1492611E+000  0.1250058E+03  0.7546771E-02  0.1235060E+00
         21   -1    0    0  503  502  0.00000000000E+00  0.00000000000E+00  0.33180004981E+02  0.33180004981E+02  0.00000000000E+00 0.  1.
         21   -1    0    0  502  503 -0.00000000000E+00 -0.00000000000E+00 -0.11773992225E+03  0.11773992225E+03  0.00000000000E+00 0.  1.
         25    2    1    2    0    0  0.00000000000E+00  0.00000000000E+00 -0.84559917273E+02  0.15091992724E+03  0.12500577918E+03 0.  0.
          4    1    3    3  501    0 -0.52012029488E+02 -0.16403308670E+02 -0.79095572095E+02  0.96087625487E+02  0.15500000000E+01 0.  1.
         -4    1    3    3    0  501  0.52012029488E+02  0.16403308670E+02 -0.54643451777E+01  0.54832301748E+02  0.15500000000E+01 0.  1.
<mgrwt>
<rscale>  2 0.12500578E+03</rscale>
<asrwt>0</asrwt>
<pdfrwt beam="1">  1       21 0.51046162E-02 0.12500578E+03</pdfrwt>
<pdfrwt beam="2">  1       21 0.18113834E-01 0.12500578E+03</pdfrwt>
<totfact> 0.70633442E+06</totfact>
</mgrwt>
</event>
<event>
 5    0  0.1472171E+000  0.1249936E+03  0.7546771E-02  0.1235079E+00
         21   -1    0    0  503  502  0.00000000000E+00  0.00000000000E+00  0.14449101488E+02  0.14449101488E+02  0.00000000000E+00 0. -1.
         21   -1    0    0  502  503 -0.00000000000E+00 -0.00000000000E+00 -0.27031777736E+03  0.27031777736E+03  0.00000000000E+00 0. -1.
         25    2    1    2    0    0  0.00000000000E+00  0.00000000000E+00 -0.25586867587E+03  0.28476687885E+03  0.12499358382E+03 0.  0.
          4    1    3    3  501    0 -0.60040441780E+02 -0.16546811901E+02 -0.13927876684E+03  0.15257663328E+03  0.15500000000E+01 0.  1.
         -4    1    3    3    0  501  0.60040441780E+02  0.16546811901E+02 -0.11658990904E+03  0.13219024556E+03  0.15500000000E+01 0.  1.
<mgrwt>
<rscale>  2 0.12499358E+03</rscale>
<asrwt>0</asrwt>
<pdfrwt beam="1">  1       21 0.22229388E-02 0.12499358E+03</pdfrwt>
<pdfrwt beam="2">  1       21 0.41587348E-01 0.12499358E+03</pdfrwt>
<totfact> 0.56755510E+06</totfact>
</mgrwt>
</event>
<event>
 5    0  0.1479950E+000  0.1250006E+03  0.7546771E-02  0.1235068E+00
         21   -1    0    0  503  502  0.00000000000E+00  0.00000000000E+00  0.47086761321E+02  0.47086761321E+02  0.00000000000E+00 0.  1.
         21   -1    0    0  502  503 -0.00000000000E+00 -0.00000000000E+00 -0.82959357764E+02  0.82959357764E+02  0.00000000000E+00 0.  1.
         25    2    1    2    0    0  0.00000000000E+00  0.00000000000E+00 -0.35872596443E+02  0.13004611908E+03  0.12500059965E+03 0.  0.
          4    1    3    3  501    0 -0.46161971659E+02  0.18238096823E+02  0.21547250433E+02  0.54131712558E+02  0.15500000000E+01 0. -1.
         -4    1    3    3    0  501  0.46161971659E+02 -0.18238096823E+02 -0.57419846876E+02  0.75914406527E+02  0.15500000000E+01 0. -1.
<mgrwt>
<rscale>  2 0.12500060E+03</rscale>
<asrwt>0</asrwt>
<pdfrwt beam="1">  1       21 0.72441172E-02 0.12500060E+03</pdfrwt>
<pdfrwt beam="2">  1       21 0.12762978E-01 0.12500060E+03</pdfrwt>
<totfact> 0.73357629E+06</totfact>
</mgrwt>
</event>
<event>
 5    0  0.1415688E+000  0.1250119E+03  0.7546771E-02  0.1235051E+00
         21   -1    0    0  503  502  0.00000000000E+00  0.00000000000E+00  0.34598280572E+03  0.34598280572E+03  0.00000000000E+00 0.  1.
         21   -1    0    0  502  503 -0.00000000000E+00 -0.00000000000E+00 -0.11292458393E+02  0.11292458393E+02  0.00000000000E+00 0.  1.
         25    2    1    2    0    0  0.00000000000E+00  0.00000000000E+00  0.33469034733E+03  0.35727526411E+03  0.12501194244E+03 0.  0.
          4    1    3    3  501    0  0.46289529869E+02 -0.30870204034E+02  0.86062140566E+02  0.10249285151E+03  0.15500000000E+01 0. -1.
         -4    1    3    3    0  501 -0.46289529869E+02  0.30870204034E+02  0.24862820676E+03  0.25478241260E+03  0.15500000000E+01 0. -1.
<mgrwt>
<rscale>  2 0.12501194E+03</rscale>
<asrwt>0</asrwt>
<pdfrwt beam="1">  1       21 0.53228116E-01 0.12501194E+03</pdfrwt>
<pdfrwt beam="2">  1       21 0.17373016E-02 0.12501194E+03</pdfrwt>
<totfact> 0.50990334E+06</totfact>
</mgrwt>
</event>
<event>
 5    0  0.1280550E+000  0.1249982E+03  0.7546771E-02  0.1235072E+00
         21   -1    0    0  503  502  0.00000000000E+00  0.00000000000E+00  0.55713168633E+01  0.55713168633E+01  0.00000000000E+00 0. -1.
         21   -1    0    0  502  503 -0.00000000000E+00 -0.00000000000E+00 -0.70111581774E+03  0.70111581774E+03  0.00000000000E+00 0. -1.
         25    2    1    2    0    0  0.00000000000E+00  0.00000000000E+00 -0.69554450088E+03  0.70668713461E+03  0.12499821404E+03 0.  0.
          4    1    3    3  501    0  0.55032040946E+01  0.58705203936E+02 -0.46461813120E+03  0.46834708984E+03  0.15500000000E+01 0. -1.
         -4    1    3    3    0  501 -0.55032040946E+01 -0.58705203936E+02 -0.23092636968E+03  0.23834004476E+03  0.15500000000E+01 0. -1.
<mgrwt>
<rscale>  2 0.12499821E+03</rscale>
<asrwt>0</asrwt>
<pdfrwt beam="1">  1       21 0.85712555E-03 0.12499821E+03</pdfrwt>
<pdfrwt beam="2">  1       21 0.10786399E+00 0.12499821E+03</pdfrwt>
<totfact> 0.32655360E+06</totfact>
</mgrwt>
</event>
<event>
 5    0  0.1222151E+000  0.1250096E+03  0.7546771E-02  0.1235054E+00
         21   -1    0    0  503  502  0.00000000000E+00  0.00000000000E+00  0.16679108693E+04  0.16679108693E+04  0.00000000000E+00 0.  1.
         21   -1    0    0  502  503 -0.00000000000E+00 -0.00000000000E+00 -0.23423623879E+01  0.23423623879E+01  0.00000000000E+00 0.  1.
         25    2    1    2    0    0  0.00000000000E+00  0.00000000000E+00  0.16655685069E+04  0.16702532317E+04  0.12500962661E+03 0.  0.
          4    1    3    3  501    0  0.61373063996E+02  0.82025699082E+01  0.72058843012E+03  0.72324547926E+03  0.15500000000E+01 0.  1.
         -4    1    3    3    0  501 -0.61373063996E+02 -0.82025699082E+01  0.94498007676E+03  0.94700775240E+03  0.15500000000E+01 0.  1.
<mgrwt>
<rscale>  2 0.12500963E+03</rscale>
<asrwt>0</asrwt>
<pdfrwt beam="1">  1       21 0.25660072E+00 0.12500963E+03</pdfrwt>
<pdfrwt beam="2">  1       21 0.36036478E-03 0.12500963E+03</pdfrwt>
<totfact> 0.11643370E+06</totfact>
</mgrwt>
</event>
<event>
 5    0  0.1405763E+000  0.1249988E+03  0.7546771E-02  0.1235071E+00
         21   -1    0    0  503  502  0.00000000000E+00  0.00000000000E+00  0.15644928759E+02  0.15644928759E+02  0.00000000000E+00 0.  1.
         21   -1    0    0  502  503 -0.00000000000E+00 -0.00000000000E+00 -0.24967661630E+03  0.24967661630E+03  0.00000000000E+00 0.  1.
         25    2    1    2    0    0  0.00000000000E+00  0.00000000000E+00 -0.23403168754E+03  0.26532154506E+03  0.12499876599E+03 0.  0.
          4    1    3    3  501    0  0.36894722974E+02 -0.40842164972E+02 -0.17978388730E+03  0.18802646531E+03  0.15500000000E+01 0. -1.
         -4    1    3    3    0  501 -0.36894722974E+02  0.40842164972E+02 -0.54247800242E+02  0.77295079753E+02  0.15500000000E+01 0. -1.
<mgrwt>
<rscale>  2 0.12499877E+03</rscale>
<asrwt>0</asrwt>
<pdfrwt beam="1">  1       21 0.24069121E-02 0.12499877E+03</pdfrwt>
<pdfrwt beam="2">  1       21 0.38411787E-01 0.12499877E+03</pdfrwt>
<totfact> 0.58466748E+06</totfact>
</mgrwt>
</event>
<event>
 5    0  0.1307190E+000  0.1250157E+03  0.7546771E-02  0.1235045E+00
         21   -1    0    0  503  502  0.00000000000E+00  0.00000000000E+00  0.71320490932E+01  0.71320490932E+01  0.00000000000E+00 0.  1.
         21   -1    0    0  502  503 -0.00000000000E+00 -0.00000000000E+00 -0.54784117567E+03  0.54784117567E+03  0.00000000000E+00 0.  1.
         25    2    1    2    0    0  0.00000000000E+00  0.00000000000E+00 -0.54070912658E+03  0.55497322476E+03  0.12501568158E+03 0.  0.
          4    1    3    3  501    0 -0.10575454038E+02 -0.42955535633E+02 -0.74433664107E+02  0.86601334412E+02  0.15500000000E+01 0. -1.
         -4    1    3    3    0  501  0.10575454038E+02  0.42955535633E+02 -0.46627546247E+03  0.46837189035E+03  0.15500000000E+01 0. -1.
<mgrwt>
<rscale>  2 0.12501568E+03</rscale>
<asrwt>0</asrwt>
<pdfrwt beam="1">  1       21 0.10972380E-02 0.12501568E+03</pdfrwt>
<pdfrwt beam="2">  1       21 0.84283282E-01 0.12501568E+03</pdfrwt>
<totfact> 0.39196154E+06</totfact>
</mgrwt>
</event>
<event>
 5    0  0.1516083E+000  0.1250028E+03  0.7546771E-02  0.1235065E+00
         21   -1    0    0  503  502  0.00000000000E+00  0.00000000000E+00  0.10476683744E+03  0.10476683744E+03  0.00000000000E+00 0.  1.
         21   -1    0    0  502  503 -0.00000000000E+00 -0.00000000000E+00 -0.37286866821E+02  0.37286866821E+02  0.00000000000E+00 0.  1.
         25    2    1    2    0    0  0.00000000000E+00  0.00000000000E+00  0.67479970617E+02  0.14205370426E+03  0.12500283381E+03 0.  0.
          4    1    3    3  501    0  0.25104700868E+02  0.45456015402E+02  0.73229476533E+02  0.89785600600E+02  0.15500000000E+01 0. -1.
         -4    1    3    3    0  501 -0.25104700868E+02 -0.45456015402E+02 -0.57495059158E+01  0.52268103659E+02  0.15500000000E+01 0. -1.
<mgrwt>
<rscale>  2 0.12500283E+03</rscale>
<asrwt>0</asrwt>
<pdfrwt beam="1">  1       21 0.16117975E-01 0.12500283E+03</pdfrwt>
<pdfrwt beam="2">  1       21 0.57364411E-02 0.12500283E+03</pdfrwt>
<totfact> 0.71767142E+06</totfact>
</mgrwt>
</event>
<event>
 5    0  0.1429985E+000  0.1249989E+03  0.7546771E-02  0.1235071E+00
         21   -1    0    0  503  502  0.00000000000E+00  0.00000000000E+00  0.14771821488E+02  0.14771821488E+02  0.00000000000E+00 0. -1.
         21   -1    0    0  502  503 -0.00000000000E+00 -0.00000000000E+00 -0.26443484075E+03  0.26443484075E+03  0.00000000000E+00 0. -1.
         25    2    1    2    0    0  0.00000000000E+00  0.00000000000E+00 -0.24966301926E+03  0.27920666224E+03  0.12499894820E+03 0.  0.
          4    1    3    3  501    0  0.58490334158E+02 -0.74430555812E+00 -0.17387618334E+03  0.18345844982E+03  0.15500000000E+01 0.  1.
         -4    1    3    3    0  501 -0.58490334158E+02  0.74430555812E+00 -0.75786835928E+02  0.95748212415E+02  0.15500000000E+01 0.  1.
<mgrwt>
<rscale>  2 0.12499895E+03</rscale>
<asrwt>0</asrwt>
<pdfrwt beam="1">  1       21 0.22725881E-02 0.12499895E+03</pdfrwt>
<pdfrwt beam="2">  1       21 0.40682280E-01 0.12499895E+03</pdfrwt>
<totfact> 0.57231212E+06</totfact>
</mgrwt>
</event>
<event>
 5    0  0.1222151E+000  0.1249981E+03  0.7546771E-02  0.1235072E+00
         21   -1    0    0  503  502  0.00000000000E+00  0.00000000000E+00  0.64342462285E+01  0.64342462285E+01  0.00000000000E+00 0. -1.
         21   -1    0    0  502  503 -0.00000000000E+00 -0.00000000000E+00 -0.60708469222E+03  0.60708469222E+03  0.00000000000E+00 0. -1.
         25    2    1    2    0    0  0.00000000000E+00  0.00000000000E+00 -0.60065044599E+03  0.61351893845E+03  0.12499811825E+03 0.  0.
          4    1    3    3  501    0  0.27744904720E+02 -0.57229106166E+01 -0.26993979480E+02  0.39161318569E+02  0.15500000000E+01 0.  1.
         -4    1    3    3    0  501 -0.27744904720E+02  0.57229106166E+01 -0.57365646651E+03  0.57435761988E+03  0.15500000000E+01 0.  1.
<mgrwt>
<rscale>  2 0.12499812E+03</rscale>
<asrwt>0</asrwt>
<pdfrwt beam="1">  1       21 0.98988383E-03 0.12499812E+03</pdfrwt>
<pdfrwt beam="2">  1       21 0.93397664E-01 0.12499812E+03</pdfrwt>
<totfact> 0.36490004E+06</totfact>
</mgrwt>
</event>
<event>
 5    0  0.1439277E+000  0.1249909E+03  0.7546771E-02  0.1235083E+00
         21   -1    0    0  503  502  0.00000000000E+00  0.00000000000E+00  0.47943188388E+02  0.47943188388E+02  0.00000000000E+00 0. -1.
         21   -1    0    0  502  503 -0.00000000000E+00 -0.00000000000E+00 -0.81464839563E+02  0.81464839563E+02  0.00000000000E+00 0. -1.
         25    2    1    2    0    0  0.00000000000E+00  0.00000000000E+00 -0.33521651175E+02  0.12940802795E+03  0.12499094608E+03 0.  0.
          4    1    3    3  501    0 -0.36347669438E+02 -0.30420596581E+02 -0.58902004533E+02  0.75620198413E+02  0.15500000000E+01 0. -1.
         -4    1    3    3    0  501  0.36347669438E+02  0.30420596581E+02  0.25380353358E+02  0.53787829539E+02  0.15500000000E+01 0. -1.
<mgrwt>
<rscale>  2 0.12499095E+03</rscale>
<asrwt>0</asrwt>
<pdfrwt beam="1">  1       21 0.73758752E-02 0.12499095E+03</pdfrwt>
<pdfrwt beam="2">  1       21 0.12533052E-01 0.12499095E+03</pdfrwt>
<totfact> 0.73461119E+06</totfact>
</mgrwt>
</event>
<event>
 5    0  0.1222151E+000  0.1250012E+03  0.7546771E-02  0.1235067E+00
         21   -1    0    0  503  502  0.00000000000E+00  0.00000000000E+00  0.17871766451E+01  0.17871766451E+01  0.00000000000E+00 0.  1.
         21   -1    0    0  502  503 -0.00000000000E+00 -0.00000000000E+00 -0.21857533486E+04  0.21857533486E+04  0.00000000000E+00 0.  1.
         25    2    1    2    0    0  0.00000000000E+00  0.00000000000E+00 -0.21839661719E+04  0.21875405252E+04  0.12500123738E+03 0.  0.
          4    1    3    3  501    0 -0.14151034400E+02 -0.56513851005E+02 -0.14871370011E+04  0.14882785122E+04  0.15500000000E+01 0.  1.
         -4    1    3    3    0  501  0.14151034400E+02  0.56513851005E+02 -0.69682917080E+03  0.69926201306E+03  0.15500000000E+01 0.  1.
<mgrwt>
<rscale>  2 0.12500124E+03</rscale>
<asrwt>0</asrwt>
<pdfrwt beam="1">  1       21 0.27495128E-03 0.12500124E+03</pdfrwt>
<pdfrwt beam="2">  1       21 0.33626849E+00 0.12500124E+03</pdfrwt>
<totfact> 0.62596434E+05</totfact>
</mgrwt>
</event>
<event>
 5    0  0.1471444E+000  0.1249978E+03  0.7546771E-02  0.1235073E+00
         21   -1    0    0  503  502  0.00000000000E+00  0.00000000000E+00  0.14479720678E+02  0.14479720678E+02  0.00000000000E+00 0. -1.
         21   -1    0    0  502  503 -0.00000000000E+00 -0.00000000000E+00 -0.26976445168E+03  0.26976445168E+03  0.00000000000E+00 0. -1.
         25    2    1    2    0    0  0.00000000000E+00  0.00000000000E+00 -0.25528473100E+03  0.28424417236E+03  0.12499782253E+03 0.  0.
          4    1    3    3  501    0  0.45177623253E+02  0.33260494866E+02 -0.65099982263E+02  0.85951662882E+02  0.15500000000E+01 0. -1.
         -4    1    3    3    0  501 -0.45177623253E+02 -0.33260494866E+02 -0.19018474874E+03  0.19829250947E+03  0.15500000000E+01 0. -1.
<mgrwt>
<rscale>  2 0.12499782E+03</rscale>
<asrwt>0</asrwt>
<pdfrwt beam="1">  1       21 0.22276495E-02 0.12499782E+03</pdfrwt>
<pdfrwt beam="2">  1       21 0.41502221E-01 0.12499782E+03</pdfrwt>
<totfact> 0.56794613E+06</totfact>
</mgrwt>
</event>
<event>
 5    0  0.1298753E+000  0.1249984E+03  0.7546771E-02  0.1235072E+00
         21   -1    0    0  503  502  0.00000000000E+00  0.00000000000E+00  0.60888071841E+01  0.60888071841E+01  0.00000000000E+00 0.  1.
         21   -1    0    0  502  503 -0.00000000000E+00 -0.00000000000E+00 -0.64152915944E+03  0.64152915944E+03  0.00000000000E+00 0.  1.
         25    2    1    2    0    0  0.00000000000E+00  0.00000000000E+00 -0.63544035226E+03  0.64761796662E+03  0.12499835767E+03 0.  0.
          4    1    3    3  501    0  0.41807184184E+02  0.46305331628E+02 -0.33545745778E+03  0.34121273843E+03  0.15500000000E+01 0.  1.
         -4    1    3    3    0  501 -0.41807184184E+02 -0.46305331628E+02 -0.29998289447E+03  0.30640522819E+03  0.15500000000E+01 0.  1.
<mgrwt>
<rscale>  2 0.12499836E+03</rscale>
<asrwt>0</asrwt>
<pdfrwt beam="1">  1       21 0.93673987E-03 0.12499836E+03</pdfrwt>
<pdfrwt beam="2">  1       21 0.98696762E-01 0.12499836E+03</pdfrwt>
<totfact> 0.35025229E+06</totfact>
</mgrwt>
</event>
<event>
 5    0  0.1383920E+000  0.1249920E+03  0.7546771E-02  0.1235082E+00
         21   -1    0    0  503  502  0.00000000000E+00  0.00000000000E+00  0.11645609724E+02  0.11645609724E+02  0.00000000000E+00 0.  1.
         21   -1    0    0  502  503 -0.00000000000E+00 -0.00000000000E+00 -0.33538377753E+03  0.33538377753E+03  0.00000000000E+00 0.  1.
         25    2    1    2    0    0  0.00000000000E+00  0.00000000000E+00 -0.32373816780E+03  0.34702938725E+03  0.12499197704E+03 0.  0.
          4    1    3    3  501    0 -0.51663432257E+02  0.27514725614E+02 -0.10122013398E+03  0.11693625777E+03  0.15500000000E+01 0.  1.
         -4    1    3    3    0  501  0.51663432257E+02 -0.27514725614E+02 -0.22251803383E+03  0.23009312948E+03  0.15500000000E+01 0.  1.
<mgrwt>
<rscale>  2 0.12499198E+03</rscale>
<asrwt>0</asrwt>
<pdfrwt beam="1">  1       21 0.17916323E-02 0.12499198E+03</pdfrwt>
<pdfrwt beam="2">  1       21 0.51597502E-01 0.12499198E+03</pdfrwt>
<totfact> 0.51768977E+06</totfact>
</mgrwt>
</event>
<event>
 5    0  0.1555823E+000  0.1250026E+03  0.7546771E-02  0.1235065E+00
         21   -1    0    0  503  502  0.00000000000E+00  0.00000000000E+00  0.97666975977E+02  0.97666975977E+02  0.00000000000E+00 0.  1.
         21   -1    0    0  502  503 -0.00000000000E+00 -0.00000000000E+00 -0.39997296236E+02  0.39997296236E+02  0.00000000000E+00 0.  1.
         25    2    1    2    0    0  0.00000000000E+00  0.00000000000E+00  0.57669679741E+02  0.13766427221E+03  0.12500263950E+03 0.  0.
          4    1    3    3  501    0 -0.26270968939E+02  0.27053251926E+02  0.83700466405E+02  0.91816190431E+02  0.15500000000E+01 0.  1.
         -4    1    3    3    0  501  0.26270968939E+02 -0.27053251926E+02 -0.26030786663E+02  0.45848081782E+02  0.15500000000E+01 0.  1.
<mgrwt>
<rscale>  2 0.12500264E+03</rscale>
<asrwt>0</asrwt>
<pdfrwt beam="1">  1       21 0.15025689E-01 0.12500264E+03</pdfrwt>
<pdfrwt beam="2">  1       21 0.61534302E-02 0.12500264E+03</pdfrwt>
<totfact> 0.72340719E+06</totfact>
</mgrwt>
</event>
<event>
 5    0  0.1491941E+000  0.1250015E+03  0.7546771E-02  0.1235067E+00
         21   -1    0    0  503  502  0.00000000000E+00  0.00000000000E+00  0.15933743429E+02  0.15933743429E+02  0.00000000000E+00 0. -1.
         21   -1    0    0  502  503 -0.00000000000E+00 -0.00000000000E+00 -0.24516186682E+03  0.24516186682E+03  0.00000000000E+00 0. -1.
         25    2    1    2    0    0  0.00000000000E+00  0.00000000000E+00 -0.22922812339E+03  0.26109561025E+03  0.12500154054E+03 0.  0.
          4    1    3    3  501    0  0.26428500415E+02 -0.56531545932E+02 -0.10812131936E+03  0.12484752108E+03  0.15500000000E+01 0.  1.
         -4    1    3    3    0  501 -0.26428500415E+02  0.56531545932E+02 -0.12110680403E+03  0.13624808917E+03  0.15500000000E+01 0.  1.
<mgrwt>
<rscale>  2 0.12500154E+03</rscale>
<asrwt>0</asrwt>
<pdfrwt beam="1">  1       21 0.24513453E-02 0.12500154E+03</pdfrwt>
<pdfrwt beam="2">  1       21 0.37717207E-01 0.12500154E+03</pdfrwt>
<totfact> 0.58846715E+06</totfact>
</mgrwt>
</event>
<event>
 5    0  0.1314159E+000  0.1249991E+03  0.7546771E-02  0.1235071E+00
         21   -1    0    0  503  502  0.00000000000E+00  0.00000000000E+00  0.67938952519E+01  0.67938952519E+01  0.00000000000E+00 0. -1.
         21   -1    0    0  502  503 -0.00000000000E+00 -0.00000000000E+00 -0.57495671401E+03  0.57495671401E+03  0.00000000000E+00 0. -1.
         25    2    1    2    0    0  0.00000000000E+00  0.00000000000E+00 -0.56816281876E+03  0.58175060926E+03  0.12499913103E+03 0.  0.
          4    1    3    3  501    0  0.23281337257E+02  0.38472226985E+02 -0.82198078686E+02  0.93707307897E+02  0.15500000000E+01 0.  1.
         -4    1    3    3    0  501 -0.23281337257E+02 -0.38472226985E+02 -0.48596474007E+03  0.48804330136E+03  0.15500000000E+01 0.  1.
<mgrwt>
<rscale>  2 0.12499913E+03</rscale>
<asrwt>0</asrwt>
<pdfrwt beam="1">  1       21 0.10452149E-02 0.12499913E+03</pdfrwt>
<pdfrwt beam="2">  1       21 0.88454860E-01 0.12499913E+03</pdfrwt>
<totfact> 0.37931983E+06</totfact>
</mgrwt>
</event>
<event>
 5    0  0.1534568E+000  0.1250014E+03  0.7546771E-02  0.1235067E+00
         21   -1    0    0  503  502  0.00000000000E+00  0.00000000000E+00  0.49945075675E+02  0.49945075675E+02  0.00000000000E+00 0. -1.
         21   -1    0    0  502  503 -0.00000000000E+00 -0.00000000000E+00 -0.78212727283E+02  0.78212727283E+02  0.00000000000E+00 0. -1.
         25    2    1    2    0    0  0.00000000000E+00  0.00000000000E+00 -0.28267651608E+02  0.12815780296E+03  0.12500144932E+03 0.  0.
          4    1    3    3  501    0  0.33922446563E+02 -0.48960105376E+02  0.52136537795E+01  0.59811445267E+02  0.15500000000E+01 0. -1.
         -4    1    3    3    0  501 -0.33922446563E+02  0.48960105376E+02 -0.33481305387E+02  0.68346357691E+02  0.15500000000E+01 0. -1.
<mgrwt>
<rscale>  2 0.12500145E+03</rscale>
<asrwt>0</asrwt>
<pdfrwt beam="1">  1       21 0.76838579E-02 0.12500145E+03</pdfrwt>
<pdfrwt beam="2">  1       21 0.12032727E-01 0.12500145E+03</pdfrwt>
<totfact> 0.73609529E+06</totfact>
</mgrwt>
</event>
<event>
 5    0  0.1587269E+000  0.1250114E+03  0.7546771E-02  0.1235051E+00
         21   -1    0    0  503  502  0.00000000000E+00  0.00000000000E+00  0.26504842742E+03  0.26504842742E+03  0.00000000000E+00 0. -1.
         21   -1    0    0  502  503 -0.00000000000E+00 -0.00000000000E+00 -0.14740558018E+02  0.14740558018E+02  0.00000000000E+00 0. -1.
         25    2    1    2    0    0  0.00000000000E+00  0.00000000000E+00  0.25030786941E+03  0.27978898544E+03  0.12501138703E+03 0.  0.
          4    1    3    3  501    0  0.22836157012E+02 -0.57033921117E+02  0.15069201184E+03  0.16274164543E+03  0.15500000000E+01 0.  1.
         -4    1    3    3    0  501 -0.22836157012E+02  0.57033921117E+02  0.99615857567E+02  0.11704734001E+03  0.15500000000E+01 0.  1.
<mgrwt>
<rscale>  2 0.12501139E+03</rscale>
<asrwt>0</asrwt>
<pdfrwt beam="1">  1       21 0.40776677E-01 0.12501139E+03</pdfrwt>
<pdfrwt beam="2">  1       21 0.22677784E-02 0.12501139E+03</pdfrwt>
<totfact> 0.57162381E+06</totfact>
</mgrwt>
</event>
<event>
 5    0  0.1222151E+000  0.1250047E+03  0.7546771E-02  0.1235062E+00
         21   -1    0    0  503  502  0.00000000000E+00  0.00000000000E+00  0.49258550730E+01  0.49258550730E+01  0.00000000000E+00 0. -1.
         21   -1    0    0  502  503 -0.00000000000E+00 -0.00000000000E+00 -0.79306928904E+03  0.79306928904E+03  0.00000000000E+00 0. -1.
         25    2    1    2    0    0  0.00000000000E+00  0.00000000000E+00 -0.78814343397E+03  0.79799514411E+03  0.12500471000E+03 0.  0.
          4    1    3    3  501    0  0.33155411268E+02  0.22515351729E+02 -0.88057728793E+02  0.96761502985E+02  0.15500000000E+01 0.  1.
         -4    1    3    3    0  501 -0.33155411268E+02 -0.22515351729E+02 -0.70008570517E+03  0.70123364113E+03  0.15500000000E+01 0.  1.
<mgrwt>
<rscale>  2 0.12500471E+03</rscale>
<asrwt>0</asrwt>
<pdfrwt beam="1">  1       21 0.75782461E-03 0.12500471E+03</pdfrwt>
<pdfrwt beam="2">  1       21 0.12201054E+00 0.12500471E+03</pdfrwt>
<totfact> 0.29425943E+06</totfact>
</mgrwt>
</event>
<event>
 5    0  0.1610381E+000  0.1249969E+03  0.7546771E-02  0.1235074E+00
         21   -1    0    0  503  502  0.00000000000E+00  0.00000000000E+00  0.20603104792E+02  0.20603104792E+02  0.00000000000E+00 0. -1.
         21   -1    0    0  502  503 -0.00000000000E+00 -0.00000000000E+00 -0.18958593022E+03  0.18958593022E+03  0.00000000000E+00 0. -1.
         25    2    1    2    0    0  0.00000000000E+00  0.00000000000E+00 -0.16898282543E+03  0.21018903501E+03  0.12499694056E+03 0.  0.
          4    1    3    3  501    0 -0.58137769472E+01  0.62088383668E+02 -0.78002947833E+02  0.99878074468E+02  0.15500000000E+01 0.  1.
         -4    1    3    3    0  501  0.58137769472E+01 -0.62088383668E+02 -0.90979877596E+02  0.11031096054E+03  0.15500000000E+01 0.  1.
<mgrwt>
<rscale>  2 0.12499694E+03</rscale>
<asrwt>0</asrwt>
<pdfrwt beam="1">  1       21 0.31697083E-02 0.12499694E+03</pdfrwt>
<pdfrwt beam="2">  1       21 0.29167068E-01 0.12499694E+03</pdfrwt>
<totfact> 0.63844592E+06</totfact>
</mgrwt>
</event>
<event>
 5    0  0.1543998E+000  0.1250018E+03  0.7546771E-02  0.1235067E+00
         21   -1    0    0  503  502  0.00000000000E+00  0.00000000000E+00  0.65154868819E+02  0.65154868819E+02  0.00000000000E+00 0. -1.
         21   -1    0    0  502  503 -0.00000000000E+00 -0.00000000000E+00 -0.59954999362E+02  0.59954999362E+02  0.00000000000E+00 0. -1.
         25    2    1    2    0    0  0.00000000000E+00  0.00000000000E+00  0.51998694569E+01  0.12510986818E+03  0.12500176188E+03 0.  0.
          4    1    3    3  501    0  0.34073027488E+02  0.49563025144E+02 -0.14340806377E+02  0.61850835817E+02  0.15500000000E+01 0. -1.
         -4    1    3    3    0  501 -0.34073027488E+02 -0.49563025144E+02  0.19540675834E+02  0.63259032365E+02  0.15500000000E+01 0. -1.
<mgrwt>
<rscale>  2 0.12500176E+03</rscale>
<asrwt>0</asrwt>
<pdfrwt beam="1">  1       21 0.10023826E-01 0.12500176E+03</pdfrwt>
<pdfrwt beam="2">  1       21 0.92238460E-02 0.12500176E+03</pdfrwt>
<totfact> 0.74025408E+06</totfact>
</mgrwt>
</event>
<event>
 5    0  0.1381057E+000  0.1250598E+03  0.7546771E-02  0.1234976E+00
         21   -1    0    0  503  502  0.00000000000E+00  0.00000000000E+00  0.33565069596E+03  0.33565069596E+03  0.00000000000E+00 0.  1.
         21   -1    0    0  502  503 -0.00000000000E+00 -0.00000000000E+00 -0.11648985277E+02  0.11648985277E+02  0.00000000000E+00 0.  1.
         25    2    1    2    0    0  0.00000000000E+00  0.00000000000E+00  0.32400171068E+03  0.34729968123E+03  0.12505982593E+03 0.  0.
          4    1    3    3  501    0  0.34839140488E+02 -0.14893432490E+02  0.23926999023E+02  0.44838419057E+02  0.15500000000E+01 0. -1.
         -4    1    3    3    0  501 -0.34839140488E+02  0.14893432490E+02  0.30007471166E+03  0.30246126217E+03  0.15500000000E+01 0. -1.
<mgrwt>
<rscale>  2 0.12505983E+03</rscale>
<asrwt>0</asrwt>
<pdfrwt beam="1">  1       21 0.51638561E-01 0.12505983E+03</pdfrwt>
<pdfrwt beam="2">  1       21 0.17921518E-02 0.12505983E+03</pdfrwt>
<totfact> 0.51661006E+06</totfact>
</mgrwt>
</event>
<event>
 5    0  0.1314360E+000  0.1250021E+03  0.7546771E-02  0.1235066E+00
         21   -1    0    0  503  502  0.00000000000E+00  0.00000000000E+00  0.61720215296E+03  0.61720215296E+03  0.00000000000E+00 0.  1.
         21   -1    0    0  502  503 -0.00000000000E+00 -0.00000000000E+00 -0.63291796102E+01  0.63291796102E+01  0.00000000000E+00 0.  1.
         25    2    1    2    0    0  0.00000000000E+00  0.00000000000E+00  0.61087297335E+03  0.62353133257E+03  0.12500213249E+03 0.  0.
          4    1    3    3  501    0  0.44206931883E+02  0.29089652022E+02  0.13973325293E+03  0.14942638708E+03  0.15500000000E+01 0.  1.
         -4    1    3    3    0  501 -0.44206931883E+02 -0.29089652022E+02  0.47113972042E+03  0.47410494549E+03  0.15500000000E+01 0.  1.
<mgrwt>
<rscale>  2 0.12500213E+03</rscale>
<asrwt>0</asrwt>
<pdfrwt beam="1">  1       21 0.94954130E-01 0.12500213E+03</pdfrwt>
<pdfrwt beam="2">  1       21 0.97372043E-03 0.12500213E+03</pdfrwt>
<totfact> 0.36047729E+06</totfact>
</mgrwt>
</event>
<event>
 5    0  0.1231794E+000  0.1249964E+03  0.7546771E-02  0.1235075E+00
         21   -1    0    0  503  502  0.00000000000E+00  0.00000000000E+00  0.55648265008E+01  0.55648265008E+01  0.00000000000E+00 0.  1.
         21   -1    0    0  502  503 -0.00000000000E+00 -0.00000000000E+00 -0.70191360414E+03  0.70191360414E+03  0.00000000000E+00 0.  1.
         25    2    1    2    0    0  0.00000000000E+00  0.00000000000E+00 -0.69634877764E+03  0.70747843064E+03  0.12499643876E+03 0.  0.
          4    1    3    3  501    0  0.24439927611E+02  0.48027559787E+02 -0.16921951191E+03  0.17759955594E+03  0.15500000000E+01 0. -1.
         -4    1    3    3    0  501 -0.24439927611E+02 -0.48027559787E+02 -0.52712926573E+03  0.52987887470E+03  0.15500000000E+01 0. -1.
<mgrwt>
<rscale>  2 0.12499644E+03</rscale>
<asrwt>0</asrwt>
<pdfrwt beam="1">  1       21 0.85612687E-03 0.12499644E+03</pdfrwt>
<pdfrwt beam="2">  1       21 0.10798674E+00 0.12499644E+03</pdfrwt>
<totfact> 0.32626680E+06</totfact>
</mgrwt>
</event>
<event>
 5    0  0.1513828E+000  0.1249963E+03  0.7546771E-02  0.1235075E+00
         21   -1    0    0  503  502  0.00000000000E+00  0.00000000000E+00  0.40694503909E+02  0.40694503909E+02  0.00000000000E+00 0. -1.
         21   -1    0    0  502  503 -0.00000000000E+00 -0.00000000000E+00 -0.95983979368E+02  0.95983979368E+02  0.00000000000E+00 0. -1.
         25    2    1    2    0    0  0.00000000000E+00  0.00000000000E+00 -0.55289475460E+02  0.13667848328E+03  0.12499632672E+03 0.  0.
          4    1    3    3  501    0  0.57157106618E+02 -0.14327666410E+02 -0.50356116750E+02  0.77526497766E+02  0.15500000000E+01 0. -1.
         -4    1    3    3    0  501 -0.57157106618E+02  0.14327666410E+02 -0.49333587093E+01  0.59151985511E+02  0.15500000000E+01 0. -1.
<mgrwt>
<rscale>  2 0.12499633E+03</rscale>
<asrwt>0</asrwt>
<pdfrwt beam="1">  1       21 0.62606930E-02 0.12499633E+03</pdfrwt>
<pdfrwt beam="2">  1       21 0.14766766E-01 0.12499633E+03</pdfrwt>
<totfact> 0.72481774E+06</totfact>
</mgrwt>
</event>
<event>
 5    0  0.1222151E+000  0.1249928E+03  0.7546771E-02  0.1235080E+00
         21   -1    0    0  503  502  0.00000000000E+00  0.00000000000E+00  0.15361499049E+04  0.15361499049E+04  0.00000000000E+00 0.  1.
         21   -1    0    0  502  503 -0.00000000000E+00 -0.00000000000E+00 -0.25425916701E+01  0.25425916701E+01  0.00000000000E+00 0.  1.
         25    2    1    2    0    0  0.00000000000E+00  0.00000000000E+00  0.15336073133E+04  0.15386924966E+04  0.12499283103E+03 0.  0.
          4    1    3    3  501    0 -0.14783431550E+02  0.22857045249E+02  0.14590736082E+04  0.14593283355E+04  0.15500000000E+01 0.  1.
         -4    1    3    3    0  501  0.14783431550E+02 -0.22857045249E+02  0.74533705123E+02  0.79364161088E+02  0.15500000000E+01 0.  1.
<mgrwt>
<rscale>  2 0.12499283E+03</rscale>
<asrwt>0</asrwt>
<pdfrwt beam="1">  1       21 0.23633001E+00 0.12499283E+03</pdfrwt>
<pdfrwt beam="2">  1       21 0.39116918E-03 0.12499283E+03</pdfrwt>
<totfact> 0.13431146E+06</totfact>
</mgrwt>
</event>
<event>
 5    0  0.1284090E+000  0.1249934E+03  0.7546771E-02  0.1235080E+00
         21   -1    0    0  503  502  0.00000000000E+00  0.00000000000E+00  0.10307256123E+02  0.10307256123E+02  0.00000000000E+00 0.  1.
         21   -1    0    0  502  503 -0.00000000000E+00 -0.00000000000E+00 -0.37894060588E+03  0.37894060588E+03  0.00000000000E+00 0.  1.
         25    2    1    2    0    0  0.00000000000E+00  0.00000000000E+00 -0.36863334976E+03  0.38924786200E+03  0.12499340591E+03 0.  0.
          4    1    3    3  501    0 -0.53499269022E+01 -0.30518179611E+02 -0.15362943427E+02  0.34617965500E+02  0.15500000000E+01 0.  1.
         -4    1    3    3    0  501  0.53499269022E+01  0.30518179611E+02 -0.35327040633E+03  0.35462989650E+03  0.15500000000E+01 0.  1.
<mgrwt>
<rscale>  2 0.12499341E+03</rscale>
<asrwt>0</asrwt>
<pdfrwt beam="1">  1       21 0.15857316E-02 0.12499341E+03</pdfrwt>
<pdfrwt beam="2">  1       21 0.58298558E-01 0.12499341E+03</pdfrwt>
<totfact> 0.48770841E+06</totfact>
</mgrwt>
</event>
<event>
 5    0  0.1501793E+000  0.1249991E+03  0.7546771E-02  0.1235071E+00
         21   -1    0    0  503  502  0.00000000000E+00  0.00000000000E+00  0.23677774001E+02  0.23677774001E+02  0.00000000000E+00 0.  1.
         21   -1    0    0  502  503 -0.00000000000E+00 -0.00000000000E+00 -0.16497306272E+03  0.16497306272E+03  0.00000000000E+00 0.  1.
         25    2    1    2    0    0  0.00000000000E+00  0.00000000000E+00 -0.14129528872E+03  0.18865083672E+03  0.12499911832E+03 0.  0.
          4    1    3    3  501    0  0.53328320041E+02 -0.93025220281E+01 -0.23562342723E+02  0.59059572713E+02  0.15500000000E+01 0.  1.
         -4    1    3    3    0  501 -0.53328320041E+02  0.93025220281E+01 -0.11773294599E+03  0.12959126401E+03  0.15500000000E+01 0.  1.
<mgrwt>
<rscale>  2 0.12499912E+03</rscale>
<asrwt>0</asrwt>
<pdfrwt beam="1">  1       21 0.36427345E-02 0.12499912E+03</pdfrwt>
<pdfrwt beam="2">  1       21 0.25380471E-01 0.12499912E+03</pdfrwt>
<totfact> 0.66174204E+06</totfact>
</mgrwt>
</event>
<event>
 5    0  0.1342217E+000  0.1249976E+03  0.7546771E-02  0.1235073E+00
         21   -1    0    0  503  502  0.00000000000E+00  0.00000000000E+00  0.39891421393E+03  0.39891421393E+03  0.00000000000E+00 0.  1.
         21   -1    0    0  502  503 -0.00000000000E+00 -0.00000000000E+00 -0.97918258571E+01  0.97918258571E+01  0.00000000000E+00 0.  1.
         25    2    1    2    0    0  0.00000000000E+00  0.00000000000E+00  0.38912238807E+03  0.40870603979E+03  0.12499757621E+03 0.  0.
          4    1    3    3  501    0  0.27145179455E+02  0.12443558801E+02  0.37400829625E+03  0.37520169388E+03  0.15500000000E+01 0.  1.
         -4    1    3    3    0  501 -0.27145179455E+02 -0.12443558801E+02  0.15114091822E+02  0.33504345910E+02  0.15500000000E+01 0.  1.
<mgrwt>
<rscale>  2 0.12499758E+03</rscale>
<asrwt>0</asrwt>
<pdfrwt beam="1">  1       21 0.61371405E-01 0.12499758E+03</pdfrwt>
<pdfrwt beam="2">  1       21 0.15064350E-02 0.12499758E+03</pdfrwt>
<totfact> 0.47472079E+06</totfact>
</mgrwt>
</event>
<event>
 5    0  0.1222151E+000  0.1249931E+03  0.7546771E-02  0.1235080E+00
         21   -1    0    0  503  502  0.00000000000E+00  0.00000000000E+00  0.50734520423E+01  0.50734520423E+01  0.00000000000E+00 0. -1.
         21   -1    0    0  502  503 -0.00000000000E+00 -0.00000000000E+00 -0.76985429727E+03  0.76985429727E+03  0.00000000000E+00 0. -1.
         25    2    1    2    0    0  0.00000000000E+00  0.00000000000E+00 -0.76478084523E+03  0.77492774932E+03  0.12499310152E+03 0.  0.
          4    1    3    3  501    0  0.58197095579E+02 -0.22163715165E+02 -0.41356491373E+03  0.41823016698E+03  0.15500000000E+01 0. -1.
         -4    1    3    3    0  501 -0.58197095579E+02  0.22163715165E+02 -0.35121593150E+03  0.35669758233E+03  0.15500000000E+01 0. -1.
<mgrwt>
<rscale>  2 0.12499310E+03</rscale>
<asrwt>0</asrwt>
<pdfrwt beam="1">  1       21 0.78053158E-03 0.12499310E+03</pdfrwt>
<pdfrwt beam="2">  1       21 0.11843905E+00 0.12499310E+03</pdfrwt>
<totfact> 0.30215656E+06</totfact>
</mgrwt>
</event>
<event>
 5    0  0.1539074E+000  0.1249958E+03  0.7546771E-02  0.1235076E+00
         21   -1    0    0  503  502  0.00000000000E+00  0.00000000000E+00  0.32632988208E+02  0.32632988208E+02  0.00000000000E+00 0. -1.
         21   -1    0    0  502  503 -0.00000000000E+00 -0.00000000000E+00 -0.11969444716E+03  0.11969444716E+03  0.00000000000E+00 0. -1.
         25    2    1    2    0    0  0.00000000000E+00  0.00000000000E+00 -0.87061458949E+02  0.15232743537E+03  0.12499579965E+03 0.  0.
          4    1    3    3  501    0  0.68099804211E+00 -0.43609036569E+02  0.10988127996E+02  0.45003925225E+02  0.15500000000E+01 0.  1.
         -4    1    3    3    0  501 -0.68099804211E+00  0.43609036569E+02 -0.98049586945E+02  0.10732351014E+03  0.15500000000E+01 0.  1.
<mgrwt>
<rscale>  2 0.12499580E+03</rscale>
<asrwt>0</asrwt>
<pdfrwt beam="1">  1       21 0.50204597E-02 0.12499580E+03</pdfrwt>
<pdfrwt beam="2">  1       21 0.18414530E-01 0.12499580E+03</pdfrwt>
<totfact> 0.70475576E+06</totfact>
</mgrwt>
</event>
<event>
 5    0  0.1598978E+000  0.1249963E+03  0.7546771E-02  0.1235075E+00
         21   -1    0    0  503  502  0.00000000000E+00  0.00000000000E+00  0.71351708877E+02  0.71351708877E+02  0.00000000000E+00 0. -1.
         21   -1    0    0  502  503 -0.00000000000E+00 -0.00000000000E+00 -0.54743194317E+02  0.54743194317E+02  0.00000000000E+00 0. -1.
         25    2    1    2    0    0  0.00000000000E+00  0.00000000000E+00  0.16608514560E+02  0.12609490319E+03  0.12499632737E+03 0.  0.
          4    1    3    3  501    0  0.56903522401E+02  0.21695500075E+02 -0.57795473080E+01  0.61192411721E+02  0.15500000000E+01 0.  1.
         -4    1    3    3    0  501 -0.56903522401E+02 -0.21695500075E+02  0.22388061868E+02  0.64902491473E+02  0.15500000000E+01 0.  1.
<mgrwt>
<rscale>  2 0.12499633E+03</rscale>
<asrwt>0</asrwt>
<pdfrwt beam="1">  1       21 0.10977186E-01 0.12499633E+03</pdfrwt>
<pdfrwt beam="2">  1       21 0.84220299E-02 0.12499633E+03</pdfrwt>
<totfact> 0.73899888E+06</totfact>
</mgrwt>
</event>
<event>
 5    0  0.1647628E+000  0.1250024E+03  0.7546771E-02  0.1235066E+00
         21   -1    0    0  503  502  0.00000000000E+00  0.00000000000E+00  0.77376808386E+02  0.77376808386E+02  0.00000000000E+00 0. -1.
         21   -1    0    0  502  503 -0.00000000000E+00 -0.00000000000E+00 -0.50485381530E+02  0.50485381530E+02  0.00000000000E+00 0. -1.
         25    2    1    2    0    0  0.00000000000E+00  0.00000000000E+00  0.26891426856E+02  0.12786218992E+03  0.12500236307E+03 0.  0.
          4    1    3    3  501    0 -0.59974502948E+02 -0.15710343767E+02  0.21384677375E+02  0.65600783772E+02  0.15500000000E+01 0.  1.
         -4    1    3    3    0  501  0.59974502948E+02  0.15710343767E+02  0.55067494812E+01  0.62261406144E+02  0.15500000000E+01 0.  1.
<mgrwt>
<rscale>  2 0.12500236E+03</rscale>
<asrwt>0</asrwt>
<pdfrwt beam="1">  1       21 0.11904124E-01 0.12500236E+03</pdfrwt>
<pdfrwt beam="2">  1       21 0.77669818E-02 0.12500236E+03</pdfrwt>
<totfact> 0.73647741E+06</totfact>
</mgrwt>
</event>
<event>
 5    0  0.1561374E+000  0.1250044E+03  0.7546771E-02  0.1235062E+00
         21   -1    0    0  503  502  0.00000000000E+00  0.00000000000E+00  0.87752000445E+02  0.87752000445E+02  0.00000000000E+00 0. -1.
         21   -1    0    0  502  503 -0.00000000000E+00 -0.00000000000E+00 -0.44517790863E+02  0.44517790863E+02  0.00000000000E+00 0. -1.
         25    2    1    2    0    0  0.00000000000E+00  0.00000000000E+00  0.43234209582E+02  0.13226979131E+03  0.12500440318E+03 0.  0.
          4    1    3    3  501    0  0.46630413621E+02  0.39867240393E+02  0.90824840945E+01  0.62037781620E+02  0.15500000000E+01 0.  1.
         -4    1    3    3    0  501 -0.46630413621E+02 -0.39867240393E+02  0.34151725487E+02  0.70232009688E+02  0.15500000000E+01 0.  1.
<mgrwt>
<rscale>  2 0.12500440E+03</rscale>
<asrwt>0</asrwt>
<pdfrwt beam="1">  1       21 0.13500308E-01 0.12500440E+03</pdfrwt>
<pdfrwt beam="2">  1       21 0.68488909E-02 0.12500440E+03</pdfrwt>
<totfact> 0.73051857E+06</totfact>
</mgrwt>
</event>
<event>
 5    0  0.1583067E+000  0.1249986E+03  0.7546771E-02  0.1235071E+00
         21   -1    0    0  503  502  0.00000000000E+00  0.00000000000E+00  0.61468246761E+02  0.61468246761E+02  0.00000000000E+00 0. -1.
         21   -1    0    0  502  503 -0.00000000000E+00 -0.00000000000E+00 -0.63547681400E+02  0.63547681400E+02  0.00000000000E+00 0. -1.
         25    2    1    2    0    0  0.00000000000E+00  0.00000000000E+00 -0.20794346395E+01  0.12501592816E+03  0.12499863297E+03 0.  0.
          4    1    3    3  501    0  0.44658356205E+02 -0.42119045530E+02 -0.12676587677E+02  0.62701524307E+02  0.15500000000E+01 0.  1.
         -4    1    3    3    0  501 -0.44658356205E+02  0.42119045530E+02  0.10597153037E+02  0.62314403855E+02  0.15500000000E+01 0.  1.
<mgrwt>
<rscale>  2 0.12499863E+03</rscale>
<asrwt>0</asrwt>
<pdfrwt beam="1">  1       21 0.94566534E-02 0.12499863E+03</pdfrwt>
<pdfrwt beam="2">  1       21 0.97765663E-02 0.12499863E+03</pdfrwt>
<totfact> 0.74044018E+06</totfact>
</mgrwt>
</event>
<event>
 5    0  0.1507551E+000  0.1250019E+03  0.7546771E-02  0.1235066E+00
         21   -1    0    0  503  502  0.00000000000E+00  0.00000000000E+00  0.33326357556E+02  0.33326357556E+02  0.00000000000E+00 0. -1.
         21   -1    0    0  502  503 -0.00000000000E+00 -0.00000000000E+00 -0.11721562374E+03  0.11721562374E+03  0.00000000000E+00 0. -1.
         25    2    1    2    0    0  0.00000000000E+00  0.00000000000E+00 -0.83889266184E+02  0.15054198130E+03  0.12500191659E+03 0.  0.
          4    1    3    3  501    0  0.44305561890E+02  0.33789453791E+02 -0.78972092088E+01  0.56298120885E+02  0.15500000000E+01 0. -1.
         -4    1    3    3    0  501 -0.44305561890E+02 -0.33789453791E+02 -0.75992056976E+02  0.94243860412E+02  0.15500000000E+01 0. -1.
<mgrwt>
<rscale>  2 0.12500192E+03</rscale>
<asrwt>0</asrwt>
<pdfrwt beam="1">  1       21 0.51271320E-02 0.12500192E+03</pdfrwt>
<pdfrwt beam="2">  1       21 0.18033173E-01 0.12500192E+03</pdfrwt>
<totfact> 0.70687736E+06</totfact>
</mgrwt>
</event>
<event>
 5    0  0.1417147E+000  0.1250004E+03  0.7546771E-02  0.1235069E+00
         21   -1    0    0  503  502  0.00000000000E+00  0.00000000000E+00  0.31190271047E+03  0.31190271047E+03  0.00000000000E+00 0.  1.
         21   -1    0    0  502  503 -0.00000000000E+00 -0.00000000000E+00 -0.12524017896E+02  0.12524017896E+02  0.00000000000E+00 0.  1.
         25    2    1    2    0    0  0.00000000000E+00  0.00000000000E+00  0.29937869257E+03  0.32442672837E+03  0.12500040205E+03 0.  0.
          4    1    3    3  501    0 -0.13166881080E+02 -0.53241050339E+02  0.22737380070E+03  0.23390002980E+03  0.15500000000E+01 0. -1.
         -4    1    3    3    0  501  0.13166881080E+02  0.53241050339E+02  0.72004891876E+02  0.90526698563E+02  0.15500000000E+01 0. -1.
<mgrwt>
<rscale>  2 0.12500040E+03</rscale>
<asrwt>0</asrwt>
<pdfrwt beam="1">  1       21 0.47985026E-01 0.12500040E+03</pdfrwt>
<pdfrwt beam="2">  1       21 0.19267722E-02 0.12500040E+03</pdfrwt>
<totfact> 0.53483864E+06</totfact>
</mgrwt>
</event>
<event>
 5    0  0.1422669E+000  0.1250121E+03  0.7546771E-02  0.1235050E+00
         21   -1    0    0  503  502  0.00000000000E+00  0.00000000000E+00  0.11976367320E+02  0.11976367320E+02  0.00000000000E+00 0.  1.
         21   -1    0    0  502  503 -0.00000000000E+00 -0.00000000000E+00 -0.32622624436E+03  0.32622624436E+03  0.00000000000E+00 0.  1.
         25    2    1    2    0    0  0.00000000000E+00  0.00000000000E+00 -0.31424987704E+03  0.33820261168E+03  0.12501208472E+03 0.  0.
          4    1    3    3  501    0  0.48340619153E+02  0.39577252576E+02 -0.15389155281E+03  0.16609692023E+03  0.15500000000E+01 0. -1.
         -4    1    3    3    0  501 -0.48340619153E+02 -0.39577252576E+02 -0.16035832423E+03  0.17210569146E+03  0.15500000000E+01 0. -1.
<mgrwt>
<rscale>  2 0.12501208E+03</rscale>
<asrwt>0</asrwt>
<pdfrwt beam="1">  1       21 0.18425183E-02 0.12501208E+03</pdfrwt>
<pdfrwt beam="2">  1       21 0.50188646E-01 0.12501208E+03</pdfrwt>
<totfact> 0.52405809E+06</totfact>
</mgrwt>
</event>
<event>
 5    0  0.1522214E+000  0.1250018E+03  0.7546771E-02  0.1235066E+00
         21   -1    0    0  503  502  0.00000000000E+00  0.00000000000E+00  0.77521519710E+02  0.77521519710E+02  0.00000000000E+00 0.  1.
         21   -1    0    0  502  503 -0.00000000000E+00 -0.00000000000E+00 -0.50390710878E+02  0.50390710878E+02  0.00000000000E+00 0.  1.
         25    2    1    2    0    0  0.00000000000E+00  0.00000000000E+00  0.27130808833E+02  0.12791223059E+03  0.12500183177E+03 0.  0.
          4    1    3    3  501    0  0.41289298099E+02 -0.45736572821E+02  0.24166227323E+02  0.66204601607E+02  0.15500000000E+01 0.  1.
         -4    1    3    3    0  501 -0.41289298099E+02  0.45736572821E+02  0.29645815094E+01  0.61707628981E+02  0.15500000000E+01 0.  1.
<mgrwt>
<rscale>  2 0.12500183E+03</rscale>
<asrwt>0</asrwt>
<pdfrwt beam="1">  1       21 0.11926388E-01 0.12500183E+03</pdfrwt>
<pdfrwt beam="2">  1       21 0.77524171E-02 0.12500183E+03</pdfrwt>
<totfact> 0.73641975E+06</totfact>
</mgrwt>
</event>
<event>
 5    0  0.1418071E+000  0.1250035E+03  0.7546771E-02  0.1235064E+00
         21   -1    0    0  503  502  0.00000000000E+00  0.00000000000E+00  0.27716946355E+02  0.27716946355E+02  0.00000000000E+00 0.  1.
         21   -1    0    0  502  503 -0.00000000000E+00 -0.00000000000E+00 -0.14094141835E+03  0.14094141835E+03  0.00000000000E+00 0.  1.
         25    2    1    2    0    0  0.00000000000E+00  0.00000000000E+00 -0.11322447199E+03  0.16865836470E+03  0.12500345166E+03 0.  0.
          4    1    3    3  501    0  0.21730219617E+02  0.14319829277E+02  0.20030698503E+02  0.32876911924E+02  0.15500000000E+01 0. -1.
         -4    1    3    3    0  501 -0.21730219617E+02 -0.14319829277E+02 -0.13325517050E+03  0.13578145278E+03  0.15500000000E+01 0. -1.
<mgrwt>
<rscale>  2 0.12500345E+03</rscale>
<asrwt>0</asrwt>
<pdfrwt beam="1">  1       21 0.42641455E-02 0.12500345E+03</pdfrwt>
<pdfrwt beam="2">  1       21 0.21683295E-01 0.12500345E+03</pdfrwt>
<totfact> 0.68470705E+06</totfact>
</mgrwt>
</event>
<event>
 4    0  0.1438395E+000  0.1251697E+03  0.7546771E-02  0.1234804E+00
         21   -1    0    0  503  502  0.00000000000E+00  0.00000000000E+00  0.18155098896E+03  0.18155098896E+03  0.00000000000E+00 0. -1.
         21   -1    0    0  502  503 -0.00000000000E+00 -0.00000000000E+00 -0.21574437535E+02  0.21574437535E+02  0.00000000000E+00 0. -1.
          4    1    1    2  501    0 -0.16243551991E+02  0.48079468045E+02  0.13936970210E+03  0.14833005289E+03  0.15500000000E+01 0.  1.
         -4    1    1    2    0  501  0.16243551991E+02 -0.48079468045E+02  0.20606849325E+02  0.54795373599E+02  0.15500000000E+01 0.  1.
<mgrwt>
<rscale>  2 0.12516965E+03</rscale>
<asrwt>0</asrwt>
<pdfrwt beam="1">  1       21 0.27930920E-01 0.12516965E+03</pdfrwt>
<pdfrwt beam="2">  1       21 0.33191443E-02 0.12516965E+03</pdfrwt>
<totfact> 0.64313583E+06</totfact>
</mgrwt>
</event>
<event>
 5    0  0.1222151E+000  0.1249961E+03  0.7546771E-02  0.1235075E+00
         21   -1    0    0  503  502  0.00000000000E+00  0.00000000000E+00  0.22645141139E+04  0.22645141139E+04  0.00000000000E+00 0.  1.
         21   -1    0    0  502  503 -0.00000000000E+00 -0.00000000000E+00 -0.17248769296E+01  0.17248769296E+01  0.00000000000E+00 0.  1.
         25    2    1    2    0    0  0.00000000000E+00  0.00000000000E+00  0.22627892370E+04  0.22662389908E+04  0.12499613037E+03 0.  0.
          4    1    3    3  501    0 -0.61147300627E+02  0.81832059615E+01  0.13105549036E+04  0.13120070560E+04  0.15500000000E+01 0.  1.
         -4    1    3    3    0  501  0.61147300627E+02 -0.81832059615E+01  0.95223433338E+03  0.95423193481E+03  0.15500000000E+01 0.  1.
<mgrwt>
<rscale>  2 0.12499613E+03</rscale>
<asrwt>0</asrwt>
<pdfrwt beam="1">  1       21 0.34838441E+00 0.12499613E+03</pdfrwt>
<pdfrwt beam="2">  1       21 0.26536749E-03 0.12499613E+03</pdfrwt>
<totfact> 0.56316759E+05</totfact>
</mgrwt>
</event>
<event>
 5    0  0.1222151E+000  0.1250037E+03  0.7546771E-02  0.1235064E+00
         21   -1    0    0  503  502  0.00000000000E+00  0.00000000000E+00  0.19275066247E+01  0.19275066247E+01  0.00000000000E+00 0. -1.
         21   -1    0    0  502  503 -0.00000000000E+00 -0.00000000000E+00 -0.20267006001E+04  0.20267006001E+04  0.00000000000E+00 0. -1.
         25    2    1    2    0    0  0.00000000000E+00  0.00000000000E+00 -0.20247730934E+04  0.20286281067E+04  0.12500366127E+03 0.  0.
          4    1    3    3  501    0 -0.31250894697E+02  0.26016062600E+02 -0.24249238995E+03  0.24588293071E+03  0.15500000000E+01 0.  1.
         -4    1    3    3    0  501  0.31250894697E+02 -0.26016062600E+02 -0.17822807035E+04  0.17827451760E+04  0.15500000000E+01 0.  1.
<mgrwt>
<rscale>  2 0.12500366E+03</rscale>
<asrwt>0</asrwt>
<pdfrwt beam="1">  1       21 0.29653931E-03 0.12500366E+03</pdfrwt>
<pdfrwt beam="2">  1       21 0.31180027E+00 0.12500366E+03</pdfrwt>
<totfact> 0.76714194E+05</totfact>
</mgrwt>
</event>
<event>
 5    0  0.1447394E+000  0.1250000E+03  0.7546771E-02  0.1235069E+00
         21   -1    0    0  503  502  0.00000000000E+00  0.00000000000E+00  0.50972983344E+02  0.50972983344E+02  0.00000000000E+00 0.  1.
         21   -1    0    0  502  503 -0.00000000000E+00 -0.00000000000E+00 -0.76633733341E+02  0.76633733341E+02  0.00000000000E+00 0.  1.
         25    2    1    2    0    0  0.00000000000E+00  0.00000000000E+00 -0.25660749997E+02  0.12760671669E+03  0.12500000021E+03 0.  0.
          4    1    3    3  501    0  0.46658644623E+02 -0.42388871555E+01 -0.55030673351E+02  0.72289520623E+02  0.15500000000E+01 0.  1.
         -4    1    3    3    0  501 -0.46658644623E+02  0.42388871555E+01  0.29369923354E+02  0.55317196063E+02  0.15500000000E+01 0.  1.
<mgrwt>
<rscale>  2 0.12500000E+03</rscale>
<asrwt>0</asrwt>
<pdfrwt beam="1">  1       21 0.78419974E-02 0.12500000E+03</pdfrwt>
<pdfrwt beam="2">  1       21 0.11789805E-01 0.12500000E+03</pdfrwt>
<totfact> 0.73686757E+06</totfact>
</mgrwt>
</event>
<event>
 5    0  0.1429748E+000  0.1250016E+03  0.7546771E-02  0.1235067E+00
         21   -1    0    0  503  502  0.00000000000E+00  0.00000000000E+00  0.10539971446E+03  0.10539971446E+03  0.00000000000E+00 0. -1.
         21   -1    0    0  502  503 -0.00000000000E+00 -0.00000000000E+00 -0.37062247822E+02  0.37062247822E+02  0.00000000000E+00 0. -1.
         25    2    1    2    0    0  0.00000000000E+00  0.00000000000E+00  0.68337466635E+02  0.14246196228E+03  0.12500160539E+03 0.  0.
          4    1    3    3  501    0 -0.55294714663E+01  0.26072154487E+02  0.98574484224E+02  0.10212572513E+03  0.15500000000E+01 0. -1.
         -4    1    3    3    0  501  0.55294714663E+01 -0.26072154487E+02 -0.30237017589E+02  0.40336237144E+02  0.15500000000E+01 0. -1.
<mgrwt>
<rscale>  2 0.12500161E+03</rscale>
<asrwt>0</asrwt>
<pdfrwt beam="1">  1       21 0.16215341E-01 0.12500161E+03</pdfrwt>
<pdfrwt beam="2">  1       21 0.57018843E-02 0.12500161E+03</pdfrwt>
<totfact> 0.71716579E+06</totfact>
</mgrwt>
</event>
<event>
 5    0  0.1464034E+000  0.1250028E+03  0.7546771E-02  0.1235065E+00
         21   -1    0    0  503  502  0.00000000000E+00  0.00000000000E+00  0.52461423381E+02  0.52461423381E+02  0.00000000000E+00 0.  1.
         21   -1    0    0  502  503 -0.00000000000E+00 -0.00000000000E+00 -0.74462855736E+02  0.74462855736E+02  0.00000000000E+00 0.  1.
         25    2    1    2    0    0  0.00000000000E+00  0.00000000000E+00 -0.22001432355E+02  0.12692427912E+03  0.12500283838E+03 0.  0.
          4    1    3    3  501    0  0.29299714922E+02  0.78137955259E+01 -0.66470994706E+02  0.73077522756E+02  0.15500000000E+01 0. -1.
         -4    1    3    3    0  501 -0.29299714922E+02 -0.78137955259E+01  0.44469562351E+02  0.53846756362E+02  0.15500000000E+01 0. -1.
<mgrwt>
<rscale>  2 0.12500284E+03</rscale>
<asrwt>0</asrwt>
<pdfrwt beam="1">  1       21 0.80709882E-02 0.12500284E+03</pdfrwt>
<pdfrwt beam="2">  1       21 0.11455824E-01 0.12500284E+03</pdfrwt>
<totfact> 0.73774103E+06</totfact>
</mgrwt>
</event>
<event>
 5    0  0.1544213E+000  0.1250029E+03  0.7546771E-02  0.1235065E+00
         21   -1    0    0  503  502  0.00000000000E+00  0.00000000000E+00  0.12866335124E+03  0.12866335124E+03  0.00000000000E+00 0. -1.
         21   -1    0    0  502  503 -0.00000000000E+00 -0.00000000000E+00 -0.30361645127E+02  0.30361645127E+02  0.00000000000E+00 0. -1.
         25    2    1    2    0    0  0.00000000000E+00  0.00000000000E+00  0.98301706117E+02  0.15902499637E+03  0.12500289615E+03 0.  0.
          4    1    3    3  501    0 -0.52210601252E+02 -0.28754613407E+02  0.72993576271E+02  0.94250938202E+02  0.15500000000E+01 0. -1.
         -4    1    3    3    0  501  0.52210601252E+02  0.28754613407E+02  0.25308129847E+02  0.64774058168E+02  0.15500000000E+01 0. -1.
<mgrwt>
<rscale>  2 0.12500290E+03</rscale>
<asrwt>0</asrwt>
<pdfrwt beam="1">  1       21 0.19794362E-01 0.12500290E+03</pdfrwt>
<pdfrwt beam="2">  1       21 0.46710224E-02 0.12500290E+03</pdfrwt>
<totfact> 0.69633700E+06</totfact>
</mgrwt>
</event>
<event>
 5    0  0.1222151E+000  0.1249943E+03  0.7546771E-02  0.1235078E+00
         21   -1    0    0  503  502  0.00000000000E+00  0.00000000000E+00  0.85619913572E+03  0.85619913572E+03  0.00000000000E+00 0.  1.
         21   -1    0    0  502  503 -0.00000000000E+00 -0.00000000000E+00 -0.45618973227E+01  0.45618973227E+01  0.00000000000E+00 0.  1.
         25    2    1    2    0    0  0.00000000000E+00  0.00000000000E+00  0.85163723840E+03  0.86076103304E+03  0.12499428059E+03 0.  0.
          4    1    3    3  501    0 -0.58369166604E+02 -0.11894890007E+02  0.29606115827E+03  0.30199844363E+03  0.15500000000E+01 0.  1.
         -4    1    3    3    0  501  0.58369166604E+02  0.11894890007E+02  0.55557608012E+03  0.55876258941E+03  0.15500000000E+01 0.  1.
<mgrwt>
<rscale>  2 0.12499428E+03</rscale>
<asrwt>0</asrwt>
<pdfrwt beam="1">  1       21 0.13172282E+00 0.12499428E+03</pdfrwt>
<pdfrwt beam="2">  1       21 0.70183104E-03 0.12499428E+03</pdfrwt>
<totfact> 0.27449692E+06</totfact>
</mgrwt>
</event>
<event>
 5    0  0.1441170E+000  0.1250002E+03  0.7546771E-02  0.1235069E+00
         21   -1    0    0  503  502  0.00000000000E+00  0.00000000000E+00  0.11763463858E+02  0.11763463858E+02  0.00000000000E+00 0.  1.
         21   -1    0    0  502  503 -0.00000000000E+00 -0.00000000000E+00 -0.33206743793E+03  0.33206743793E+03  0.00000000000E+00 0.  1.
         25    2    1    2    0    0  0.00000000000E+00  0.00000000000E+00 -0.32030397407E+03  0.34383090179E+03  0.12500021287E+03 0.  0.
          4    1    3    3  501    0  0.33848535146E+02  0.51175221207E+02 -0.19260889374E+03  0.20215146560E+03  0.15500000000E+01 0. -1.
         -4    1    3    3    0  501 -0.33848535146E+02 -0.51175221207E+02 -0.12769508034E+03  0.14167943619E+03  0.15500000000E+01 0. -1.
<mgrwt>
<rscale>  2 0.12500021E+03</rscale>
<asrwt>0</asrwt>
<pdfrwt beam="1">  1       21 0.18097635E-02 0.12500021E+03</pdfrwt>
<pdfrwt beam="2">  1       21 0.51087302E-01 0.12500021E+03</pdfrwt>
<totfact> 0.51997009E+06</totfact>
</mgrwt>
</event>
<event>
 5    0  0.1222151E+000  0.1250128E+03  0.7546771E-02  0.1235049E+00
         21   -1    0    0  503  502  0.00000000000E+00  0.00000000000E+00  0.46508502507E+01  0.46508502507E+01  0.00000000000E+00 0. -1.
         21   -1    0    0  502  503 -0.00000000000E+00 -0.00000000000E+00 -0.84007182913E+03  0.84007182913E+03  0.00000000000E+00 0. -1.
         25    2    1    2    0    0  0.00000000000E+00  0.00000000000E+00 -0.83542097888E+03  0.84472267938E+03  0.12501277178E+03 0.  0.
          4    1    3    3  501    0  0.21122548517E+02 -0.32846224937E+02 -0.88091220191E+02  0.96371687352E+02  0.15500000000E+01 0. -1.
         -4    1    3    3    0  501 -0.21122548517E+02  0.32846224937E+02 -0.74732975869E+03  0.74835099203E+03  0.15500000000E+01 0. -1.
<mgrwt>
<rscale>  2 0.12501277E+03</rscale>
<asrwt>0</asrwt>
<pdfrwt beam="1">  1       21 0.71551528E-03 0.12501277E+03</pdfrwt>
<pdfrwt beam="2">  1       21 0.12924185E+00 0.12501277E+03</pdfrwt>
<totfact> 0.27924788E+06</totfact>
</mgrwt>
</event>
<event>
 5    0  0.1540462E+000  0.1250012E+03  0.7546771E-02  0.1235067E+00
         21   -1    0    0  503  502  0.00000000000E+00  0.00000000000E+00  0.23124194440E+03  0.23124194440E+03  0.00000000000E+00 0. -1.
         21   -1    0    0  502  503 -0.00000000000E+00 -0.00000000000E+00 -0.16892817449E+02  0.16892817449E+02  0.00000000000E+00 0. -1.
         25    2    1    2    0    0  0.00000000000E+00  0.00000000000E+00  0.21434912695E+03  0.24813476185E+03  0.12500124725E+03 0.  0.
          4    1    3    3  501    0  0.20662766082E+02  0.54562699515E+02  0.15155681669E+03  0.16240661707E+03  0.15500000000E+01 0.  1.
         -4    1    3    3    0  501 -0.20662766082E+02 -0.54562699515E+02  0.62792310257E+02  0.85728144783E+02  0.15500000000E+01 0.  1.
<mgrwt>
<rscale>  2 0.12500125E+03</rscale>
<asrwt>0</asrwt>
<pdfrwt beam="1">  1       21 0.35575682E-01 0.12500125E+03</pdfrwt>
<pdfrwt beam="2">  1       21 0.25988952E-02 0.12500125E+03</pdfrwt>
<totfact> 0.60052357E+06</totfact>
</mgrwt>
</event>
<event>
 5    0  0.1580387E+000  0.1250032E+03  0.7546771E-02  0.1235064E+00
         21   -1    0    0  503  502  0.00000000000E+00  0.00000000000E+00  0.25532045158E+02  0.25532045158E+02  0.00000000000E+00 0. -1.
         21   -1    0    0  502  503 -0.00000000000E+00 -0.00000000000E+00 -0.15300176630E+03  0.15300176630E+03  0.00000000000E+00 0. -1.
         25    2    1    2    0    0  0.00000000000E+00  0.00000000000E+00 -0.12746972114E+03  0.17853381146E+03  0.12500316806E+03 0.  0.
          4    1    3    3  501    0  0.51726008282E+02  0.29917087908E+02 -0.89814646575E+02  0.10788737332E+03  0.15500000000E+01 0.  1.
         -4    1    3    3    0  501 -0.51726008282E+02 -0.29917087908E+02 -0.37655074569E+02  0.70646438144E+02  0.15500000000E+01 0.  1.
<mgrwt>
<rscale>  2 0.12500317E+03</rscale>
<asrwt>0</asrwt>
<pdfrwt beam="1">  1       21 0.39280069E-02 0.12500317E+03</pdfrwt>
<pdfrwt beam="2">  1       21 0.23538733E-01 0.12500317E+03</pdfrwt>
<totfact> 0.67314722E+06</totfact>
</mgrwt>
</event>
<event>
 5    0  0.1494238E+000  0.1249994E+03  0.7546771E-02  0.1235070E+00
         21   -1    0    0  503  502  0.00000000000E+00  0.00000000000E+00  0.11117886035E+02  0.11117886035E+02  0.00000000000E+00 0. -1.
         21   -1    0    0  502  503 -0.00000000000E+00 -0.00000000000E+00 -0.35134507571E+03  0.35134507571E+03  0.00000000000E+00 0. -1.
         25    2    1    2    0    0  0.00000000000E+00  0.00000000000E+00 -0.34022718967E+03  0.36246296174E+03  0.12499943217E+03 0.  0.
          4    1    3    3  501    0  0.56220486268E+02 -0.23967362211E+02 -0.13245806286E+03  0.14588597754E+03  0.15500000000E+01 0. -1.
         -4    1    3    3    0  501 -0.56220486268E+02  0.23967362211E+02 -0.20776912682E+03  0.21657698420E+03  0.15500000000E+01 0. -1.
<mgrwt>
<rscale>  2 0.12499943E+03</rscale>
<asrwt>0</asrwt>
<pdfrwt beam="1">  1       21 0.17104440E-02 0.12499943E+03</pdfrwt>
<pdfrwt beam="2">  1       21 0.54053088E-01 0.12499943E+03</pdfrwt>
<totfact> 0.50631693E+06</totfact>
</mgrwt>
</event>
<event>
 5    0  0.1521335E+000  0.1249979E+03  0.7546771E-02  0.1235073E+00
         21   -1    0    0  503  502  0.00000000000E+00  0.00000000000E+00  0.23300234374E+02  0.23300234374E+02  0.00000000000E+00 0.  1.
         21   -1    0    0  502  503 -0.00000000000E+00 -0.00000000000E+00 -0.16764279846E+03  0.16764279846E+03  0.00000000000E+00 0.  1.
         25    2    1    2    0    0  0.00000000000E+00  0.00000000000E+00 -0.14434256408E+03  0.19094303283E+03  0.12499786391E+03 0.  0.
          4    1    3    3  501    0 -0.51803026572E+02 -0.22757954888E+02 -0.31691073061E+02  0.64870676615E+02  0.15500000000E+01 0.  1.
         -4    1    3    3    0  501  0.51803026572E+02  0.22757954888E+02 -0.11265149102E+03  0.12607235622E+03  0.15500000000E+01 0.  1.
<mgrwt>
<rscale>  2 0.12499786E+03</rscale>
<asrwt>0</asrwt>
<pdfrwt beam="1">  1       21 0.35846515E-02 0.12499786E+03</pdfrwt>
<pdfrwt beam="2">  1       21 0.25791199E-01 0.12499786E+03</pdfrwt>
<totfact> 0.65921376E+06</totfact>
</mgrwt>
</event>
<event>
 5    0  0.1488029E+000  0.1250029E+03  0.7546771E-02  0.1235065E+00
         21   -1    0    0  503  502  0.00000000000E+00  0.00000000000E+00  0.45371236856E+02  0.45371236856E+02  0.00000000000E+00 0. -1.
         21   -1    0    0  502  503 -0.00000000000E+00 -0.00000000000E+00 -0.86099331538E+02  0.86099331538E+02  0.00000000000E+00 0. -1.
         25    2    1    2    0    0  0.00000000000E+00  0.00000000000E+00 -0.40728094681E+02  0.13147056839E+03  0.12500293060E+03 0.  0.
          4    1    3    3  501    0  0.42740344327E+02 -0.14182598510E+02 -0.65919654452E+02  0.79847895882E+02  0.15500000000E+01 0. -1.
         -4    1    3    3    0  501 -0.42740344327E+02  0.14182598510E+02  0.25191559770E+02  0.51622672513E+02  0.15500000000E+01 0. -1.
<mgrwt>
<rscale>  2 0.12500293E+03</rscale>
<asrwt>0</asrwt>
<pdfrwt beam="1">  1       21 0.69801904E-02 0.12500293E+03</pdfrwt>
<pdfrwt beam="2">  1       21 0.13246051E-01 0.12500293E+03</pdfrwt>
<totfact> 0.73161859E+06</totfact>
</mgrwt>
</event>
<event>
 4    0  0.1443518E+000  0.1251366E+03  0.7546771E-02  0.1234856E+00
         21   -1    0    0  503  502  0.00000000000E+00  0.00000000000E+00  0.60604411568E+02  0.60604411568E+02  0.00000000000E+00 0. -1.
         21   -1    0    0  502  503 -0.00000000000E+00 -0.00000000000E+00 -0.64595784395E+02  0.64595784395E+02  0.00000000000E+00 0. -1.
          4    1    1    2  501    0  0.38411615049E+02  0.53892726945E+00 -0.51383168057E+02  0.64174567180E+02  0.15500000000E+01 0. -1.
         -4    1    1    2    0  501 -0.38411615049E+02 -0.53892726945E+00  0.47391795230E+02  0.61025628783E+02  0.15500000000E+01 0. -1.
<mgrwt>
<rscale>  2 0.12513656E+03</rscale>
<asrwt>0</asrwt>
<pdfrwt beam="1">  1       21 0.93237557E-02 0.12513656E+03</pdfrwt>
<pdfrwt beam="2">  1       21 0.99378129E-02 0.12513656E+03</pdfrwt>
<totfact> 0.73758714E+06</totfact>
</mgrwt>
</event>
<event>
 5    0  0.1472842E+000  0.1250094E+03  0.7546771E-02  0.1235055E+00
         21   -1    0    0  503  502  0.00000000000E+00  0.00000000000E+00  0.59384849679E+02  0.59384849679E+02  0.00000000000E+00 0.  1.
         21   -1    0    0  502  503 -0.00000000000E+00 -0.00000000000E+00 -0.65788471599E+02  0.65788471599E+02  0.00000000000E+00 0.  1.
         25    2    1    2    0    0  0.00000000000E+00  0.00000000000E+00 -0.64036219194E+01  0.12517332128E+03  0.12500941559E+03 0.  0.
          4    1    3    3  501    0 -0.25892492433E+02 -0.36959894981E+02 -0.46478624623E+02  0.64800617653E+02  0.15500000000E+01 0. -1.
         -4    1    3    3    0  501  0.25892492433E+02  0.36959894981E+02  0.40075002703E+02  0.60372703625E+02  0.15500000000E+01 0. -1.
<mgrwt>
<rscale>  2 0.12500942E+03</rscale>
<asrwt>0</asrwt>
<pdfrwt beam="1">  1       21 0.91361308E-02 0.12500942E+03</pdfrwt>
<pdfrwt beam="2">  1       21 0.10121303E-01 0.12500942E+03</pdfrwt>
<totfact> 0.74002359E+06</totfact>
</mgrwt>
</event>
<event>
 5    0  0.1554629E+000  0.1250039E+03  0.7546771E-02  0.1235063E+00
         21   -1    0    0  503  502  0.00000000000E+00  0.00000000000E+00  0.81569841381E+02  0.81569841381E+02  0.00000000000E+00 0. -1.
         21   -1    0    0  502  503 -0.00000000000E+00 -0.00000000000E+00 -0.47891416871E+02  0.47891416871E+02  0.00000000000E+00 0. -1.
         25    2    1    2    0    0  0.00000000000E+00  0.00000000000E+00  0.33678424510E+02  0.12946125825E+03  0.12500392438E+03 0.  0.
          4    1    3    3  501    0 -0.24273486062E+02  0.24141041139E+02  0.70972516174E+02  0.78813022687E+02  0.15500000000E+01 0. -1.
         -4    1    3    3    0  501  0.24273486062E+02 -0.24141041139E+02 -0.37294091664E+02  0.50648235566E+02  0.15500000000E+01 0. -1.
<mgrwt>
<rscale>  2 0.12500392E+03</rscale>
<asrwt>0</asrwt>
<pdfrwt beam="1">  1       21 0.12549206E-01 0.12500392E+03</pdfrwt>
<pdfrwt beam="2">  1       21 0.73679103E-02 0.12500392E+03</pdfrwt>
<totfact> 0.73429650E+06</totfact>
</mgrwt>
</event>
<event>
 5    0  0.1505354E+000  0.1249962E+03  0.7546771E-02  0.1235075E+00
         21   -1    0    0  503  502  0.00000000000E+00  0.00000000000E+00  0.24294517115E+02  0.24294517115E+02  0.00000000000E+00 0. -1.
         21   -1    0    0  502  503 -0.00000000000E+00 -0.00000000000E+00 -0.16077764072E+03  0.16077764072E+03  0.00000000000E+00 0. -1.
         25    2    1    2    0    0  0.00000000000E+00  0.00000000000E+00 -0.13648312360E+03  0.18507215783E+03  0.12499624225E+03 0.  0.
          4    1    3    3  501    0  0.16605081082E+02  0.57765024695E+02 -0.93502802529E+02  0.11116520758E+03  0.15500000000E+01 0. -1.
         -4    1    3    3    0  501 -0.16605081082E+02 -0.57765024695E+02 -0.42980321073E+02  0.73906950251E+02  0.15500000000E+01 0. -1.
<mgrwt>
<rscale>  2 0.12499624E+03</rscale>
<asrwt>0</asrwt>
<pdfrwt beam="1">  1       21 0.37376179E-02 0.12499624E+03</pdfrwt>
<pdfrwt beam="2">  1       21 0.24735022E-01 0.12499624E+03</pdfrwt>
<totfact> 0.66580726E+06</totfact>
</mgrwt>
</event>
<event>
 5    0  0.1222151E+000  0.1250026E+03  0.7546771E-02  0.1235065E+00
         21   -1    0    0  503  502  0.00000000000E+00  0.00000000000E+00  0.27494898331E+01  0.27494898331E+01  0.00000000000E+00 0. -1.
         21   -1    0    0  502  503 -0.00000000000E+00 -0.00000000000E+00 -0.14207783485E+04  0.14207783485E+04  0.00000000000E+00 0. -1.
         25    2    1    2    0    0  0.00000000000E+00  0.00000000000E+00 -0.14180288586E+04  0.14235278383E+04  0.12500264996E+03 0.  0.
          4    1    3    3  501    0 -0.38355013671E+02 -0.49324054415E+02 -0.70663364640E+03  0.70939233302E+03  0.15500000000E+01 0. -1.
         -4    1    3    3    0  501  0.38355013671E+02  0.49324054415E+02 -0.71139521222E+03  0.71413550527E+03  0.15500000000E+01 0. -1.
<mgrwt>
<rscale>  2 0.12500265E+03</rscale>
<asrwt>0</asrwt>
<pdfrwt beam="1">  1       21 0.42299869E-03 0.12500265E+03</pdfrwt>
<pdfrwt beam="2">  1       21 0.21858115E+00 0.12500265E+03</pdfrwt>
<totfact> 0.15165275E+06</totfact>
</mgrwt>
</event>
<event>
 5    0  0.1485423E+000  0.1249717E+03  0.7546771E-02  0.1235113E+00
         21   -1    0    0  503  502  0.00000000000E+00  0.00000000000E+00  0.94907576315E+02  0.94907576315E+02  0.00000000000E+00 0.  1.
         21   -1    0    0  502  503 -0.00000000000E+00 -0.00000000000E+00 -0.41139857259E+02  0.41139857259E+02  0.00000000000E+00 0.  1.
         25    2    1    2    0    0  0.00000000000E+00  0.00000000000E+00  0.53767719056E+02  0.13604743357E+03  0.12497174308E+03 0.  0.
          4    1    3    3  501    0 -0.33288471475E+02  0.41962508692E+01  0.84244724957E+02  0.90693478473E+02  0.15500000000E+01 0.  1.
         -4    1    3    3    0  501  0.33288471475E+02 -0.41962508692E+01 -0.30477005901E+02  0.45353955100E+02  0.15500000000E+01 0.  1.
<mgrwt>
<rscale>  2 0.12497174E+03</rscale>
<asrwt>0</asrwt>
<pdfrwt beam="1">  1       21 0.14601166E-01 0.12497174E+03</pdfrwt>
<pdfrwt beam="2">  1       21 0.63292088E-02 0.12497174E+03</pdfrwt>
<totfact> 0.72610393E+06</totfact>
</mgrwt>
</event>
<event>
 5    0  0.1574417E+000  0.1250007E+03  0.7546771E-02  0.1235068E+00
         21   -1    0    0  503  502  0.00000000000E+00  0.00000000000E+00  0.42864697124E+02  0.42864697124E+02  0.00000000000E+00 0. -1.
         21   -1    0    0  502  503 -0.00000000000E+00 -0.00000000000E+00 -0.91130718850E+02  0.91130718850E+02  0.00000000000E+00 0. -1.
         25    2    1    2    0    0  0.00000000000E+00  0.00000000000E+00 -0.48266021727E+02  0.13399541597E+03  0.12500065059E+03 0.  0.
          4    1    3    3  501    0 -0.50894130244E+02  0.23102260313E+02 -0.54070417589E+02  0.77781356912E+02  0.15500000000E+01 0. -1.
         -4    1    3    3    0  501  0.50894130244E+02 -0.23102260313E+02  0.58043958620E+01  0.56214059062E+02  0.15500000000E+01 0. -1.
<mgrwt>
<rscale>  2 0.12500065E+03</rscale>
<asrwt>0</asrwt>
<pdfrwt beam="1">  1       21 0.65945688E-02 0.12500065E+03</pdfrwt>
<pdfrwt beam="2">  1       21 0.14020111E-01 0.12500065E+03</pdfrwt>
<totfact> 0.72828554E+06</totfact>
</mgrwt>
</event>
<event>
 5    0  0.1286376E+000  0.1250047E+03  0.7546771E-02  0.1235062E+00
         21   -1    0    0  503  502  0.00000000000E+00  0.00000000000E+00  0.43116912547E+03  0.43116912547E+03  0.00000000000E+00 0. -1.
         21   -1    0    0  502  503 -0.00000000000E+00 -0.00000000000E+00 -0.90603527592E+01  0.90603527592E+01  0.00000000000E+00 0. -1.
         25    2    1    2    0    0  0.00000000000E+00  0.00000000000E+00  0.42210877271E+03  0.44022947823E+03  0.12500470992E+03 0.  0.
          4    1    3    3  501    0 -0.30379801858E+02 -0.32147790915E+02  0.36647800446E+03  0.36914081741E+03  0.15500000000E+01 0.  1.
         -4    1    3    3    0  501  0.30379801858E+02  0.32147790915E+02  0.55630768253E+02  0.71088660826E+02  0.15500000000E+01 0.  1.
<mgrwt>
<rscale>  2 0.12500471E+03</rscale>
<asrwt>0</asrwt>
<pdfrwt beam="1">  1       21 0.66333696E-01 0.12500471E+03</pdfrwt>
<pdfrwt beam="2">  1       21 0.13939008E-02 0.12500471E+03</pdfrwt>
<totfact> 0.45477285E+06</totfact>
</mgrwt>
</event>
<event>
 5    0  0.1468816E+000  0.1249980E+03  0.7546771E-02  0.1235072E+00
         21   -1    0    0  503  502  0.00000000000E+00  0.00000000000E+00  0.19230821644E+03  0.19230821644E+03  0.00000000000E+00 0. -1.
         21   -1    0    0  502  503 -0.00000000000E+00 -0.00000000000E+00 -0.20311807971E+02  0.20311807971E+02  0.00000000000E+00 0. -1.
         25    2    1    2    0    0  0.00000000000E+00  0.00000000000E+00  0.17199640847E+03  0.21262002441E+03  0.12499804100E+03 0.  0.
          4    1    3    3  501    0 -0.25179871846E+02  0.29442634255E+02  0.16937832435E+03  0.17375935634E+03  0.15500000000E+01 0. -1.
         -4    1    3    3    0  501  0.25179871846E+02 -0.29442634255E+02  0.26180841200E+01  0.38860668066E+02  0.15500000000E+01 0. -1.
<mgrwt>
<rscale>  2 0.12499804E+03</rscale>
<asrwt>0</asrwt>
<pdfrwt beam="1">  1       21 0.29585878E-01 0.12499804E+03</pdfrwt>
<pdfrwt beam="2">  1       21 0.31248937E-02 0.12499804E+03</pdfrwt>
<totfact> 0.63588080E+06</totfact>
</mgrwt>
</event>
<event>
 5    0  0.1575073E+000  0.1249980E+03  0.7546771E-02  0.1235072E+00
         21   -1    0    0  503  502  0.00000000000E+00  0.00000000000E+00  0.16532797978E+03  0.16532797978E+03  0.00000000000E+00 0.  1.
         21   -1    0    0  502  503 -0.00000000000E+00 -0.00000000000E+00 -0.23626513014E+02  0.23626513014E+02  0.00000000000E+00 0.  1.
         25    2    1    2    0    0  0.00000000000E+00  0.00000000000E+00  0.14170146676E+03  0.18895449279E+03  0.12499797864E+03 0.  0.
          4    1    3    3  501    0  0.56711605844E+02 -0.26100071025E+02  0.67056128311E+02  0.91631581832E+02  0.15500000000E+01 0.  1.
         -4    1    3    3    0  501 -0.56711605844E+02  0.26100071025E+02  0.74645338453E+02  0.97322910959E+02  0.15500000000E+01 0.  1.
<mgrwt>
<rscale>  2 0.12499798E+03</rscale>
<asrwt>0</asrwt>
<pdfrwt beam="1">  1       21 0.25435073E-01 0.12499798E+03</pdfrwt>
<pdfrwt beam="2">  1       21 0.36348483E-02 0.12499798E+03</pdfrwt>
<totfact> 0.66142239E+06</totfact>
</mgrwt>
</event>
<event>
 5    0  0.1478873E+000  0.1250003E+03  0.7546771E-02  0.1235069E+00
         21   -1    0    0  503  502  0.00000000000E+00  0.00000000000E+00  0.31756477648E+02  0.31756477648E+02  0.00000000000E+00 0.  1.
         21   -1    0    0  502  503 -0.00000000000E+00 -0.00000000000E+00 -0.12300693364E+03  0.12300693364E+03  0.00000000000E+00 0.  1.
         25    2    1    2    0    0  0.00000000000E+00  0.00000000000E+00 -0.91250455989E+02  0.15476341129E+03  0.12500027102E+03 0.  0.
          4    1    3    3  501    0 -0.20631734456E+01  0.27782428031E+02 -0.11486776473E+03  0.11820797716E+03  0.15500000000E+01 0. -1.
         -4    1    3    3    0  501  0.20631734456E+01 -0.27782428031E+02  0.23617308736E+02  0.36555434123E+02  0.15500000000E+01 0. -1.
<mgrwt>
<rscale>  2 0.12500027E+03</rscale>
<asrwt>0</asrwt>
<pdfrwt beam="1">  1       21 0.48856120E-02 0.12500027E+03</pdfrwt>
<pdfrwt beam="2">  1       21 0.18924144E-01 0.12500027E+03</pdfrwt>
<totfact> 0.70164592E+06</totfact>
</mgrwt>
</event>
<event>
 5    0  0.1497726E+000  0.1250132E+03  0.7546771E-02  0.1235049E+00
         21   -1    0    0  503  502  0.00000000000E+00  0.00000000000E+00  0.30327770527E+02  0.30327770527E+02  0.00000000000E+00 0. -1.
         21   -1    0    0  502  503 -0.00000000000E+00 -0.00000000000E+00 -0.12882832608E+03  0.12882832608E+03  0.00000000000E+00 0. -1.
         25    2    1    2    0    0  0.00000000000E+00  0.00000000000E+00 -0.98500555555E+02  0.15915609661E+03  0.12501321388E+03 0.  0.
          4    1    3    3  501    0 -0.29747419723E+02 -0.45818675513E+02 -0.87874418131E+02  0.10348224905E+03  0.15500000000E+01 0. -1.
         -4    1    3    3    0  501  0.29747419723E+02  0.45818675513E+02 -0.10626137424E+02  0.55673847563E+02  0.15500000000E+01 0. -1.
<mgrwt>
<rscale>  2 0.12501321E+03</rscale>
<asrwt>0</asrwt>
<pdfrwt beam="1">  1       21 0.46658108E-02 0.12501321E+03</pdfrwt>
<pdfrwt beam="2">  1       21 0.19819743E-01 0.12501321E+03</pdfrwt>
<totfact> 0.69599372E+06</totfact>
</mgrwt>
</event>
<event>
 5    0  0.1442355E+000  0.1250052E+03  0.7546771E-02  0.1235061E+00
         21   -1    0    0  503  502  0.00000000000E+00  0.00000000000E+00  0.16160498814E+02  0.16160498814E+02  0.00000000000E+00 0. -1.
         21   -1    0    0  502  503 -0.00000000000E+00 -0.00000000000E+00 -0.24173603366E+03  0.24173603366E+03  0.00000000000E+00 0. -1.
         25    2    1    2    0    0  0.00000000000E+00  0.00000000000E+00 -0.22557553485E+03  0.25789653247E+03  0.12500519805E+03 0.  0.
          4    1    3    3  501    0  0.45861001756E+02  0.38366718232E+02 -0.75370417529E+02  0.96220262359E+02  0.15500000000E+01 0. -1.
         -4    1    3    3    0  501 -0.45861001756E+02 -0.38366718232E+02 -0.15020511732E+03  0.16167627011E+03  0.15500000000E+01 0. -1.
<mgrwt>
<rscale>  2 0.12500520E+03</rscale>
<asrwt>0</asrwt>
<pdfrwt beam="1">  1       21 0.24862308E-02 0.12500520E+03</pdfrwt>
<pdfrwt beam="2">  1       21 0.37190156E-01 0.12500520E+03</pdfrwt>
<totfact> 0.59134863E+06</totfact>
</mgrwt>
</event>
<event>
 5    0  0.1222151E+000  0.1249951E+03  0.7546771E-02  0.1235077E+00
         21   -1    0    0  503  502  0.00000000000E+00  0.00000000000E+00  0.18464026439E+02  0.18464026439E+02  0.00000000000E+00 0. -1.
         21   -1    0    0  502  503 -0.00000000000E+00 -0.00000000000E+00 -0.21154328165E+03  0.21154328165E+03  0.00000000000E+00 0. -1.
         25    2    1    2    0    0  0.00000000000E+00  0.00000000000E+00 -0.19307925521E+03  0.23000730809E+03  0.12499505183E+03 0.  0.
          4    1    3    3  501    0  0.21531224043E+02 -0.15800202778E+01 -0.20442607532E+03  0.20556875454E+03  0.15500000000E+01 0.  1.
         -4    1    3    3    0  501 -0.21531224043E+02  0.15800202778E+01  0.11346820109E+02  0.24438553547E+02  0.15500000000E+01 0.  1.
<mgrwt>
<rscale>  2 0.12499505E+03</rscale>
<asrwt>0</asrwt>
<pdfrwt beam="1">  1       21 0.28406194E-02 0.12499505E+03</pdfrwt>
<pdfrwt beam="2">  1       21 0.32545121E-01 0.12499505E+03</pdfrwt>
<totfact> 0.61820974E+06</totfact>
</mgrwt>
</event>
<event>
 5    0  0.1436611E+000  0.1250036E+03  0.7546771E-02  0.1235064E+00
         21   -1    0    0  503  502  0.00000000000E+00  0.00000000000E+00  0.25291861373E+03  0.25291861373E+03  0.00000000000E+00 0.  1.
         21   -1    0    0  502  503 -0.00000000000E+00 -0.00000000000E+00 -0.15445576552E+02  0.15445576552E+02  0.00000000000E+00 0.  1.
         25    2    1    2    0    0  0.00000000000E+00  0.00000000000E+00  0.23747303717E+03  0.26836419028E+03  0.12500358091E+03 0.  0.
          4    1    3    3  501    0 -0.15121518147E+02 -0.50940159801E+02  0.48167068981E+02  0.71735829443E+02  0.15500000000E+01 0.  1.
         -4    1    3    3    0  501  0.15121518147E+02  0.50940159801E+02  0.18930596819E+03  0.19662836084E+03  0.15500000000E+01 0.  1.
<mgrwt>
<rscale>  2 0.12500358E+03</rscale>
<asrwt>0</asrwt>
<pdfrwt beam="1">  1       21 0.38910553E-01 0.12500358E+03</pdfrwt>
<pdfrwt beam="2">  1       21 0.23762427E-02 0.12500358E+03</pdfrwt>
<totfact> 0.58185784E+06</totfact>
</mgrwt>
</event>
<event>
 5    0  0.1222151E+000  0.1250009E+03  0.7546771E-02  0.1235068E+00
         21   -1    0    0  503  502  0.00000000000E+00  0.00000000000E+00  0.46913678223E+01  0.46913678223E+01  0.00000000000E+00 0. -1.
         21   -1    0    0  502  503 -0.00000000000E+00 -0.00000000000E+00 -0.83265840137E+03  0.83265840137E+03  0.00000000000E+00 0. -1.
         25    2    1    2    0    0  0.00000000000E+00  0.00000000000E+00 -0.82796703355E+03  0.83734976919E+03  0.12500090929E+03 0.  0.
          4    1    3    3  501    0 -0.12137626055E+02  0.23213439982E+02 -0.33997372297E+02  0.42946589913E+02  0.15500000000E+01 0.  1.
         -4    1    3    3    0  501  0.12137626055E+02 -0.23213439982E+02 -0.79396966125E+03  0.79440317928E+03  0.15500000000E+01 0.  1.
<mgrwt>
<rscale>  2 0.12500091E+03</rscale>
<asrwt>0</asrwt>
<pdfrwt beam="1">  1       21 0.72174982E-03 0.12500091E+03</pdfrwt>
<pdfrwt beam="2">  1       21 0.12810113E+00 0.12500091E+03</pdfrwt>
<totfact> 0.28161540E+06</totfact>
</mgrwt>
</event>
<event>
 5    0  0.1449804E+000  0.1250065E+03  0.7546771E-02  0.1235059E+00
         21   -1    0    0  503  502  0.00000000000E+00  0.00000000000E+00  0.17269712890E+02  0.17269712890E+02  0.00000000000E+00 0. -1.
         21   -1    0    0  502  503 -0.00000000000E+00 -0.00000000000E+00 -0.22621414111E+03  0.22621414111E+03  0.00000000000E+00 0. -1.
         25    2    1    2    0    0  0.00000000000E+00  0.00000000000E+00 -0.20894442822E+03  0.24348385400E+03  0.12500645213E+03 0.  0.
          4    1    3    3  501    0 -0.21487869361E+02 -0.58646954280E+02 -0.10787774584E+03  0.12466436669E+03  0.15500000000E+01 0. -1.
         -4    1    3    3    0  501  0.21487869361E+02  0.58646954280E+02 -0.10106668238E+03  0.11881948730E+03  0.15500000000E+01 0. -1.
<mgrwt>
<rscale>  2 0.12500645E+03</rscale>
<asrwt>0</asrwt>
<pdfrwt beam="1">  1       21 0.26568791E-02 0.12500645E+03</pdfrwt>
<pdfrwt beam="2">  1       21 0.34802174E-01 0.12500645E+03</pdfrwt>
<totfact> 0.60487315E+06</totfact>
</mgrwt>
</event>
<event>
 5    0  0.1504716E+000  0.1250096E+03  0.7546771E-02  0.1235054E+00
         21   -1    0    0  503  502  0.00000000000E+00  0.00000000000E+00  0.24307479081E+02  0.24307479081E+02  0.00000000000E+00 0.  1.
         21   -1    0    0  502  503 -0.00000000000E+00 -0.00000000000E+00 -0.16072622442E+03  0.16072622442E+03  0.00000000000E+00 0.  1.
         25    2    1    2    0    0  0.00000000000E+00  0.00000000000E+00 -0.13641874534E+03  0.18503370350E+03  0.12500958904E+03 0.  0.
          4    1    3    3  501    0 -0.33719810600E+02  0.29176219744E+02 -0.34169132143E+01  0.44747683978E+02  0.15500000000E+01 0.  1.
         -4    1    3    3    0  501  0.33719810600E+02 -0.29176219744E+02 -0.13300183213E+03  0.14028601953E+03  0.15500000000E+01 0.  1.
<mgrwt>
<rscale>  2 0.12500959E+03</rscale>
<asrwt>0</asrwt>
<pdfrwt beam="1">  1       21 0.37396120E-02 0.12500959E+03</pdfrwt>
<pdfrwt beam="2">  1       21 0.24727112E-01 0.12500959E+03</pdfrwt>
<totfact> 0.66562541E+06</totfact>
</mgrwt>
</event>
<event>
 5    0  0.1277753E+000  0.1250070E+03  0.7546771E-02  0.1235058E+00
         21   -1    0    0  503  502  0.00000000000E+00  0.00000000000E+00  0.89948266570E+01  0.89948266570E+01  0.00000000000E+00 0. -1.
         21   -1    0    0  502  503 -0.00000000000E+00 -0.00000000000E+00 -0.43432623145E+03  0.43432623145E+03  0.00000000000E+00 0. -1.
         25    2    1    2    0    0  0.00000000000E+00  0.00000000000E+00 -0.42533140480E+03  0.44332105811E+03  0.12500702644E+03 0.  0.
          4    1    3    3  501    0  0.52433630280E+02 -0.48384640648E+01 -0.93368968631E+02  0.10720477192E+03  0.15500000000E+01 0.  1.
         -4    1    3    3    0  501 -0.52433630280E+02  0.48384640648E+01 -0.33196243617E+03  0.33611628619E+03  0.15500000000E+01 0.  1.
<mgrwt>
<rscale>  2 0.12500703E+03</rscale>
<asrwt>0</asrwt>
<pdfrwt beam="1">  1       21 0.13838193E-02 0.12500703E+03</pdfrwt>
<pdfrwt beam="2">  1       21 0.66819430E-01 0.12500703E+03</pdfrwt>
<totfact> 0.45286694E+06</totfact>
</mgrwt>
</event>
<event>
 5    0  0.1426548E+000  0.1249958E+03  0.7546771E-02  0.1235076E+00
         21   -1    0    0  503  502  0.00000000000E+00  0.00000000000E+00  0.11855942617E+02  0.11855942617E+02  0.00000000000E+00 0. -1.
         21   -1    0    0  502  503 -0.00000000000E+00 -0.00000000000E+00 -0.32945386220E+03  0.32945386220E+03  0.00000000000E+00 0. -1.
         25    2    1    2    0    0  0.00000000000E+00  0.00000000000E+00 -0.31759791959E+03  0.34130980482E+03  0.12499577729E+03 0.  0.
          4    1    3    3  501    0  0.43194103876E+02 -0.42764495053E+02 -0.11931874711E+03  0.13391750654E+03  0.15500000000E+01 0.  1.
         -4    1    3    3    0  501 -0.43194103876E+02  0.42764495053E+02 -0.19827917248E+03  0.20739229828E+03  0.15500000000E+01 0.  1.
<mgrwt>
<rscale>  2 0.12499578E+03</rscale>
<asrwt>0</asrwt>
<pdfrwt beam="1">  1       21 0.18239911E-02 0.12499578E+03</pdfrwt>
<pdfrwt beam="2">  1       21 0.50685212E-01 0.12499578E+03</pdfrwt>
<totfact> 0.52192223E+06</totfact>
</mgrwt>
</event>
<event>
 5    0  0.1475229E+000  0.1249971E+03  0.7546771E-02  0.1235074E+00
         21   -1    0    0  503  502  0.00000000000E+00  0.00000000000E+00  0.21892473069E+02  0.21892473069E+02  0.00000000000E+00 0. -1.
         21   -1    0    0  502  503 -0.00000000000E+00 -0.00000000000E+00 -0.17842065842E+03  0.17842065842E+03  0.00000000000E+00 0. -1.
         25    2    1    2    0    0  0.00000000000E+00  0.00000000000E+00 -0.15652818535E+03  0.20031313149E+03  0.12499711132E+03 0.  0.
          4    1    3    3  501    0  0.27419839443E+02  0.24332365992E+01 -0.16814797290E+03  0.17039340224E+03  0.15500000000E+01 0.  1.
         -4    1    3    3    0  501 -0.27419839443E+02 -0.24332365992E+01  0.11619787555E+02  0.29919729247E+02  0.15500000000E+01 0.  1.
<mgrwt>
<rscale>  2 0.12499711E+03</rscale>
<asrwt>0</asrwt>
<pdfrwt beam="1">  1       21 0.33680730E-02 0.12499711E+03</pdfrwt>
<pdfrwt beam="2">  1       21 0.27449330E-01 0.12499711E+03</pdfrwt>
<totfact> 0.64898085E+06</totfact>
</mgrwt>
</event>
<event>
 5    0  0.1554592E+000  0.1250233E+03  0.7546771E-02  0.1235033E+00
         21   -1    0    0  503  502  0.00000000000E+00  0.00000000000E+00  0.78481179313E+02  0.78481179313E+02  0.00000000000E+00 0. -1.
         21   -1    0    0  502  503 -0.00000000000E+00 -0.00000000000E+00 -0.49791647106E+02  0.49791647106E+02  0.00000000000E+00 0. -1.
         25    2    1    2    0    0  0.00000000000E+00  0.00000000000E+00  0.28689532207E+02  0.12827282642E+03  0.12502331278E+03 0.  0.
          4    1    3    3  501    0 -0.25771797615E+01  0.31493552514E+02  0.69661006519E+02  0.76508457276E+02  0.15500000000E+01 0.  1.
         -4    1    3    3    0  501  0.25771797615E+01 -0.31493552514E+02 -0.40971474312E+02  0.51764369143E+02  0.15500000000E+01 0.  1.
<mgrwt>
<rscale>  2 0.12502331E+03</rscale>
<asrwt>0</asrwt>
<pdfrwt beam="1">  1       21 0.12074028E-01 0.12502331E+03</pdfrwt>
<pdfrwt beam="2">  1       21 0.76602534E-02 0.12502331E+03</pdfrwt>
<totfact> 0.73552949E+06</totfact>
</mgrwt>
</event>
<event>
 5    0  0.1640862E+000  0.1249956E+03  0.7546771E-02  0.1235076E+00
         21   -1    0    0  503  502  0.00000000000E+00  0.00000000000E+00  0.57760501879E+02  0.57760501879E+02  0.00000000000E+00 0. -1.
         21   -1    0    0  502  503 -0.00000000000E+00 -0.00000000000E+00 -0.67623651687E+02  0.67623651687E+02  0.00000000000E+00 0. -1.
         25    2    1    2    0    0  0.00000000000E+00  0.00000000000E+00 -0.98631498073E+01  0.12538415357E+03  0.12499561689E+03 0.  0.
          4    1    3    3  501    0  0.28433035795E+02  0.42899919118E+02 -0.40463891587E+02  0.65487171318E+02  0.15500000000E+01 0.  1.
         -4    1    3    3    0  501 -0.28433035795E+02 -0.42899919118E+02  0.30600741780E+02  0.59896982248E+02  0.15500000000E+01 0.  1.
<mgrwt>
<rscale>  2 0.12499562E+03</rscale>
<asrwt>0</asrwt>
<pdfrwt beam="1">  1       21 0.88862311E-02 0.12499562E+03</pdfrwt>
<pdfrwt beam="2">  1       21 0.10403639E-01 0.12499562E+03</pdfrwt>
<totfact> 0.73999904E+06</totfact>
</mgrwt>
</event>
<event>
 5    0  0.1331880E+000  0.1249977E+03  0.7546771E-02  0.1235073E+00
         21   -1    0    0  503  502  0.00000000000E+00  0.00000000000E+00  0.52364409718E+03  0.52364409718E+03  0.00000000000E+00 0. -1.
         21   -1    0    0  502  503 -0.00000000000E+00 -0.00000000000E+00 -0.74594693269E+01  0.74594693269E+01  0.00000000000E+00 0. -1.
         25    2    1    2    0    0  0.00000000000E+00  0.00000000000E+00  0.51618462786E+03  0.53110356651E+03  0.12499771328E+03 0.  0.
          4    1    3    3  501    0  0.10113270246E+02 -0.36438789454E+02  0.46769939205E+02  0.60165549322E+02  0.15500000000E+01 0. -1.
         -4    1    3    3    0  501 -0.10113270246E+02  0.36438789454E+02  0.46941468865E+03  0.47093801719E+03  0.15500000000E+01 0. -1.
<mgrwt>
<rscale>  2 0.12499771E+03</rscale>
<asrwt>0</asrwt>
<pdfrwt beam="1">  1       21 0.80560601E-01 0.12499771E+03</pdfrwt>
<pdfrwt beam="2">  1       21 0.11476111E-02 0.12499771E+03</pdfrwt>
<totfact> 0.40408285E+06</totfact>
</mgrwt>
</event>
<event>
 5    0  0.1493199E+000  0.1249963E+03  0.7546771E-02  0.1235075E+00
         21   -1    0    0  503  502  0.00000000000E+00  0.00000000000E+00  0.28734569025E+03  0.28734569025E+03  0.00000000000E+00 0.  1.
         21   -1    0    0  502  503 -0.00000000000E+00 -0.00000000000E+00 -0.13593455702E+02  0.13593455702E+02  0.00000000000E+00 0.  1.
         25    2    1    2    0    0  0.00000000000E+00  0.00000000000E+00  0.27375223455E+03  0.30093914595E+03  0.12499633453E+03 0.  0.
          4    1    3    3  501    0 -0.29979901381E+02  0.54314287541E+02  0.15469583088E+03  0.16667944957E+03  0.15500000000E+01 0.  1.
         -4    1    3    3    0  501  0.29979901381E+02 -0.54314287541E+02  0.11905640366E+03  0.13425969638E+03  0.15500000000E+01 0.  1.
<mgrwt>
<rscale>  2 0.12499633E+03</rscale>
<asrwt>0</asrwt>
<pdfrwt beam="1">  1       21 0.44207025E-01 0.12499633E+03</pdfrwt>
<pdfrwt beam="2">  1       21 0.20913011E-02 0.12499633E+03</pdfrwt>
<totfact> 0.55383319E+06</totfact>
</mgrwt>
</event>
<event>
 5    0  0.1541203E+000  0.1250074E+03  0.7546771E-02  0.1235058E+00
         21   -1    0    0  503  502  0.00000000000E+00  0.00000000000E+00  0.56268652646E+02  0.56268652646E+02  0.00000000000E+00 0. -1.
         21   -1    0    0  502  503 -0.00000000000E+00 -0.00000000000E+00 -0.69429650448E+02  0.69429650448E+02  0.00000000000E+00 0. -1.
         25    2    1    2    0    0  0.00000000000E+00  0.00000000000E+00 -0.13160997802E+02  0.12569830309E+03  0.12500740593E+03 0.  0.
          4    1    3    3  501    0 -0.53426784593E+02 -0.31095548065E+02 -0.15738853951E+02  0.63808059406E+02  0.15500000000E+01 0. -1.
         -4    1    3    3    0  501  0.53426784593E+02  0.31095548065E+02  0.25778561488E+01  0.61890243688E+02  0.15500000000E+01 0. -1.
<mgrwt>
<rscale>  2 0.12500741E+03</rscale>
<asrwt>0</asrwt>
<pdfrwt beam="1">  1       21 0.86567158E-02 0.12500741E+03</pdfrwt>
<pdfrwt beam="2">  1       21 0.10681485E-01 0.12500741E+03</pdfrwt>
<totfact> 0.73933808E+06</totfact>
</mgrwt>
</event>
<event>
 5    0  0.1299761E+000  0.1250015E+03  0.7546771E-02  0.1235067E+00
         21   -1    0    0  503  502  0.00000000000E+00  0.00000000000E+00  0.64643042205E+01  0.64643042205E+01  0.00000000000E+00 0. -1.
         21   -1    0    0  502  503 -0.00000000000E+00 -0.00000000000E+00 -0.60429467354E+03  0.60429467354E+03  0.00000000000E+00 0. -1.
         25    2    1    2    0    0  0.00000000000E+00  0.00000000000E+00 -0.59783036932E+03  0.61075897777E+03  0.12500151373E+03 0.  0.
          4    1    3    3  501    0  0.27624909614E+01  0.62323857571E+02 -0.28195605378E+03  0.28877935062E+03  0.15500000000E+01 0. -1.
         -4    1    3    3    0  501 -0.27624909614E+01 -0.62323857571E+02 -0.31587431554E+03  0.32197962715E+03  0.15500000000E+01 0. -1.
<mgrwt>
<rscale>  2 0.12500151E+03</rscale>
<asrwt>0</asrwt>
<pdfrwt beam="1">  1       21 0.99450799E-03 0.12500151E+03</pdfrwt>
<pdfrwt beam="2">  1       21 0.92968444E-01 0.12500151E+03</pdfrwt>
<totfact> 0.36609161E+06</totfact>
</mgrwt>
</event>
<event>
 5    0  0.1642423E+000  0.1250122E+03  0.7546771E-02  0.1235050E+00
         21   -1    0    0  503  502  0.00000000000E+00  0.00000000000E+00  0.59006439047E+02  0.59006439047E+02  0.00000000000E+00 0. -1.
         21   -1    0    0  502  503 -0.00000000000E+00 -0.00000000000E+00 -0.66213281230E+02  0.66213281230E+02  0.00000000000E+00 0. -1.
         25    2    1    2    0    0  0.00000000000E+00  0.00000000000E+00 -0.72068421822E+01  0.12521972028E+03  0.12501215850E+03 0.  0.
          4    1    3    3  501    0  0.83970573330E+01  0.56133998058E+02 -0.29782444505E+02  0.64116556447E+02  0.15500000000E+01 0.  1.
         -4    1    3    3    0  501 -0.83970573330E+01 -0.56133998058E+02  0.22575602323E+02  0.61103163831E+02  0.15500000000E+01 0.  1.
<mgrwt>
<rscale>  2 0.12501216E+03</rscale>
<asrwt>0</asrwt>
<pdfrwt beam="1">  1       21 0.90779138E-02 0.12501216E+03</pdfrwt>
<pdfrwt beam="2">  1       21 0.10186659E-01 0.12501216E+03</pdfrwt>
<totfact> 0.73990908E+06</totfact>
</mgrwt>
</event>
<event>
 5    0  0.1342789E+000  0.1249326E+03  0.7546771E-02  0.1235175E+00
         21   -1    0    0  503  502  0.00000000000E+00  0.00000000000E+00  0.23208097120E+02  0.23208097120E+02  0.00000000000E+00 0. -1.
         21   -1    0    0  502  503 -0.00000000000E+00 -0.00000000000E+00 -0.16813251094E+03  0.16813251094E+03  0.00000000000E+00 0. -1.
         25    2    1    2    0    0  0.00000000000E+00  0.00000000000E+00 -0.14492441382E+03  0.19134060806E+03  0.12493255209E+03 0.  0.
          4    1    3    3  501    0  0.33018931563E+02  0.48303797577E+02 -0.10588114826E+03  0.12098234069E+03  0.15500000000E+01 0. -1.
         -4    1    3    3    0  501 -0.33018931563E+02 -0.48303797577E+02 -0.39043265565E+02  0.70358267375E+02  0.15500000000E+01 0. -1.
<mgrwt>
<rscale>  2 0.12493255E+03</rscale>
<asrwt>0</asrwt>
<pdfrwt beam="1">  1       21 0.35704766E-02 0.12493255E+03</pdfrwt>
<pdfrwt beam="2">  1       21 0.25866539E-01 0.12493255E+03</pdfrwt>
<totfact> 0.65986480E+06</totfact>
</mgrwt>
</event>
<event>
 5    0  0.1222151E+000  0.1250405E+03  0.7546771E-02  0.1235006E+00
         21   -1    0    0  503  502  0.00000000000E+00  0.00000000000E+00  0.17955502610E+04  0.17955502610E+04  0.00000000000E+00 0.  1.
         21   -1    0    0  502  503 -0.00000000000E+00 -0.00000000000E+00 -0.21769256082E+01  0.21769256082E+01  0.00000000000E+00 0.  1.
         25    2    1    2    0    0  0.00000000000E+00  0.00000000000E+00  0.17933733354E+04  0.17977271866E+04  0.12504046296E+03 0.  0.
          4    1    3    3  501    0  0.15509901731E+02 -0.30408273761E+02  0.16494182587E+04  0.16497721706E+04  0.15500000000E+01 0.  1.
         -4    1    3    3    0  501 -0.15509901731E+02  0.30408273761E+02  0.14395507672E+03  0.14795501606E+03  0.15500000000E+01 0.  1.
<mgrwt>
<rscale>  2 0.12504046E+03</rscale>
<asrwt>0</asrwt>
<pdfrwt beam="1">  1       21 0.27623732E+00 0.12504046E+03</pdfrwt>
<pdfrwt beam="2">  1       21 0.33491307E-03 0.12504046E+03</pdfrwt>
<totfact> 0.10085947E+06</totfact>
</mgrwt>
</event>
<event>
 5    0  0.1559155E+000  0.1249960E+03  0.7546771E-02  0.1235076E+00
         21   -1    0    0  503  502  0.00000000000E+00  0.00000000000E+00  0.35842479151E+02  0.35842479151E+02  0.00000000000E+00 0.  1.
         21   -1    0    0  502  503 -0.00000000000E+00 -0.00000000000E+00 -0.10897678985E+03  0.10897678985E+03  0.00000000000E+00 0.  1.
         25    2    1    2    0    0  0.00000000000E+00  0.00000000000E+00 -0.73134310699E+02  0.14481926900E+03  0.12499597303E+03 0.  0.
          4    1    3    3  501    0 -0.20605976415E+02 -0.58982920564E+02 -0.36488270259E+02  0.72369797214E+02  0.15500000000E+01 0. -1.
         -4    1    3    3    0  501  0.20605976415E+02  0.58982920564E+02 -0.36646040440E+02  0.72449471787E+02  0.15500000000E+01 0. -1.
<mgrwt>
<rscale>  2 0.12499597E+03</rscale>
<asrwt>0</asrwt>
<pdfrwt beam="1">  1       21 0.55142276E-02 0.12499597E+03</pdfrwt>
<pdfrwt beam="2">  1       21 0.16765660E-01 0.12499597E+03</pdfrwt>
<totfact> 0.71423560E+06</totfact>
</mgrwt>
</event>
<event>
 5    0  0.1542604E+000  0.1250007E+03  0.7546771E-02  0.1235068E+00
         21   -1    0    0  503  502  0.00000000000E+00  0.00000000000E+00  0.84087597679E+02  0.84087597679E+02  0.00000000000E+00 0.  1.
         21   -1    0    0  502  503 -0.00000000000E+00 -0.00000000000E+00 -0.46455069583E+02  0.46455069583E+02  0.00000000000E+00 0.  1.
         25    2    1    2    0    0  0.00000000000E+00  0.00000000000E+00  0.37632528096E+02  0.13054266726E+03  0.12500072322E+03 0.  0.
          4    1    3    3  501    0 -0.28047144135E+02  0.53803241890E+02  0.34392677076E+02  0.69761664748E+02  0.15500000000E+01 0.  1.
         -4    1    3    3    0  501  0.28047144135E+02 -0.53803241890E+02  0.32398510201E+01  0.60781002514E+02  0.15500000000E+01 0.  1.
<mgrwt>
<rscale>  2 0.12500072E+03</rscale>
<asrwt>0</asrwt>
<pdfrwt beam="1">  1       21 0.12936553E-01 0.12500072E+03</pdfrwt>
<pdfrwt beam="2">  1       21 0.71469338E-02 0.12500072E+03</pdfrwt>
<totfact> 0.73291016E+06</totfact>
</mgrwt>
</event>
<event>
 5    0  0.1282965E+000  0.1249985E+03  0.7546771E-02  0.1235072E+00
         21   -1    0    0  503  502  0.00000000000E+00  0.00000000000E+00  0.47345294571E+03  0.47345294571E+03  0.00000000000E+00 0. -1.
         21   -1    0    0  502  503 -0.00000000000E+00 -0.00000000000E+00 -0.82503644057E+01  0.82503644057E+01  0.00000000000E+00 0. -1.
         25    2    1    2    0    0  0.00000000000E+00  0.00000000000E+00  0.46520258130E+03  0.48170331011E+03  0.12499854929E+03 0.  0.
          4    1    3    3  501    0  0.15354317820E+02 -0.38121851626E+02  0.51244142420E+02  0.65706889133E+02  0.15500000000E+01 0. -1.
         -4    1    3    3    0  501 -0.15354317820E+02  0.38121851626E+02  0.41395843888E+03  0.41599642098E+03  0.15500000000E+01 0. -1.
<mgrwt>
<rscale>  2 0.12499855E+03</rscale>
<asrwt>0</asrwt>
<pdfrwt beam="1">  1       21 0.72838894E-01 0.12499855E+03</pdfrwt>
<pdfrwt beam="2">  1       21 0.12692872E-02 0.12499855E+03</pdfrwt>
<totfact> 0.43055609E+06</totfact>
</mgrwt>
</event>
<event>
 5    0  0.1534411E+000  0.1250014E+03  0.7546771E-02  0.1235067E+00
         21   -1    0    0  503  502  0.00000000000E+00  0.00000000000E+00  0.18555482026E+02  0.18555482026E+02  0.00000000000E+00 0. -1.
         21   -1    0    0  502  503 -0.00000000000E+00 -0.00000000000E+00 -0.21052210143E+03  0.21052210143E+03  0.00000000000E+00 0. -1.
         25    2    1    2    0    0  0.00000000000E+00  0.00000000000E+00 -0.19196661941E+03  0.22907758346E+03  0.12500142510E+03 0.  0.
          4    1    3    3  501    0  0.46732739694E+02  0.34008481259E+02 -0.52484215120E+02  0.78086625575E+02  0.15500000000E+01 0.  1.
         -4    1    3    3    0  501 -0.46732739694E+02 -0.34008481259E+02 -0.13948240429E+03  0.15099095788E+03  0.15500000000E+01 0.  1.
<mgrwt>
<rscale>  2 0.12500143E+03</rscale>
<asrwt>0</asrwt>
<pdfrwt beam="1">  1       21 0.28546895E-02 0.12500143E+03</pdfrwt>
<pdfrwt beam="2">  1       21 0.32388016E-01 0.12500143E+03</pdfrwt>
<totfact> 0.61903668E+06</totfact>
</mgrwt>
</event>
<event>
 5    0  0.1443397E+000  0.1250003E+03  0.7546771E-02  0.1235069E+00
         21   -1    0    0  503  502  0.00000000000E+00  0.00000000000E+00  0.32108513955E+02  0.32108513955E+02  0.00000000000E+00 0.  1.
         21   -1    0    0  502  503 -0.00000000000E+00 -0.00000000000E+00 -0.12165836270E+03  0.12165836270E+03  0.00000000000E+00 0.  1.
         25    2    1    2    0    0  0.00000000000E+00  0.00000000000E+00 -0.89549848743E+02  0.15376687665E+03  0.12500030778E+03 0.  0.
          4    1    3    3  501    0  0.36301970399E+02  0.33853519797E+01 -0.10719213004E+03  0.11323360325E+03  0.15500000000E+01 0.  1.
         -4    1    3    3    0  501 -0.36301970399E+02 -0.33853519797E+01  0.17642281300E+02  0.40533273398E+02  0.15500000000E+01 0.  1.
<mgrwt>
<rscale>  2 0.12500031E+03</rscale>
<asrwt>0</asrwt>
<pdfrwt beam="1">  1       21 0.49397714E-02 0.12500031E+03</pdfrwt>
<pdfrwt beam="2">  1       21 0.18716671E-01 0.12500031E+03</pdfrwt>
<totfact> 0.70288607E+06</totfact>
</mgrwt>
</event>
<event>
 5    0  0.1458386E+000  0.1250004E+03  0.7546771E-02  0.1235069E+00
         21   -1    0    0  503  502  0.00000000000E+00  0.00000000000E+00  0.31657927843E+03  0.31657927843E+03  0.00000000000E+00 0. -1.
         21   -1    0    0  502  503 -0.00000000000E+00 -0.00000000000E+00 -0.12339017067E+02  0.12339017067E+02  0.00000000000E+00 0. -1.
         25    2    1    2    0    0  0.00000000000E+00  0.00000000000E+00  0.30424026137E+03  0.32891829550E+03  0.12500043391E+03 0.  0.
          4    1    3    3  501    0  0.59332630109E+02 -0.18261668534E+02  0.17073116174E+03  0.18167383307E+03  0.15500000000E+01 0.  1.
         -4    1    3    3    0  501 -0.59332630109E+02  0.18261668534E+02  0.13350909963E+03  0.14724446243E+03  0.15500000000E+01 0.  1.
<mgrwt>
<rscale>  2 0.12500043E+03</rscale>
<asrwt>0</asrwt>
<pdfrwt beam="1">  1       21 0.48704498E-01 0.12500043E+03</pdfrwt>
<pdfrwt beam="2">  1       21 0.18983106E-02 0.12500043E+03</pdfrwt>
<totfact> 0.53133520E+06</totfact>
</mgrwt>
</event>
<event>
 5    0  0.1222151E+000  0.1250042E+03  0.7546771E-02  0.1235063E+00
         21   -1    0    0  503  502  0.00000000000E+00  0.00000000000E+00  0.47465929292E+01  0.47465929292E+01  0.00000000000E+00 0. -1.
         21   -1    0    0  502  503 -0.00000000000E+00 -0.00000000000E+00 -0.82301404375E+03  0.82301404375E+03  0.00000000000E+00 0. -1.
         25    2    1    2    0    0  0.00000000000E+00  0.00000000000E+00 -0.81826745083E+03  0.82776063668E+03  0.12500420218E+03 0.  0.
          4    1    3    3  501    0 -0.12744639657E+02  0.54224015597E+02 -0.22167063079E+03  0.22856714716E+03  0.15500000000E+01 0. -1.
         -4    1    3    3    0  501  0.12744639657E+02 -0.54224015597E+02 -0.59659682003E+03  0.59919348952E+03  0.15500000000E+01 0. -1.
<mgrwt>
<rscale>  2 0.12500420E+03</rscale>
<asrwt>0</asrwt>
<pdfrwt beam="1">  1       21 0.73024438E-03 0.12500420E+03</pdfrwt>
<pdfrwt beam="2">  1       21 0.12661766E+00 0.12500420E+03</pdfrwt>
<totfact> 0.28460481E+06</totfact>
</mgrwt>
</event>
<event>
 5    0  0.1222151E+000  0.1250070E+03  0.7546771E-02  0.1235058E+00
         21   -1    0    0  503  502  0.00000000000E+00  0.00000000000E+00  0.79469423293E+03  0.79469423293E+03  0.00000000000E+00 0. -1.
         21   -1    0    0  502  503 -0.00000000000E+00 -0.00000000000E+00 -0.49159650797E+01  0.49159650797E+01  0.00000000000E+00 0. -1.
         25    2    1    2    0    0  0.00000000000E+00  0.00000000000E+00  0.78977826785E+03  0.79961019801E+03  0.12500702537E+03 0.  0.
          4    1    3    3  501    0  0.17950588774E+01 -0.22383626298E+02  0.21908944178E+02  0.31411037831E+02  0.15500000000E+01 0. -1.
         -4    1    3    3    0  501 -0.17950588774E+01  0.22383626298E+02  0.76786932367E+03  0.76819916018E+03  0.15500000000E+01 0. -1.
<mgrwt>
<rscale>  2 0.12500703E+03</rscale>
<asrwt>0</asrwt>
<pdfrwt beam="1">  1       21 0.12226055E+00 0.12500703E+03</pdfrwt>
<pdfrwt beam="2">  1       21 0.75630295E-03 0.12500703E+03</pdfrwt>
<totfact> 0.29370646E+06</totfact>
</mgrwt>
</event>
<event>
 5    0  0.1533325E+000  0.1250005E+03  0.7546771E-02  0.1235069E+00
         21   -1    0    0  503  502  0.00000000000E+00  0.00000000000E+00  0.28662874612E+02  0.28662874612E+02  0.00000000000E+00 0.  1.
         21   -1    0    0  502  503 -0.00000000000E+00 -0.00000000000E+00 -0.13628359573E+03  0.13628359573E+03  0.00000000000E+00 0.  1.
         25    2    1    2    0    0  0.00000000000E+00  0.00000000000E+00 -0.10762072112E+03  0.16494647034E+03  0.12500047386E+03 0.  0.
          4    1    3    3  501    0  0.32993730320E+02  0.52958573820E+02 -0.49497913302E+02  0.79659542446E+02  0.15500000000E+01 0. -1.
         -4    1    3    3    0  501 -0.32993730320E+02 -0.52958573820E+02 -0.58122807817E+02  0.85286927897E+02  0.15500000000E+01 0. -1.
<mgrwt>
<rscale>  2 0.12500047E+03</rscale>
<asrwt>0</asrwt>
<pdfrwt beam="1">  1       21 0.44096731E-02 0.12500047E+03</pdfrwt>
<pdfrwt beam="2">  1       21 0.20966707E-01 0.12500047E+03</pdfrwt>
<totfact> 0.68919255E+06</totfact>
</mgrwt>
</event>
<event>
 5    0  0.1448178E+000  0.1250056E+03  0.7546771E-02  0.1235061E+00
         21   -1    0    0  503  502  0.00000000000E+00  0.00000000000E+00  0.25649546369E+03  0.25649546369E+03  0.00000000000E+00 0. -1.
         21   -1    0    0  502  503 -0.00000000000E+00 -0.00000000000E+00 -0.15230681123E+02  0.15230681123E+02  0.00000000000E+00 0. -1.
         25    2    1    2    0    0  0.00000000000E+00  0.00000000000E+00  0.24126478256E+03  0.27172614481E+03  0.12500560974E+03 0.  0.
          4    1    3    3  501    0 -0.60075390584E+02 -0.10476214780E+02  0.15022957116E+03  0.16214231459E+03  0.15500000000E+01 0. -1.
         -4    1    3    3    0  501  0.60075390584E+02  0.10476214780E+02  0.91035211402E+02  0.10958383022E+03  0.15500000000E+01 0. -1.
<mgrwt>
<rscale>  2 0.12500561E+03</rscale>
<asrwt>0</asrwt>
<pdfrwt beam="1">  1       21 0.39460837E-01 0.12500561E+03</pdfrwt>
<pdfrwt beam="2">  1       21 0.23431819E-02 0.12500561E+03</pdfrwt>
<totfact> 0.57882677E+06</totfact>
</mgrwt>
</event>
<event>
 5    0  0.1222151E+000  0.1249930E+03  0.7546771E-02  0.1235080E+00
         21   -1    0    0  503  502  0.00000000000E+00  0.00000000000E+00  0.83074580499E+03  0.83074580499E+03  0.00000000000E+00 0.  1.
         21   -1    0    0  502  503 -0.00000000000E+00 -0.00000000000E+00 -0.47015753568E+01  0.47015753568E+01  0.00000000000E+00 0.  1.
         25    2    1    2    0    0  0.00000000000E+00  0.00000000000E+00  0.82604422964E+03  0.83544738035E+03  0.12499302388E+03 0.  0.
          4    1    3    3  501    0 -0.53599390071E+02 -0.16422737747E+02  0.22866003595E+03  0.23543664853E+03  0.15500000000E+01 0. -1.
         -4    1    3    3    0  501  0.53599390071E+02  0.16422737747E+02  0.59738419369E+03  0.60001073182E+03  0.15500000000E+01 0. -1.
<mgrwt>
<rscale>  2 0.12499302E+03</rscale>
<asrwt>0</asrwt>
<pdfrwt beam="1">  1       21 0.12780693E+00 0.12499302E+03</pdfrwt>
<pdfrwt beam="2">  1       21 0.72331995E-03 0.12499302E+03</pdfrwt>
<totfact> 0.28226447E+06</totfact>
</mgrwt>
</event>
<event>
 5    0  0.1222151E+000  0.1250075E+03  0.7546771E-02  0.1235058E+00
         21   -1    0    0  503  502  0.00000000000E+00  0.00000000000E+00  0.17696814257E+01  0.17696814257E+01  0.00000000000E+00 0.  1.
         21   -1    0    0  502  503 -0.00000000000E+00 -0.00000000000E+00 -0.22075819089E+04  0.22075819089E+04  0.00000000000E+00 0.  1.
         25    2    1    2    0    0  0.00000000000E+00  0.00000000000E+00 -0.22058122275E+04  0.22093515903E+04  0.12500746697E+03 0.  0.
          4    1    3    3  501    0  0.37002536347E+02 -0.36616288485E+02 -0.49210610474E+03  0.49485428270E+03  0.15500000000E+01 0.  1.
         -4    1    3    3    0  501 -0.37002536347E+02  0.36616288485E+02 -0.17137061227E+04  0.17144973076E+04  0.15500000000E+01 0.  1.
<mgrwt>
<rscale>  2 0.12500747E+03</rscale>
<asrwt>0</asrwt>
<pdfrwt beam="1">  1       21 0.27225917E-03 0.12500747E+03</pdfrwt>
<pdfrwt beam="2">  1       21 0.33962738E+00 0.12500747E+03</pdfrwt>
<totfact> 0.60798972E+05</totfact>
</mgrwt>
</event>
<event>
 5    0  0.1568624E+000  0.1249950E+03  0.7546771E-02  0.1235077E+00
         21   -1    0    0  503  502  0.00000000000E+00  0.00000000000E+00  0.17747946664E+03  0.17747946664E+03  0.00000000000E+00 0. -1.
         21   -1    0    0  502  503 -0.00000000000E+00 -0.00000000000E+00 -0.22007844670E+02  0.22007844670E+02  0.00000000000E+00 0. -1.
         25    2    1    2    0    0  0.00000000000E+00  0.00000000000E+00  0.15547162197E+03  0.19948731131E+03  0.12499504844E+03 0.  0.
          4    1    3    3  501    0 -0.84379588262E-01 -0.60068464869E+02  0.10516177297E+03  0.12111824217E+03  0.15500000000E+01 0.  1.
         -4    1    3    3    0  501  0.84379588262E-01  0.60068464869E+02  0.50309848997E+02  0.78369069139E+02  0.15500000000E+01 0.  1.
<mgrwt>
<rscale>  2 0.12499505E+03</rscale>
<asrwt>0</asrwt>
<pdfrwt beam="1">  1       21 0.27304532E-01 0.12499505E+03</pdfrwt>
<pdfrwt beam="2">  1       21 0.33858224E-02 0.12499505E+03</pdfrwt>
<totfact> 0.64990995E+06</totfact>
</mgrwt>
</event>
<event>
 5    0  0.1237729E+000  0.1250005E+03  0.7546771E-02  0.1235069E+00
         21   -1    0    0  503  502  0.00000000000E+00  0.00000000000E+00  0.65080310265E+03  0.65080310265E+03  0.00000000000E+00 0. -1.
         21   -1    0    0  502  503 -0.00000000000E+00 -0.00000000000E+00 -0.60022459855E+01  0.60022459855E+01  0.00000000000E+00 0. -1.
         25    2    1    2    0    0  0.00000000000E+00  0.00000000000E+00  0.64480085667E+03  0.65680534864E+03  0.12500048496E+03 0.  0.
          4    1    3    3  501    0  0.48557699577E+02 -0.25074783602E+02  0.16326143022E+03  0.17217227436E+03  0.15500000000E+01 0. -1.
         -4    1    3    3    0  501 -0.48557699577E+02  0.25074783602E+02  0.48153942645E+03  0.48463307428E+03  0.15500000000E+01 0. -1.
<mgrwt>
<rscale>  2 0.12500048E+03</rscale>
<asrwt>0</asrwt>
<pdfrwt beam="1">  1       21 0.10012350E+00 0.12500048E+03</pdfrwt>
<pdfrwt beam="2">  1       21 0.92342297E-03 0.12500048E+03</pdfrwt>
<totfact> 0.34642246E+06</totfact>
</mgrwt>
</event>
<event>
 5    0  0.1346748E+000  0.1249965E+03  0.7546771E-02  0.1235075E+00
         21   -1    0    0  503  502  0.00000000000E+00  0.00000000000E+00  0.80826184164E+01  0.80826184164E+01  0.00000000000E+00 0. -1.
         21   -1    0    0  502  503 -0.00000000000E+00 -0.00000000000E+00 -0.48326341228E+03  0.48326341228E+03  0.00000000000E+00 0. -1.
         25    2    1    2    0    0  0.00000000000E+00  0.00000000000E+00 -0.47518079387E+03  0.49134603070E+03  0.12499654005E+03 0.  0.
          4    1    3    3  501    0  0.35357186455E+02  0.15388663865E+02 -0.44349118949E+02  0.58789356699E+02  0.15500000000E+01 0. -1.
         -4    1    3    3    0  501 -0.35357186455E+02 -0.15388663865E+02 -0.43083167492E+03  0.43255667400E+03  0.15500000000E+01 0. -1.
<mgrwt>
<rscale>  2 0.12499654E+03</rscale>
<asrwt>0</asrwt>
<pdfrwt beam="1">  1       21 0.12434787E-02 0.12499654E+03</pdfrwt>
<pdfrwt beam="2">  1       21 0.74348280E-01 0.12499654E+03</pdfrwt>
<totfact> 0.42520959E+06</totfact>
</mgrwt>
</event>
<event>
 5    0  0.1423900E+000  0.1249971E+03  0.7546771E-02  0.1235074E+00
         21   -1    0    0  503  502  0.00000000000E+00  0.00000000000E+00  0.11998940123E+02  0.11998940123E+02  0.00000000000E+00 0.  1.
         21   -1    0    0  502  503 -0.00000000000E+00 -0.00000000000E+00 -0.32553459107E+03  0.32553459107E+03  0.00000000000E+00 0.  1.
         25    2    1    2    0    0  0.00000000000E+00  0.00000000000E+00 -0.31353565095E+03  0.33753353119E+03  0.12499712103E+03 0.  0.
          4    1    3    3  501    0 -0.54169433335E+02 -0.25806579025E+02 -0.20380015122E+03  0.21245519802E+03  0.15500000000E+01 0.  1.
         -4    1    3    3    0  501  0.54169433335E+02  0.25806579025E+02 -0.10973549973E+03  0.12507833317E+03  0.15500000000E+01 0.  1.
<mgrwt>
<rscale>  2 0.12499712E+03</rscale>
<asrwt>0</asrwt>
<pdfrwt beam="1">  1       21 0.18459907E-02 0.12499712E+03</pdfrwt>
<pdfrwt beam="2">  1       21 0.50082247E-01 0.12499712E+03</pdfrwt>
<totfact> 0.52476290E+06</totfact>
</mgrwt>
</event>
<event>
 5    0  0.1503394E+000  0.1249969E+03  0.7546771E-02  0.1235074E+00
         21   -1    0    0  503  502  0.00000000000E+00  0.00000000000E+00  0.88088958077E+02  0.88088958077E+02  0.00000000000E+00 0. -1.
         21   -1    0    0  502  503 -0.00000000000E+00 -0.00000000000E+00 -0.44342167017E+02  0.44342167017E+02  0.00000000000E+00 0. -1.
         25    2    1    2    0    0  0.00000000000E+00  0.00000000000E+00  0.43746791060E+02  0.13243112509E+03  0.12499688462E+03 0.  0.
          4    1    3    3  501    0 -0.30757205677E+02  0.29599727258E+01 -0.35659978774E+02  0.47210207855E+02  0.15500000000E+01 0. -1.
         -4    1    3    3    0  501  0.30757205677E+02 -0.29599727258E+01  0.79406769834E+02  0.85220917239E+02  0.15500000000E+01 0. -1.
<mgrwt>
<rscale>  2 0.12499688E+03</rscale>
<asrwt>0</asrwt>
<pdfrwt beam="1">  1       21 0.13552147E-01 0.12499688E+03</pdfrwt>
<pdfrwt beam="2">  1       21 0.68218719E-02 0.12499688E+03</pdfrwt>
<totfact> 0.73044263E+06</totfact>
</mgrwt>
</event>
<event>
 5    0  0.1496250E+000  0.1250028E+03  0.7546771E-02  0.1235065E+00
         21   -1    0    0  503  502  0.00000000000E+00  0.00000000000E+00  0.23607164872E+02  0.23607164872E+02  0.00000000000E+00 0. -1.
         21   -1    0    0  502  503 -0.00000000000E+00 -0.00000000000E+00 -0.16547622063E+03  0.16547622063E+03  0.00000000000E+00 0. -1.
         25    2    1    2    0    0  0.00000000000E+00  0.00000000000E+00 -0.14186905576E+03  0.18908338550E+03  0.12500279073E+03 0.  0.
          4    1    3    3  501    0  0.49180176058E+01 -0.35090898517E+02 -0.14877952141E+03  0.15294870560E+03  0.15500000000E+01 0. -1.
         -4    1    3    3    0  501 -0.49180176058E+01  0.35090898517E+02  0.69104656478E+01  0.36134679898E+02  0.15500000000E+01 0. -1.
<mgrwt>
<rscale>  2 0.12500279E+03</rscale>
<asrwt>0</asrwt>
<pdfrwt beam="1">  1       21 0.36318715E-02 0.12500279E+03</pdfrwt>
<pdfrwt beam="2">  1       21 0.25457880E-01 0.12500279E+03</pdfrwt>
<totfact> 0.66119805E+06</totfact>
</mgrwt>
</event>
<event>
 5    0  0.1222151E+000  0.1250015E+03  0.7546771E-02  0.1235067E+00
         21   -1    0    0  503  502  0.00000000000E+00  0.00000000000E+00  0.10311503046E+04  0.10311503046E+04  0.00000000000E+00 0. -1.
         21   -1    0    0  502  503 -0.00000000000E+00 -0.00000000000E+00 -0.37883369746E+01  0.37883369746E+01  0.00000000000E+00 0. -1.
         25    2    1    2    0    0  0.00000000000E+00  0.00000000000E+00  0.10273619677E+04  0.10349386416E+04  0.12500151720E+03 0.  0.
          4    1    3    3  501    0  0.28549251149E+02 -0.52473229743E+02  0.66531914862E+03  0.66799735898E+03  0.15500000000E+01 0.  1.
         -4    1    3    3    0  501 -0.28549251149E+02  0.52473229743E+02  0.36204281904E+03  0.36694128263E+03  0.15500000000E+01 0.  1.
<mgrwt>
<rscale>  2 0.12500152E+03</rscale>
<asrwt>0</asrwt>
<pdfrwt beam="1">  1       21 0.15863829E+00 0.12500152E+03</pdfrwt>
<pdfrwt beam="2">  1       21 0.58282189E-03 0.12500152E+03</pdfrwt>
<totfact> 0.22758430E+06</totfact>
</mgrwt>
</event>
<event>
 5    0  0.1616912E+000  0.1250097E+03  0.7546771E-02  0.1235054E+00
         21   -1    0    0  503  502  0.00000000000E+00  0.00000000000E+00  0.68225540455E+02  0.68225540455E+02  0.00000000000E+00 0. -1.
         21   -1    0    0  502  503 -0.00000000000E+00 -0.00000000000E+00 -0.57263828465E+02  0.57263828465E+02  0.00000000000E+00 0. -1.
         25    2    1    2    0    0  0.00000000000E+00  0.00000000000E+00  0.10961711990E+02  0.12548936892E+03  0.12500968995E+03 0.  0.
          4    1    3    3  501    0  0.58582634740E+02  0.19918237758E+02 -0.32584014158E+01  0.61981295309E+02  0.15500000000E+01 0.  1.
         -4    1    3    3    0  501 -0.58582634740E+02 -0.19918237758E+02  0.14220113406E+02  0.63508073611E+02  0.15500000000E+01 0.  1.
<mgrwt>
<rscale>  2 0.12500969E+03</rscale>
<asrwt>0</asrwt>
<pdfrwt beam="1">  1       21 0.10496237E-01 0.12500969E+03</pdfrwt>
<pdfrwt beam="2">  1       21 0.88098198E-02 0.12500969E+03</pdfrwt>
<totfact> 0.73958614E+06</totfact>
</mgrwt>
</event>
<event>
 5    0  0.1222151E+000  0.1250060E+03  0.7546771E-02  0.1235060E+00
         21   -1    0    0  503  502  0.00000000000E+00  0.00000000000E+00  0.27327959868E+01  0.27327959868E+01  0.00000000000E+00 0.  1.
         21   -1    0    0  502  503 -0.00000000000E+00 -0.00000000000E+00 -0.14295333530E+04  0.14295333530E+04  0.00000000000E+00 0.  1.
         25    2    1    2    0    0  0.00000000000E+00  0.00000000000E+00 -0.14268005571E+04  0.14322661490E+04  0.12500596802E+03 0.  0.
          4    1    3    3  501    0 -0.24389748927E+02 -0.49561044639E+02 -0.37875580041E+03  0.38276561476E+03  0.15500000000E+01 0.  1.
         -4    1    3    3    0  501  0.24389748927E+02  0.49561044639E+02 -0.10480447567E+04  0.10495005343E+04  0.15500000000E+01 0.  1.
<mgrwt>
<rscale>  2 0.12500597E+03</rscale>
<asrwt>0</asrwt>
<pdfrwt beam="1">  1       21 0.42043052E-03 0.12500597E+03</pdfrwt>
<pdfrwt beam="2">  1       21 0.21992801E+00 0.12500597E+03</pdfrwt>
<totfact> 0.15025680E+06</totfact>
</mgrwt>
</event>
<event>
 5    0  0.1404829E+000  0.1249960E+03  0.7546771E-02  0.1235075E+00
         21   -1    0    0  503  502  0.00000000000E+00  0.00000000000E+00  0.42098634436E+02  0.42098634436E+02  0.00000000000E+00 0. -1.
         21   -1    0    0  502  503 -0.00000000000E+00 -0.00000000000E+00 -0.92782162135E+02  0.92782162135E+02  0.00000000000E+00 0. -1.
         25    2    1    2    0    0  0.00000000000E+00  0.00000000000E+00 -0.50683527698E+02  0.13488079657E+03  0.12499603715E+03 0.  0.
          4    1    3    3  501    0 -0.46241837833E+02 -0.37554924801E+01  0.19814742104E+02  0.50472148702E+02  0.15500000000E+01 0. -1.
         -4    1    3    3    0  501  0.46241837833E+02  0.37554924801E+01 -0.70498269802E+02  0.84408647869E+02  0.15500000000E+01 0. -1.
<mgrwt>
<rscale>  2 0.12499604E+03</rscale>
<asrwt>0</asrwt>
<pdfrwt beam="1">  1       21 0.64767131E-02 0.12499604E+03</pdfrwt>
<pdfrwt beam="2">  1       21 0.14274179E-01 0.12499604E+03</pdfrwt>
<totfact> 0.72719609E+06</totfact>
</mgrwt>
</event>
<event>
 5    0  0.1587475E+000  0.1249988E+03  0.7546771E-02  0.1235071E+00
         21   -1    0    0  503  502  0.00000000000E+00  0.00000000000E+00  0.56005893635E+02  0.56005893635E+02  0.00000000000E+00 0. -1.
         21   -1    0    0  502  503 -0.00000000000E+00 -0.00000000000E+00 -0.69745826519E+02  0.69745826519E+02  0.00000000000E+00 0. -1.
         25    2    1    2    0    0  0.00000000000E+00  0.00000000000E+00 -0.13739932884E+02  0.12575172015E+03  0.12499883746E+03 0.  0.
          4    1    3    3  501    0 -0.58156635412E+02  0.20422125435E+02 -0.17154917803E+02  0.63999618394E+02  0.15500000000E+01 0.  1.
         -4    1    3    3    0  501  0.58156635412E+02 -0.20422125435E+02  0.34149849195E+01  0.61752101760E+02  0.15500000000E+01 0.  1.
<mgrwt>
<rscale>  2 0.12499884E+03</rscale>
<asrwt>0</asrwt>
<pdfrwt beam="1">  1       21 0.86162913E-02 0.12499884E+03</pdfrwt>
<pdfrwt beam="2">  1       21 0.10730127E-01 0.12499884E+03</pdfrwt>
<totfact> 0.73942554E+06</totfact>
</mgrwt>
</event>
<event>
 5    0  0.1373556E+000  0.1250002E+03  0.7546771E-02  0.1235069E+00
         21   -1    0    0  503  502  0.00000000000E+00  0.00000000000E+00  0.28403020486E+03  0.28403020486E+03  0.00000000000E+00 0. -1.
         21   -1    0    0  502  503 -0.00000000000E+00 -0.00000000000E+00 -0.13752993164E+02  0.13752993164E+02  0.00000000000E+00 0. -1.
         25    2    1    2    0    0  0.00000000000E+00  0.00000000000E+00  0.27027721170E+03  0.29778319803E+03  0.12500024745E+03 0.  0.
          4    1    3    3  501    0 -0.48545952558E+02  0.36114200503E+01  0.41830854525E+02  0.64202607072E+02  0.15500000000E+01 0. -1.
         -4    1    3    3    0  501  0.48545952558E+02 -0.36114200503E+01  0.22844635718E+03  0.23358059096E+03  0.15500000000E+01 0. -1.
<mgrwt>
<rscale>  2 0.12500025E+03</rscale>
<asrwt>0</asrwt>
<pdfrwt beam="1">  1       21 0.43696950E-01 0.12500025E+03</pdfrwt>
<pdfrwt beam="2">  1       21 0.21158453E-02 0.12500025E+03</pdfrwt>
<totfact> 0.55640559E+06</totfact>
</mgrwt>
</event>
<event>
 5    0  0.1222151E+000  0.1249917E+03  0.7546771E-02  0.1235082E+00
         21   -1    0    0  503  502  0.00000000000E+00  0.00000000000E+00  0.45848925992E+03  0.45848925992E+03  0.00000000000E+00 0.  1.
         21   -1    0    0  502  503 -0.00000000000E+00 -0.00000000000E+00 -0.85187023881E+01  0.85187023881E+01  0.00000000000E+00 0.  1.
         25    2    1    2    0    0  0.00000000000E+00  0.00000000000E+00  0.44997055753E+03  0.46700796230E+03  0.12499173658E+03 0.  0.
          4    1    3    3  501    0  0.24111963496E+02 -0.33782085728E+02  0.50506571836E+02  0.65390613993E+02  0.15500000000E+01 0.  1.
         -4    1    3    3    0  501 -0.24111963496E+02  0.33782085728E+02  0.39946398569E+03  0.40161734831E+03  0.15500000000E+01 0.  1.
<mgrwt>
<rscale>  2 0.12499174E+03</rscale>
<asrwt>0</asrwt>
<pdfrwt beam="1">  1       21 0.70536790E-01 0.12499174E+03</pdfrwt>
<pdfrwt beam="2">  1       21 0.13105700E-02 0.12499174E+03</pdfrwt>
<totfact> 0.43900785E+06</totfact>
</mgrwt>
</event>
<event>
 5    0  0.1496417E+000  0.1250008E+03  0.7546771E-02  0.1235068E+00
         21   -1    0    0  503  502  0.00000000000E+00  0.00000000000E+00  0.10583768562E+03  0.10583768562E+03  0.00000000000E+00 0. -1.
         21   -1    0    0  502  503 -0.00000000000E+00 -0.00000000000E+00 -0.36908393986E+02  0.36908393986E+02  0.00000000000E+00 0. -1.
         25    2    1    2    0    0  0.00000000000E+00  0.00000000000E+00  0.68929291633E+02  0.14274607961E+03  0.12500078399E+03 0.  0.
          4    1    3    3  501    0  0.43156908464E+02  0.44612629276E+02  0.26302132352E+02  0.67431521601E+02  0.15500000000E+01 0. -1.
         -4    1    3    3    0  501 -0.43156908464E+02 -0.44612629276E+02  0.42627159282E+02  0.75314558005E+02  0.15500000000E+01 0. -1.
<mgrwt>
<rscale>  2 0.12500078E+03</rscale>
<asrwt>0</asrwt>
<pdfrwt beam="1">  1       21 0.16282721E-01 0.12500078E+03</pdfrwt>
<pdfrwt beam="2">  1       21 0.56782145E-02 0.12500078E+03</pdfrwt>
<totfact> 0.71681378E+06</totfact>
</mgrwt>
</event>
<event>
 5    0  0.1222151E+000  0.1249999E+03  0.7546771E-02  0.1235069E+00
         21   -1    0    0  503  502  0.00000000000E+00  0.00000000000E+00  0.88016089348E+03  0.88016089348E+03  0.00000000000E+00 0. -1.
         21   -1    0    0  502  503 -0.00000000000E+00 -0.00000000000E+00 -0.44381002407E+01  0.44381002407E+01  0.00000000000E+00 0. -1.
         25    2    1    2    0    0  0.00000000000E+00  0.00000000000E+00  0.87572279324E+03  0.88459899372E+03  0.12499987637E+03 0.  0.
          4    1    3    3  501    0  0.41115603483E+02 -0.57088249459E+01  0.10738502060E+03  0.11513917092E+03  0.15500000000E+01 0. -1.
         -4    1    3    3    0  501 -0.41115603483E+02  0.57088249459E+01  0.76833777265E+03  0.76945982280E+03  0.15500000000E+01 0. -1.
<mgrwt>
<rscale>  2 0.12499988E+03</rscale>
<asrwt>0</asrwt>
<pdfrwt beam="1">  1       21 0.13540923E+00 0.12499988E+03</pdfrwt>
<pdfrwt beam="2">  1       21 0.68278535E-03 0.12499988E+03</pdfrwt>
<totfact> 0.26743107E+06</totfact>
</mgrwt>
</event>
<event>
 5    0  0.1415939E+000  0.1249979E+03  0.7546771E-02  0.1235073E+00
         21   -1    0    0  503  502  0.00000000000E+00  0.00000000000E+00  0.93870124621E+01  0.93870124621E+01  0.00000000000E+00 0.  1.
         21   -1    0    0  502  503 -0.00000000000E+00 -0.00000000000E+00 -0.41611952019E+03  0.41611952019E+03  0.00000000000E+00 0.  1.
         25    2    1    2    0    0  0.00000000000E+00  0.00000000000E+00 -0.40673250773E+03  0.42550653266E+03  0.12499790593E+03 0.  0.
          4    1    3    3  501    0 -0.84693778303E+01 -0.61730312547E+02 -0.21909706012E+03  0.22779000439E+03  0.15500000000E+01 0.  1.
         -4    1    3    3    0  501  0.84693778303E+01  0.61730312547E+02 -0.18763544761E+03  0.19771652826E+03  0.15500000000E+01 0.  1.
<mgrwt>
<rscale>  2 0.12499791E+03</rscale>
<asrwt>0</asrwt>
<pdfrwt beam="1">  1       21 0.14441559E-02 0.12499791E+03</pdfrwt>
<pdfrwt beam="2">  1       21 0.64018382E-01 0.12499791E+03</pdfrwt>
<totfact> 0.46396729E+06</totfact>
</mgrwt>
</event>
<event>
 5    0  0.1352721E+000  0.1250045E+03  0.7546771E-02  0.1235062E+00
         21   -1    0    0  503  502  0.00000000000E+00  0.00000000000E+00  0.18993891449E+02  0.18993891449E+02  0.00000000000E+00 0. -1.
         21   -1    0    0  502  503 -0.00000000000E+00 -0.00000000000E+00 -0.20567293542E+03  0.20567293542E+03  0.00000000000E+00 0. -1.
         25    2    1    2    0    0  0.00000000000E+00  0.00000000000E+00 -0.18667904397E+03  0.22466682687E+03  0.12500447047E+03 0.  0.
          4    1    3    3  501    0  0.16604305106E+02 -0.18835822181E+02  0.94925496478E+01  0.26888699190E+02  0.15500000000E+01 0.  1.
         -4    1    3    3    0  501 -0.16604305106E+02  0.18835822181E+02 -0.19617159362E+03  0.19777812768E+03  0.15500000000E+01 0.  1.
<mgrwt>
<rscale>  2 0.12500447E+03</rscale>
<asrwt>0</asrwt>
<pdfrwt beam="1">  1       21 0.29221372E-02 0.12500447E+03</pdfrwt>
<pdfrwt beam="2">  1       21 0.31641990E-01 0.12500447E+03</pdfrwt>
<totfact> 0.62341642E+06</totfact>
</mgrwt>
</event>
<event>
 5    0  0.1434165E+000  0.1249980E+03  0.7546771E-02  0.1235072E+00
         21   -1    0    0  503  502  0.00000000000E+00  0.00000000000E+00  0.11007889638E+02  0.11007889638E+02  0.00000000000E+00 0.  1.
         21   -1    0    0  502  503 -0.00000000000E+00 -0.00000000000E+00 -0.35484748345E+03  0.35484748345E+03  0.00000000000E+00 0.  1.
         25    2    1    2    0    0  0.00000000000E+00  0.00000000000E+00 -0.34383959381E+03  0.36585537309E+03  0.12499795096E+03 0.  0.
          4    1    3    3  501    0  0.15945323484E+01 -0.57047784175E+02 -0.97486524120E+02  0.11297352388E+03  0.15500000000E+01 0. -1.
         -4    1    3    3    0  501 -0.15945323484E+01  0.57047784175E+02 -0.24635306969E+03  0.25288184921E+03  0.15500000000E+01 0. -1.
<mgrwt>
<rscale>  2 0.12499795E+03</rscale>
<asrwt>0</asrwt>
<pdfrwt beam="1">  1       21 0.16935219E-02 0.12499795E+03</pdfrwt>
<pdfrwt beam="2">  1       21 0.54591908E-01 0.12499795E+03</pdfrwt>
<totfact> 0.50390953E+06</totfact>
</mgrwt>
</event>
<event>
 5    0  0.1475487E+000  0.1250013E+03  0.7546771E-02  0.1235067E+00
         21   -1    0    0  503  502  0.00000000000E+00  0.00000000000E+00  0.35326165161E+03  0.35326165161E+03  0.00000000000E+00 0.  1.
         21   -1    0    0  502  503 -0.00000000000E+00 -0.00000000000E+00 -0.11057891476E+02  0.11057891476E+02  0.00000000000E+00 0.  1.
         25    2    1    2    0    0  0.00000000000E+00  0.00000000000E+00  0.34220376013E+03  0.36431954309E+03  0.12500126409E+03 0.  0.
          4    1    3    3  501    0 -0.21026145666E+02  0.58215709941E+02  0.19596243903E+03  0.20551118631E+03  0.15500000000E+01 0. -1.
         -4    1    3    3    0  501  0.21026145666E+02 -0.58215709941E+02  0.14624132110E+03  0.15880835678E+03  0.15500000000E+01 0. -1.
<mgrwt>
<rscale>  2 0.12500126E+03</rscale>
<asrwt>0</asrwt>
<pdfrwt beam="1">  1       21 0.54347938E-01 0.12500126E+03</pdfrwt>
<pdfrwt beam="2">  1       21 0.17012143E-02 0.12500126E+03</pdfrwt>
<totfact> 0.50496376E+06</totfact>
</mgrwt>
</event>
<event>
 5    0  0.1442171E+000  0.1249951E+03  0.7546771E-02  0.1235077E+00
         21   -1    0    0  503  502  0.00000000000E+00  0.00000000000E+00  0.17046045852E+02  0.17046045852E+02  0.00000000000E+00 0. -1.
         21   -1    0    0  502  503 -0.00000000000E+00 -0.00000000000E+00 -0.22914082829E+03  0.22914082829E+03  0.00000000000E+00 0. -1.
         25    2    1    2    0    0  0.00000000000E+00  0.00000000000E+00 -0.21209478244E+03  0.24618687414E+03  0.12499512095E+03 0.  0.
          4    1    3    3  501    0 -0.39452321589E+02 -0.31308325642E+02 -0.33230594896E+02  0.60360350151E+02  0.15500000000E+01 0.  1.
         -4    1    3    3    0  501  0.39452321589E+02  0.31308325642E+02 -0.17886418754E+03  0.18582652399E+03  0.15500000000E+01 0.  1.
<mgrwt>
<rscale>  2 0.12499512E+03</rscale>
<asrwt>0</asrwt>
<pdfrwt beam="1">  1       21 0.26224685E-02 0.12499512E+03</pdfrwt>
<pdfrwt beam="2">  1       21 0.35252436E-01 0.12499512E+03</pdfrwt>
<totfact> 0.60246469E+06</totfact>
</mgrwt>
</event>
<event>
 5    0  0.1222151E+000  0.1250040E+03  0.7546771E-02  0.1235063E+00
         21   -1    0    0  503  502  0.00000000000E+00  0.00000000000E+00  0.25310176823E+01  0.25310176823E+01  0.00000000000E+00 0.  1.
         21   -1    0    0  502  503 -0.00000000000E+00 -0.00000000000E+00 -0.15434496754E+04  0.15434496754E+04  0.00000000000E+00 0.  1.
         25    2    1    2    0    0  0.00000000000E+00  0.00000000000E+00 -0.15409186578E+04  0.15459806931E+04  0.12500397466E+03 0.  0.
          4    1    3    3  501    0 -0.65290000416E+01 -0.23990209959E+02 -0.14794000454E+04  0.14796097644E+04  0.15500000000E+01 0.  1.
         -4    1    3    3    0  501  0.65290000416E+01  0.23990209959E+02 -0.61518612314E+02  0.66370928700E+02  0.15500000000E+01 0.  1.
<mgrwt>
<rscale>  2 0.12500397E+03</rscale>
<asrwt>0</asrwt>
<pdfrwt beam="1">  1       21 0.38938741E-03 0.12500397E+03</pdfrwt>
<pdfrwt beam="2">  1       21 0.23745375E+00 0.12500397E+03</pdfrwt>
<totfact> 0.13323255E+06</totfact>
</mgrwt>
</event>
<event>
 5    0  0.1492564E+000  0.1249990E+03  0.7546771E-02  0.1235071E+00
         21   -1    0    0  503  502  0.00000000000E+00  0.00000000000E+00  0.93289330424E+02  0.93289330424E+02  0.00000000000E+00 0.  1.
         21   -1    0    0  502  503 -0.00000000000E+00 -0.00000000000E+00 -0.41871738310E+02  0.41871738310E+02  0.00000000000E+00 0.  1.
         25    2    1    2    0    0  0.00000000000E+00  0.00000000000E+00  0.51417592114E+02  0.13516106873E+03  0.12499898289E+03 0.  0.
          4    1    3    3  501    0 -0.33086848939E+02 -0.45867431911E+02  0.54423767360E+02  0.78504202668E+02  0.15500000000E+01 0. -1.
         -4    1    3    3    0  501  0.33086848939E+02  0.45867431911E+02 -0.30061752459E+01  0.56656866066E+02  0.15500000000E+01 0. -1.
<mgrwt>
<rscale>  2 0.12499898E+03</rscale>
<asrwt>0</asrwt>
<pdfrwt beam="1">  1       21 0.14352205E-01 0.12499898E+03</pdfrwt>
<pdfrwt beam="2">  1       21 0.64418059E-02 0.12499898E+03</pdfrwt>
<totfact> 0.72677038E+06</totfact>
</mgrwt>
</event>
<event>
 5    0  0.1237646E+000  0.1250073E+03  0.7546771E-02  0.1235058E+00
         21   -1    0    0  503  502  0.00000000000E+00  0.00000000000E+00  0.74604902909E+01  0.74604902909E+01  0.00000000000E+00 0. -1.
         21   -1    0    0  502  503 -0.00000000000E+00 -0.00000000000E+00 -0.52365271144E+03  0.52365271144E+03  0.00000000000E+00 0. -1.
         25    2    1    2    0    0  0.00000000000E+00  0.00000000000E+00 -0.51619222115E+03  0.53111320173E+03  0.12500729530E+03 0.  0.
          4    1    3    3  501    0 -0.26845413870E+02  0.33310865420E+02 -0.64606556315E+02  0.77502900719E+02  0.15500000000E+01 0. -1.
         -4    1    3    3    0  501  0.26845413870E+02 -0.33310865420E+02 -0.45158566483E+03  0.45361030101E+03  0.15500000000E+01 0. -1.
<mgrwt>
<rscale>  2 0.12500730E+03</rscale>
<asrwt>0</asrwt>
<pdfrwt beam="1">  1       21 0.11477675E-02 0.12500730E+03</pdfrwt>
<pdfrwt beam="2">  1       21 0.80561971E-01 0.12500730E+03</pdfrwt>
<totfact> 0.40398146E+06</totfact>
</mgrwt>
</event>
<event>
 5    0  0.1607918E+000  0.1250023E+03  0.7546771E-02  0.1235066E+00
         21   -1    0    0  503  502  0.00000000000E+00  0.00000000000E+00  0.11765786864E+03  0.11765786864E+03  0.00000000000E+00 0. -1.
         21   -1    0    0  502  503 -0.00000000000E+00 -0.00000000000E+00 -0.33201308508E+02  0.33201308508E+02  0.00000000000E+00 0. -1.
         25    2    1    2    0    0  0.00000000000E+00  0.00000000000E+00  0.84456560130E+02  0.15085917715E+03  0.12500232310E+03 0.  0.
          4    1    3    3  501    0 -0.57799749116E+02  0.19203764844E+02  0.25401595408E+02  0.66009386691E+02  0.15500000000E+01 0.  1.
         -4    1    3    3    0  501  0.57799749116E+02 -0.19203764844E+02  0.59054964722E+02  0.84849790456E+02  0.15500000000E+01 0.  1.
<mgrwt>
<rscale>  2 0.12500232E+03</rscale>
<asrwt>0</asrwt>
<pdfrwt beam="1">  1       21 0.18101210E-01 0.12500232E+03</pdfrwt>
<pdfrwt beam="2">  1       21 0.51078937E-02 0.12500232E+03</pdfrwt>
<totfact> 0.70647262E+06</totfact>
</mgrwt>
</event>
<event>
 5    0  0.1261418E+000  0.1250016E+03  0.7546771E-02  0.1235067E+00
         21   -1    0    0  503  502  0.00000000000E+00  0.00000000000E+00  0.98101882790E+01  0.98101882790E+01  0.00000000000E+00 0. -1.
         21   -1    0    0  502  503 -0.00000000000E+00 -0.00000000000E+00 -0.39819306589E+03  0.39819306589E+03  0.00000000000E+00 0. -1.
         25    2    1    2    0    0  0.00000000000E+00  0.00000000000E+00 -0.38838287762E+03  0.40800325417E+03  0.12500158315E+03 0.  0.
          4    1    3    3  501    0 -0.18222938199E+00  0.30489059601E+02 -0.16182125548E+02  0.34552563583E+02  0.15500000000E+01 0. -1.
         -4    1    3    3    0  501  0.18222938199E+00 -0.30489059601E+02 -0.37220075207E+03  0.37345069059E+03  0.15500000000E+01 0. -1.
<mgrwt>
<rscale>  2 0.12500158E+03</rscale>
<asrwt>0</asrwt>
<pdfrwt beam="1">  1       21 0.15092597E-02 0.12500158E+03</pdfrwt>
<pdfrwt beam="2">  1       21 0.61260473E-01 0.12500158E+03</pdfrwt>
<totfact> 0.47513115E+06</totfact>
</mgrwt>
</event>
<event>
 5    0  0.1507767E+000  0.1250020E+03  0.7546771E-02  0.1235066E+00
         21   -1    0    0  503  502  0.00000000000E+00  0.00000000000E+00  0.14253985770E+03  0.14253985770E+03  0.00000000000E+00 0.  1.
         21   -1    0    0  502  503 -0.00000000000E+00 -0.00000000000E+00 -0.27405470795E+02  0.27405470795E+02  0.00000000000E+00 0.  1.
         25    2    1    2    0    0  0.00000000000E+00  0.00000000000E+00  0.11513438691E+03  0.16994532850E+03  0.12500195050E+03 0.  0.
          4    1    3    3  501    0 -0.15039661149E+02 -0.59824847025E+02  0.44055945409E+02  0.75819077776E+02  0.15500000000E+01 0.  1.
         -4    1    3    3    0  501  0.15039661149E+02  0.59824847025E+02  0.71078441498E+02  0.94126250721E+02  0.15500000000E+01 0.  1.
<mgrwt>
<rscale>  2 0.12500195E+03</rscale>
<asrwt>0</asrwt>
<pdfrwt beam="1">  1       21 0.21929208E-01 0.12500195E+03</pdfrwt>
<pdfrwt beam="2">  1       21 0.42162264E-02 0.12500195E+03</pdfrwt>
<totfact> 0.68320734E+06</totfact>
</mgrwt>
</event>
<event>
 5    0  0.1585981E+000  0.1250024E+03  0.7546771E-02  0.1235066E+00
         21   -1    0    0  503  502  0.00000000000E+00  0.00000000000E+00  0.82164490805E+02  0.82164490805E+02  0.00000000000E+00 0.  1.
         21   -1    0    0  502  503 -0.00000000000E+00 -0.00000000000E+00 -0.47543619066E+02  0.47543619066E+02  0.00000000000E+00 0.  1.
         25    2    1    2    0    0  0.00000000000E+00  0.00000000000E+00  0.34620871739E+02  0.12970810987E+03  0.12500235600E+03 0.  0.
          4    1    3    3  501    0  0.28551169834E+01 -0.61341976732E+02  0.53435036016E+01  0.61659916746E+02  0.15500000000E+01 0.  1.
         -4    1    3    3    0  501 -0.28551169834E+01  0.61341976732E+02  0.29277368137E+02  0.68048193124E+02  0.15500000000E+01 0.  1.
<mgrwt>
<rscale>  2 0.12500236E+03</rscale>
<asrwt>0</asrwt>
<pdfrwt beam="1">  1       21 0.12640691E-01 0.12500236E+03</pdfrwt>
<pdfrwt beam="2">  1       21 0.73144029E-02 0.12500236E+03</pdfrwt>
<totfact> 0.73399537E+06</totfact>
</mgrwt>
</event>
<event>
 5    0  0.1222151E+000  0.1250400E+03  0.7546771E-02  0.1235007E+00
         21   -1    0    0  503  502  0.00000000000E+00  0.00000000000E+00  0.34088012831E+01  0.34088012831E+01  0.00000000000E+00 0. -1.
         21   -1    0    0  502  503 -0.00000000000E+00 -0.00000000000E+00 -0.11466647378E+04  0.11466647378E+04  0.00000000000E+00 0. -1.
         25    2    1    2    0    0  0.00000000000E+00  0.00000000000E+00 -0.11432559365E+04  0.11500735390E+04  0.12504002926E+03 0.  0.
          4    1    3    3  501    0 -0.29888490076E+02 -0.30318187321E+01 -0.10757255930E+04  0.10761461182E+04  0.15500000000E+01 0.  1.
         -4    1    3    3    0  501  0.29888490076E+02  0.30318187321E+01 -0.67530343495E+02  0.73927420869E+02  0.15500000000E+01 0.  1.
<mgrwt>
<rscale>  2 0.12504003E+03</rscale>
<asrwt>0</asrwt>
<pdfrwt beam="1">  1       21 0.52443063E-03 0.12504003E+03</pdfrwt>
<pdfrwt beam="2">  1       21 0.17641007E+00 0.12504003E+03</pdfrwt>
<totfact> 0.20147601E+06</totfact>
</mgrwt>
</event>
<event>
 5    0  0.1410445E+000  0.1250044E+03  0.7546771E-02  0.1235062E+00
         21   -1    0    0  503  502  0.00000000000E+00  0.00000000000E+00  0.13840239557E+03  0.13840239557E+03  0.00000000000E+00 0.  1.
         21   -1    0    0  502  503 -0.00000000000E+00 -0.00000000000E+00 -0.28225848798E+02  0.28225848798E+02  0.00000000000E+00 0.  1.
         25    2    1    2    0    0  0.00000000000E+00  0.00000000000E+00  0.11017654677E+03  0.16662824437E+03  0.12500440137E+03 0.  0.
          4    1    3    3  501    0  0.95008882874E+01 -0.17615465635E+02  0.13398837106E+03  0.13548379087E+03  0.15500000000E+01 0. -1.
         -4    1    3    3    0  501 -0.95008882874E+01  0.17615465635E+02 -0.23811824291E+02  0.31144453500E+02  0.15500000000E+01 0. -1.
<mgrwt>
<rscale>  2 0.12500440E+03</rscale>
<asrwt>0</asrwt>
<pdfrwt beam="1">  1       21 0.21292676E-01 0.12500440E+03</pdfrwt>
<pdfrwt beam="2">  1       21 0.43424383E-02 0.12500440E+03</pdfrwt>
<totfact> 0.68710845E+06</totfact>
</mgrwt>
</event>
<event>
 5    0  0.1572875E+000  0.1249996E+03  0.7546771E-02  0.1235070E+00
         21   -1    0    0  503  502  0.00000000000E+00  0.00000000000E+00  0.22840527865E+02  0.22840527865E+02  0.00000000000E+00 0.  1.
         21   -1    0    0  502  503 -0.00000000000E+00 -0.00000000000E+00 -0.17102172700E+03  0.17102172700E+03  0.00000000000E+00 0.  1.
         25    2    1    2    0    0  0.00000000000E+00  0.00000000000E+00 -0.14818119913E+03  0.19386225486E+03  0.12499962434E+03 0.  0.
          4    1    3    3  501    0  0.55116305447E+02 -0.19595209843E+02 -0.40039731819E+02  0.70903892693E+02  0.15500000000E+01 0. -1.
         -4    1    3    3    0  501 -0.55116305447E+02  0.19595209843E+02 -0.10814146731E+03  0.12295836217E+03  0.15500000000E+01 0. -1.
<mgrwt>
<rscale>  2 0.12499962E+03</rscale>
<asrwt>0</asrwt>
<pdfrwt beam="1">  1       21 0.35139275E-02 0.12499962E+03</pdfrwt>
<pdfrwt beam="2">  1       21 0.26311034E-01 0.12499962E+03</pdfrwt>
<totfact> 0.65596385E+06</totfact>
</mgrwt>
</event>
<event>
 5    0  0.1592574E+000  0.1250116E+03  0.7546771E-02  0.1235051E+00
         21   -1    0    0  503  502  0.00000000000E+00  0.00000000000E+00  0.74913616536E+02  0.74913616536E+02  0.00000000000E+00 0. -1.
         21   -1    0    0  502  503 -0.00000000000E+00 -0.00000000000E+00 -0.52153075051E+02  0.52153075051E+02  0.00000000000E+00 0. -1.
         25    2    1    2    0    0  0.00000000000E+00  0.00000000000E+00  0.22760541485E+02  0.12706669159E+03  0.12501160691E+03 0.  0.
          4    1    3    3  501    0  0.45190039446E+01 -0.58111272459E+02 -0.11511770940E+02  0.59432859208E+02  0.15500000000E+01 0.  1.
         -4    1    3    3    0  501 -0.45190039446E+01  0.58111272459E+02  0.34272312426E+02  0.67633832380E+02  0.15500000000E+01 0.  1.
<mgrwt>
<rscale>  2 0.12501161E+03</rscale>
<asrwt>0</asrwt>
<pdfrwt beam="1">  1       21 0.11525172E-01 0.12501161E+03</pdfrwt>
<pdfrwt beam="2">  1       21 0.80235500E-02 0.12501161E+03</pdfrwt>
<totfact> 0.73738211E+06</totfact>
</mgrwt>
</event>
<event>
 5    0  0.1558267E+000  0.1250151E+03  0.7546771E-02  0.1235046E+00
         21   -1    0    0  503  502  0.00000000000E+00  0.00000000000E+00  0.24923486804E+02  0.24923486804E+02  0.00000000000E+00 0. -1.
         21   -1    0    0  502  503 -0.00000000000E+00 -0.00000000000E+00 -0.15676763586E+03  0.15676763586E+03  0.00000000000E+00 0. -1.
         25    2    1    2    0    0  0.00000000000E+00  0.00000000000E+00 -0.13184414906E+03  0.18169112267E+03  0.12501513674E+03 0.  0.
          4    1    3    3  501    0  0.45961002146E+02  0.38376769794E+02 -0.91904328348E+02  0.10969958180E+03  0.15500000000E+01 0. -1.
         -4    1    3    3    0  501 -0.45961002146E+02 -0.38376769794E+02 -0.39939820712E+02  0.71991540868E+02  0.15500000000E+01 0. -1.
<mgrwt>
<rscale>  2 0.12501514E+03</rscale>
<asrwt>0</asrwt>
<pdfrwt beam="1">  1       21 0.38343826E-02 0.12501514E+03</pdfrwt>
<pdfrwt beam="2">  1       21 0.24118098E-01 0.12501514E+03</pdfrwt>
<totfact> 0.66932367E+06</totfact>
</mgrwt>
</event>
<event>
 5    0  0.1594722E+000  0.1249961E+03  0.7546771E-02  0.1235075E+00
         21   -1    0    0  503  502  0.00000000000E+00  0.00000000000E+00  0.73309426880E+02  0.73309426880E+02  0.00000000000E+00 0. -1.
         21   -1    0    0  502  503 -0.00000000000E+00 -0.00000000000E+00 -0.53281071544E+02  0.53281071544E+02  0.00000000000E+00 0. -1.
         25    2    1    2    0    0  0.00000000000E+00  0.00000000000E+00  0.20028355335E+02  0.12659049842E+03  0.12499607703E+03 0.  0.
          4    1    3    3  501    0 -0.22416026883E+02 -0.58127787280E+02  0.52333264326E+01  0.62538852891E+02  0.15500000000E+01 0.  1.
         -4    1    3    3    0  501  0.22416026883E+02  0.58127787280E+02  0.14795028903E+02  0.64051645534E+02  0.15500000000E+01 0.  1.
<mgrwt>
<rscale>  2 0.12499608E+03</rscale>
<asrwt>0</asrwt>
<pdfrwt beam="1">  1       21 0.11278373E-01 0.12499608E+03</pdfrwt>
<pdfrwt beam="2">  1       21 0.81970879E-02 0.12499608E+03</pdfrwt>
<totfact> 0.73832387E+06</totfact>
</mgrwt>
</event>
<event>
 5    0  0.1339020E+000  0.1249921E+03  0.7546771E-02  0.1235082E+00
         21   -1    0    0  503  502  0.00000000000E+00  0.00000000000E+00  0.10342713350E+02  0.10342713350E+02  0.00000000000E+00 0. -1.
         21   -1    0    0  502  503 -0.00000000000E+00 -0.00000000000E+00 -0.37763364975E+03  0.37763364975E+03  0.00000000000E+00 0. -1.
         25    2    1    2    0    0  0.00000000000E+00  0.00000000000E+00 -0.36729093640E+03  0.38797636310E+03  0.12499210520E+03 0.  0.
          4    1    3    3  501    0  0.43156927975E+02 -0.45122412622E+02 -0.17684384062E+03  0.18754919093E+03  0.15500000000E+01 0.  1.
         -4    1    3    3    0  501 -0.43156927975E+02  0.45122412622E+02 -0.19044709578E+03  0.20042717217E+03  0.15500000000E+01 0.  1.
<mgrwt>
<rscale>  2 0.12499211E+03</rscale>
<asrwt>0</asrwt>
<pdfrwt beam="1">  1       21 0.15911867E-02 0.12499211E+03</pdfrwt>
<pdfrwt beam="2">  1       21 0.58097483E-01 0.12499211E+03</pdfrwt>
<totfact> 0.48858871E+06</totfact>
</mgrwt>
</event>
<event>
 5    0  0.1536390E+000  0.1250276E+03  0.7546771E-02  0.1235026E+00
         21   -1    0    0  503  502  0.00000000000E+00  0.00000000000E+00  0.92847199194E+02  0.92847199194E+02  0.00000000000E+00 0.  1.
         21   -1    0    0  502  503 -0.00000000000E+00 -0.00000000000E+00 -0.42090377423E+02  0.42090377423E+02  0.00000000000E+00 0.  1.
         25    2    1    2    0    0  0.00000000000E+00  0.00000000000E+00  0.50756821772E+02  0.13493757662E+03  0.12502757547E+03 0.  0.
          4    1    3    3  501    0 -0.57008190036E+02  0.25226355423E+02  0.20640901085E+02  0.65686772160E+02  0.15500000000E+01 0.  1.
         -4    1    3    3    0  501  0.57008190036E+02 -0.25226355423E+02  0.30115920686E+02  0.69250804457E+02  0.15500000000E+01 0.  1.
<mgrwt>
<rscale>  2 0.12502758E+03</rscale>
<asrwt>0</asrwt>
<pdfrwt beam="1">  1       21 0.14284184E-01 0.12502758E+03</pdfrwt>
<pdfrwt beam="2">  1       21 0.64754427E-02 0.12502758E+03</pdfrwt>
<totfact> 0.72653625E+06</totfact>
</mgrwt>
</event>
<event>
 5    0  0.1222151E+000  0.1249988E+03  0.7546771E-02  0.1235071E+00
         21   -1    0    0  503  502  0.00000000000E+00  0.00000000000E+00  0.12153921532E+04  0.12153921532E+04  0.00000000000E+00 0.  1.
         21   -1    0    0  502  503 -0.00000000000E+00 -0.00000000000E+00 -0.32139230356E+01  0.32139230356E+01  0.00000000000E+00 0.  1.
         25    2    1    2    0    0  0.00000000000E+00  0.00000000000E+00  0.12121782302E+04  0.12186060762E+04  0.12499882941E+03 0.  0.
          4    1    3    3  501    0  0.46702007457E+02 -0.23428004913E+02  0.94009886876E+03  0.94155097284E+03  0.15500000000E+01 0.  1.
         -4    1    3    3    0  501 -0.46702007457E+02  0.23428004913E+02  0.27207936142E+03  0.27705510341E+03  0.15500000000E+01 0.  1.
<mgrwt>
<rscale>  2 0.12499883E+03</rscale>
<asrwt>0</asrwt>
<pdfrwt beam="1">  1       21 0.18698304E+00 0.12499883E+03</pdfrwt>
<pdfrwt beam="2">  1       21 0.49445067E-03 0.12499883E+03</pdfrwt>
<totfact> 0.18777082E+06</totfact>
</mgrwt>
</event>
<event>
 5    0  0.1508626E+000  0.1249947E+03  0.7546771E-02  0.1235078E+00
         21   -1    0    0  503  502  0.00000000000E+00  0.00000000000E+00  0.12725851746E+03  0.12725851746E+03  0.00000000000E+00 0. -1.
         21   -1    0    0  502  503 -0.00000000000E+00 -0.00000000000E+00 -0.30692807288E+02  0.30692807288E+02  0.00000000000E+00 0. -1.
         25    2    1    2    0    0  0.00000000000E+00  0.00000000000E+00  0.96565710167E+02  0.15795132474E+03  0.12499473832E+03 0.  0.
          4    1    3    3  501    0  0.56845523860E+02  0.71697146250E+01  0.79765593806E+02  0.98223066771E+02  0.15500000000E+01 0. -1.
         -4    1    3    3    0  501 -0.56845523860E+02 -0.71697146250E+01  0.16800116361E+02  0.59728257972E+02  0.15500000000E+01 0. -1.
<mgrwt>
<rscale>  2 0.12499474E+03</rscale>
<asrwt>0</asrwt>
<pdfrwt beam="1">  1       21 0.19578233E-01 0.12499474E+03</pdfrwt>
<pdfrwt beam="2">  1       21 0.47219704E-02 0.12499474E+03</pdfrwt>
<totfact> 0.69780028E+06</totfact>
</mgrwt>
</event>
<event>
 5    0  0.1533134E+000  0.1250268E+03  0.7546771E-02  0.1235027E+00
         21   -1    0    0  503  502  0.00000000000E+00  0.00000000000E+00  0.21543240366E+03  0.21543240366E+03  0.00000000000E+00 0. -1.
         21   -1    0    0  502  503 -0.00000000000E+00 -0.00000000000E+00 -0.18139923714E+02  0.18139923714E+02  0.00000000000E+00 0. -1.
         25    2    1    2    0    0  0.00000000000E+00  0.00000000000E+00  0.19729247994E+03  0.23357232737E+03  0.12502683501E+03 0.  0.
          4    1    3    3  501    0  0.27401199714E+02 -0.55188548139E+02  0.11814372067E+03  0.13325517936E+03  0.15500000000E+01 0.  1.
         -4    1    3    3    0  501 -0.27401199714E+02  0.55188548139E+02  0.79148759270E+02  0.10031714801E+03  0.15500000000E+01 0.  1.
<mgrwt>
<rscale>  2 0.12502684E+03</rscale>
<asrwt>0</asrwt>
<pdfrwt beam="1">  1       21 0.33143445E-01 0.12502684E+03</pdfrwt>
<pdfrwt beam="2">  1       21 0.27907576E-02 0.12502684E+03</pdfrwt>
<totfact> 0.61418652E+06</totfact>
</mgrwt>
</event>
<event>
 5    0  0.1382607E+000  0.1250034E+03  0.7546771E-02  0.1235064E+00
         21   -1    0    0  503  502  0.00000000000E+00  0.00000000000E+00  0.11099928985E+02  0.11099928985E+02  0.00000000000E+00 0. -1.
         21   -1    0    0  502  503 -0.00000000000E+00 -0.00000000000E+00 -0.35193601839E+03  0.35193601839E+03  0.00000000000E+00 0. -1.
         25    2    1    2    0    0  0.00000000000E+00  0.00000000000E+00 -0.34083608940E+03  0.36303594737E+03  0.12500343693E+03 0.  0.
          4    1    3    3  501    0 -0.54800641711E+02 -0.18744539197E+02 -0.10233346534E+03  0.11759680569E+03  0.15500000000E+01 0.  1.
         -4    1    3    3    0  501  0.54800641711E+02  0.18744539197E+02 -0.23850262406E+03  0.24543914168E+03  0.15500000000E+01 0.  1.
<mgrwt>
<rscale>  2 0.12500344E+03</rscale>
<asrwt>0</asrwt>
<pdfrwt beam="1">  1       21 0.17076816E-02 0.12500344E+03</pdfrwt>
<pdfrwt beam="2">  1       21 0.54143995E-01 0.12500344E+03</pdfrwt>
<totfact> 0.50585517E+06</totfact>
</mgrwt>
</event>
<event>
 5    0  0.1542598E+000  0.1249988E+03  0.7546771E-02  0.1235071E+00
         21   -1    0    0  503  502  0.00000000000E+00  0.00000000000E+00  0.27927962679E+02  0.27927962679E+02  0.00000000000E+00 0.  1.
         21   -1    0    0  502  503 -0.00000000000E+00 -0.00000000000E+00 -0.13986619669E+03  0.13986619669E+03  0.00000000000E+00 0.  1.
         25    2    1    2    0    0  0.00000000000E+00  0.00000000000E+00 -0.11193823401E+03  0.16779415936E+03  0.12499884673E+03 0.  0.
          4    1    3    3  501    0  0.20965860363E+02  0.57434260545E+02 -0.73238943946E+02  0.95418064303E+02  0.15500000000E+01 0. -1.
         -4    1    3    3    0  501 -0.20965860363E+02 -0.57434260545E+02 -0.38699290060E+02  0.72376095061E+02  0.15500000000E+01 0. -1.
<mgrwt>
<rscale>  2 0.12499885E+03</rscale>
<asrwt>0</asrwt>
<pdfrwt beam="1">  1       21 0.42966096E-02 0.12499885E+03</pdfrwt>
<pdfrwt beam="2">  1       21 0.21517877E-01 0.12499885E+03</pdfrwt>
<totfact> 0.68581461E+06</totfact>
</mgrwt>
</event>
<event>
 5    0  0.1222151E+000  0.1250041E+03  0.7546771E-02  0.1235063E+00
         21   -1    0    0  503  502  0.00000000000E+00  0.00000000000E+00  0.36315357812E+01  0.36315357812E+01  0.00000000000E+00 0.  1.
         21   -1    0    0  502  503 -0.00000000000E+00 -0.00000000000E+00 -0.10757166844E+04  0.10757166844E+04  0.00000000000E+00 0.  1.
         25    2    1    2    0    0  0.00000000000E+00  0.00000000000E+00 -0.10720851486E+04  0.10793482202E+04  0.12500405801E+03 0.  0.
          4    1    3    3  501    0 -0.39571535256E+02  0.32612951660E+02 -0.84430652523E+03  0.84586371365E+03  0.15500000000E+01 0. -1.
         -4    1    3    3    0  501  0.39571535256E+02 -0.32612951660E+02 -0.22777862337E+03  0.23348450652E+03  0.15500000000E+01 0. -1.
<mgrwt>
<rscale>  2 0.12500406E+03</rscale>
<asrwt>0</asrwt>
<pdfrwt beam="1">  1       21 0.55869723E-03 0.12500406E+03</pdfrwt>
<pdfrwt beam="2">  1       21 0.16549505E+00 0.12500406E+03</pdfrwt>
<totfact> 0.21714435E+06</totfact>
</mgrwt>
</event>
<event>
 5    0  0.1630444E+000  0.1249990E+03  0.7546771E-02  0.1235071E+00
         21   -1    0    0  503  502  0.00000000000E+00  0.00000000000E+00  0.66987044244E+02  0.66987044244E+02  0.00000000000E+00 0. -1.
         21   -1    0    0  502  503 -0.00000000000E+00 -0.00000000000E+00 -0.58312602233E+02  0.58312602233E+02  0.00000000000E+00 0. -1.
         25    2    1    2    0    0  0.00000000000E+00  0.00000000000E+00  0.86744420115E+01  0.12529964648E+03  0.12499902185E+03 0.  0.
          4    1    3    3  501    0  0.51772047549E+02  0.33757006518E+02  0.13519271159E+02  0.63285492722E+02  0.15500000000E+01 0.  1.
         -4    1    3    3    0  501 -0.51772047549E+02 -0.33757006518E+02 -0.48448291476E+01  0.62014153755E+02  0.15500000000E+01 0.  1.
<mgrwt>
<rscale>  2 0.12499902E+03</rscale>
<asrwt>0</asrwt>
<pdfrwt beam="1">  1       21 0.10305699E-01 0.12499902E+03</pdfrwt>
<pdfrwt beam="2">  1       21 0.89711695E-02 0.12499902E+03</pdfrwt>
<totfact> 0.74004970E+06</totfact>
</mgrwt>
</event>
<event>
 5    0  0.1222151E+000  0.1249704E+03  0.7546771E-02  0.1235115E+00
         21   -1    0    0  503  502  0.00000000000E+00  0.00000000000E+00  0.23521698516E+03  0.23521698516E+03  0.00000000000E+00 0. -1.
         21   -1    0    0  502  503 -0.00000000000E+00 -0.00000000000E+00 -0.16599155356E+02  0.16599155356E+02  0.00000000000E+00 0. -1.
         25    2    1    2    0    0  0.00000000000E+00  0.00000000000E+00  0.21861782981E+03  0.25181614052E+03  0.12497044897E+03 0.  0.
          4    1    3    3  501    0  0.16856981389E+02  0.12589725868E+02 -0.92059888310E+01  0.23017639960E+02  0.15500000000E+01 0.  1.
         -4    1    3    3    0  501 -0.16856981389E+02 -0.12589725868E+02  0.22782381864E+03  0.22879850056E+03  0.15500000000E+01 0.  1.
<mgrwt>
<rscale>  2 0.12497045E+03</rscale>
<asrwt>0</asrwt>
<pdfrwt beam="1">  1       21 0.36187226E-01 0.12497045E+03</pdfrwt>
<pdfrwt beam="2">  1       21 0.25537164E-02 0.12497045E+03</pdfrwt>
<totfact> 0.59752116E+06</totfact>
</mgrwt>
</event>
<event>
 5    0  0.1561759E+000  0.1249944E+03  0.7546771E-02  0.1235078E+00
         21   -1    0    0  503  502  0.00000000000E+00  0.00000000000E+00  0.13874118105E+03  0.13874118105E+03  0.00000000000E+00 0. -1.
         21   -1    0    0  502  503 -0.00000000000E+00 -0.00000000000E+00 -0.28152401596E+02  0.28152401596E+02  0.00000000000E+00 0. -1.
         25    2    1    2    0    0  0.00000000000E+00  0.00000000000E+00  0.11058877945E+03  0.16689358264E+03  0.12499435902E+03 0.  0.
          4    1    3    3  501    0 -0.16151474359E+02 -0.53886312303E+02  0.19000027608E+02  0.59397039713E+02  0.15500000000E+01 0.  1.
         -4    1    3    3    0  501  0.16151474359E+02  0.53886312303E+02  0.91588751843E+02  0.10749654293E+03  0.15500000000E+01 0.  1.
<mgrwt>
<rscale>  2 0.12499436E+03</rscale>
<asrwt>0</asrwt>
<pdfrwt beam="1">  1       21 0.21344797E-01 0.12499436E+03</pdfrwt>
<pdfrwt beam="2">  1       21 0.43311388E-02 0.12499436E+03</pdfrwt>
<totfact> 0.68696676E+06</totfact>
</mgrwt>
</event>
<event>
 5    0  0.1619693E+000  0.1250267E+03  0.7546771E-02  0.1235028E+00
         21   -1    0    0  503  502  0.00000000000E+00  0.00000000000E+00  0.11260113610E+03  0.11260113610E+03  0.00000000000E+00 0. -1.
         21   -1    0    0  502  503 -0.00000000000E+00 -0.00000000000E+00 -0.34705855316E+02  0.34705855316E+02  0.00000000000E+00 0. -1.
         25    2    1    2    0    0  0.00000000000E+00  0.00000000000E+00  0.77895280785E+02  0.14730699142E+03  0.12502669696E+03 0.  0.
          4    1    3    3  501    0  0.86305895300E+01  0.61562950096E+02  0.46494803444E+02  0.77644401906E+02  0.15500000000E+01 0.  1.
         -4    1    3    3    0  501 -0.86305895300E+01 -0.61562950096E+02  0.31400477341E+02  0.69662589511E+02  0.15500000000E+01 0.  1.
<mgrwt>
<rscale>  2 0.12502670E+03</rscale>
<asrwt>0</asrwt>
<pdfrwt beam="1">  1       21 0.17323252E-01 0.12502670E+03</pdfrwt>
<pdfrwt beam="2">  1       21 0.53393624E-02 0.12502670E+03</pdfrwt>
<totfact> 0.71050845E+06</totfact>
</mgrwt>
</event>
<event>
 5    0  0.1563359E+000  0.1249984E+03  0.7546771E-02  0.1235072E+00
         21   -1    0    0  503  502  0.00000000000E+00  0.00000000000E+00  0.14750591946E+02  0.14750591946E+02  0.00000000000E+00 0. -1.
         21   -1    0    0  502  503 -0.00000000000E+00 -0.00000000000E+00 -0.26481314682E+03  0.26481314682E+03  0.00000000000E+00 0. -1.
         25    2    1    2    0    0  0.00000000000E+00  0.00000000000E+00 -0.25006255488E+03  0.27956373877E+03  0.12499841072E+03 0.  0.
          4    1    3    3  501    0 -0.79454131193E+01 -0.60661099393E+02 -0.15339650966E+03  0.16515383812E+03  0.15500000000E+01 0.  1.
         -4    1    3    3    0  501  0.79454131193E+01  0.60661099393E+02 -0.96666045218E+02  0.11440990065E+03  0.15500000000E+01 0.  1.
<mgrwt>
<rscale>  2 0.12499841E+03</rscale>
<asrwt>0</asrwt>
<pdfrwt beam="1">  1       21 0.22693220E-02 0.12499841E+03</pdfrwt>
<pdfrwt beam="2">  1       21 0.40740482E-01 0.12499841E+03</pdfrwt>
<totfact> 0.57200739E+06</totfact>
</mgrwt>
</event>
<event>
 5    0  0.1563102E+000  0.1250008E+03  0.7546771E-02  0.1235068E+00
         21   -1    0    0  503  502  0.00000000000E+00  0.00000000000E+00  0.32451939157E+02  0.32451939157E+02  0.00000000000E+00 0. -1.
         21   -1    0    0  502  503 -0.00000000000E+00 -0.00000000000E+00 -0.12037194161E+03  0.12037194161E+03  0.00000000000E+00 0. -1.
         25    2    1    2    0    0  0.00000000000E+00  0.00000000000E+00 -0.87920002452E+02  0.15282388077E+03  0.12500084680E+03 0.  0.
          4    1    3    3  501    0  0.30078920064E+02 -0.52057360609E+02 -0.23169256111E+02  0.64450967056E+02  0.15500000000E+01 0. -1.
         -4    1    3    3    0  501 -0.30078920064E+02  0.52057360609E+02 -0.64750746341E+02  0.88372913709E+02  0.15500000000E+01 0. -1.
<mgrwt>
<rscale>  2 0.12500085E+03</rscale>
<asrwt>0</asrwt>
<pdfrwt beam="1">  1       21 0.49926060E-02 0.12500085E+03</pdfrwt>
<pdfrwt beam="2">  1       21 0.18518760E-01 0.12500085E+03</pdfrwt>
<totfact> 0.70404729E+06</totfact>
</mgrwt>
</event>
<event>
 5    0  0.1439416E+000  0.1249993E+03  0.7546771E-02  0.1235070E+00
         21   -1    0    0  503  502  0.00000000000E+00  0.00000000000E+00  0.14119511957E+03  0.14119511957E+03  0.00000000000E+00 0.  1.
         21   -1    0    0  502  503 -0.00000000000E+00 -0.00000000000E+00 -0.27665315291E+02  0.27665315291E+02  0.00000000000E+00 0.  1.
         25    2    1    2    0    0  0.00000000000E+00  0.00000000000E+00  0.11352980428E+03  0.16886043486E+03  0.12499932001E+03 0.  0.
          4    1    3    3  501    0  0.34290436562E+02 -0.37587001987E+02  0.10575566609E+03  0.11736813949E+03  0.15500000000E+01 0.  1.
         -4    1    3    3    0  501 -0.34290436562E+02  0.37587001987E+02  0.77741381920E+01  0.51492295371E+02  0.15500000000E+01 0.  1.
<mgrwt>
<rscale>  2 0.12499932E+03</rscale>
<asrwt>0</asrwt>
<pdfrwt beam="1">  1       21 0.21722326E-01 0.12499932E+03</pdfrwt>
<pdfrwt beam="2">  1       21 0.42562024E-02 0.12499932E+03</pdfrwt>
<totfact> 0.68453909E+06</totfact>
</mgrwt>
</event>
<event>
 5    0  0.1580879E+000  0.1250009E+03  0.7546771E-02  0.1235068E+00
         21   -1    0    0  503  502  0.00000000000E+00  0.00000000000E+00  0.37757283864E+02  0.37757283864E+02  0.00000000000E+00 0. -1.
         21   -1    0    0  502  503 -0.00000000000E+00 -0.00000000000E+00 -0.10345830784E+03  0.10345830784E+03  0.00000000000E+00 0. -1.
         25    2    1    2    0    0  0.00000000000E+00  0.00000000000E+00 -0.65701023980E+02  0.14121559171E+03  0.12500087516E+03 0.  0.
          4    1    3    3  501    0 -0.60423162329E+02 -0.15009489458E+02 -0.26909138223E+02  0.67843551938E+02  0.15500000000E+01 0. -1.
         -4    1    3    3    0  501  0.60423162329E+02  0.15009489458E+02 -0.38791885756E+02  0.73372039771E+02  0.15500000000E+01 0. -1.
<mgrwt>
<rscale>  2 0.12500088E+03</rscale>
<asrwt>0</asrwt>
<pdfrwt beam="1">  1       21 0.58088130E-02 0.12500088E+03</pdfrwt>
<pdfrwt beam="2">  1       21 0.15916662E-01 0.12500088E+03</pdfrwt>
<totfact> 0.71879408E+06</totfact>
</mgrwt>
</event>
<event>
 5    0  0.1222151E+000  0.1250075E+03  0.7546771E-02  0.1235057E+00
         21   -1    0    0  503  502  0.00000000000E+00  0.00000000000E+00  0.11601118477E+04  0.11601118477E+04  0.00000000000E+00 0. -1.
         21   -1    0    0  502  503 -0.00000000000E+00 -0.00000000000E+00 -0.33675384180E+01  0.33675384180E+01  0.00000000000E+00 0. -1.
         25    2    1    2    0    0  0.00000000000E+00  0.00000000000E+00  0.11567443093E+04  0.11634793861E+04  0.12500753923E+03 0.  0.
          4    1    3    3  501    0 -0.25315350059E+02  0.57047479204E+02  0.55039317694E+03  0.55392267831E+03  0.15500000000E+01 0.  1.
         -4    1    3    3    0  501  0.25315350059E+02 -0.57047479204E+02  0.60635113232E+03  0.60955670777E+03  0.15500000000E+01 0.  1.
<mgrwt>
<rscale>  2 0.12500754E+03</rscale>
<asrwt>0</asrwt>
<pdfrwt beam="1">  1       21 0.17847843E+00 0.12500754E+03</pdfrwt>
<pdfrwt beam="2">  1       21 0.51808376E-03 0.12500754E+03</pdfrwt>
<totfact> 0.19883054E+06</totfact>
</mgrwt>
</event>
<event>
 5    0  0.1535913E+000  0.1249986E+03  0.7546771E-02  0.1235071E+00
         21   -1    0    0  503  502  0.00000000000E+00  0.00000000000E+00  0.21792541272E+02  0.21792541272E+02  0.00000000000E+00 0. -1.
         21   -1    0    0  502  503 -0.00000000000E+00 -0.00000000000E+00 -0.17924317354E+03  0.17924317354E+03  0.00000000000E+00 0. -1.
         25    2    1    2    0    0  0.00000000000E+00  0.00000000000E+00 -0.15745063227E+03  0.20103571482E+03  0.12499862811E+03 0.  0.
          4    1    3    3  501    0 -0.43820532773E+02 -0.43240515286E+02 -0.61569874785E+02  0.87081761786E+02  0.15500000000E+01 0. -1.
         -4    1    3    3    0  501  0.43820532773E+02  0.43240515286E+02 -0.95880757488E+02  0.11395395303E+03  0.15500000000E+01 0. -1.
<mgrwt>
<rscale>  2 0.12499863E+03</rscale>
<asrwt>0</asrwt>
<pdfrwt beam="1">  1       21 0.33526987E-02 0.12499863E+03</pdfrwt>
<pdfrwt beam="2">  1       21 0.27575873E-01 0.12499863E+03</pdfrwt>
<totfact> 0.64817449E+06</totfact>
</mgrwt>
</event>
<event>
 5    0  0.1538393E+000  0.1250227E+03  0.7546771E-02  0.1235034E+00
         21   -1    0    0  503  502  0.00000000000E+00  0.00000000000E+00  0.16023418880E+03  0.16023418880E+03  0.00000000000E+00 0. -1.
         21   -1    0    0  502  503 -0.00000000000E+00 -0.00000000000E+00 -0.24387245521E+02  0.24387245521E+02  0.00000000000E+00 0. -1.
         25    2    1    2    0    0  0.00000000000E+00  0.00000000000E+00  0.13584694328E+03  0.18462143432E+03  0.12502272598E+03 0.  0.
          4    1    3    3  501    0 -0.60266572213E+02 -0.79415843876E+01  0.89330038354E+02  0.10806195788E+03  0.15500000000E+01 0. -1.
         -4    1    3    3    0  501  0.60266572213E+02  0.79415843876E+01  0.46516904923E+02  0.76559476438E+02  0.15500000000E+01 0. -1.
<mgrwt>
<rscale>  2 0.12502273E+03</rscale>
<asrwt>0</asrwt>
<pdfrwt beam="1">  1       21 0.24651413E-01 0.12502273E+03</pdfrwt>
<pdfrwt beam="2">  1       21 0.37518840E-02 0.12502273E+03</pdfrwt>
<totfact> 0.66586921E+06</totfact>
</mgrwt>
</event>
<event>
 5    0  0.1222151E+000  0.1249475E+03  0.7546771E-02  0.1235151E+00
         21   -1    0    0  503  502  0.00000000000E+00  0.00000000000E+00  0.21426060195E+01  0.21426060195E+01  0.00000000000E+00 0.  1.
         21   -1    0    0  502  503 -0.00000000000E+00 -0.00000000000E+00 -0.18216003198E+04  0.18216003198E+04  0.00000000000E+00 0.  1.
         25    2    1    2    0    0  0.00000000000E+00  0.00000000000E+00 -0.18194577137E+04  0.18237429258E+04  0.12494753795E+03 0.  0.
          4    1    3    3  501    0 -0.17521493206E+01  0.34498603259E+02 -0.15026384500E+03  0.15419095067E+03  0.15500000000E+01 0. -1.
         -4    1    3    3    0  501  0.17521493206E+01 -0.34498603259E+02 -0.16691938687E+04  0.16695519751E+04  0.15500000000E+01 0. -1.
<mgrwt>
<rscale>  2 0.12494754E+03</rscale>
<asrwt>0</asrwt>
<pdfrwt beam="1">  1       21 0.32963170E-03 0.12494754E+03</pdfrwt>
<pdfrwt beam="2">  1       21 0.28024620E+00 0.12494754E+03</pdfrwt>
<totfact> 0.98122941E+05</totfact>
</mgrwt>
</event>
<event>
 5    0  0.1389271E+000  0.1249992E+03  0.7546771E-02  0.1235071E+00
         21   -1    0    0  503  502  0.00000000000E+00  0.00000000000E+00  0.10849435186E+02  0.10849435186E+02  0.00000000000E+00 0.  1.
         21   -1    0    0  502  503 -0.00000000000E+00 -0.00000000000E+00 -0.36003705294E+03  0.36003705294E+03  0.00000000000E+00 0.  1.
         25    2    1    2    0    0  0.00000000000E+00  0.00000000000E+00 -0.34918761776E+03  0.37088648813E+03  0.12499917873E+03 0.  0.
          4    1    3    3  501    0  0.56152447655E+02 -0.79380340396E+01 -0.25240267250E+03  0.25869986731E+03  0.15500000000E+01 0.  1.
         -4    1    3    3    0  501 -0.56152447655E+02  0.79380340396E+01 -0.96784945258E+02  0.11218662082E+03  0.15500000000E+01 0.  1.
<mgrwt>
<rscale>  2 0.12499918E+03</rscale>
<asrwt>0</asrwt>
<pdfrwt beam="1">  1       21 0.16691441E-02 0.12499918E+03</pdfrwt>
<pdfrwt beam="2">  1       21 0.55390309E-01 0.12499918E+03</pdfrwt>
<totfact> 0.50032968E+06</totfact>
</mgrwt>
</event>
<event>
 4    0  0.1716208E+000  0.1245625E+03  0.7546771E-02  0.1235755E+00
         21   -1    0    0  503  502  0.00000000000E+00  0.00000000000E+00  0.36257365298E+03  0.36257365298E+03  0.00000000000E+00 0.  1.
         21   -1    0    0  502  503 -0.00000000000E+00 -0.00000000000E+00 -0.10698397234E+02  0.10698397234E+02  0.00000000000E+00 0.  1.
          4    1    1    2  501    0 -0.30404066554E+02  0.52449414641E+02  0.13343081191E+03  0.14656579555E+03  0.15500000000E+01 0.  1.
         -4    1    1    2    0  501  0.30404066554E+02 -0.52449414641E+02  0.21844444383E+03  0.22670625466E+03  0.15500000000E+01 0.  1.
<mgrwt>
<rscale>  2 0.12456255E+03</rscale>
<asrwt>0</asrwt>
<pdfrwt beam="1">  1       21 0.55780553E-01 0.12456255E+03</pdfrwt>
<pdfrwt beam="2">  1       21 0.16459075E-02 0.12456255E+03</pdfrwt>
<totfact> 0.50414036E+06</totfact>
</mgrwt>
</event>
<event>
 5    0  0.1222151E+000  0.1249879E+03  0.7546771E-02  0.1235088E+00
         21   -1    0    0  503  502  0.00000000000E+00  0.00000000000E+00  0.38916115430E+01  0.38916115430E+01  0.00000000000E+00 0.  1.
         21   -1    0    0  502  503 -0.00000000000E+00 -0.00000000000E+00 -0.10035667438E+04  0.10035667438E+04  0.00000000000E+00 0.  1.
         25    2    1    2    0    0  0.00000000000E+00  0.00000000000E+00 -0.99967513221E+03  0.10074583553E+04  0.12498787020E+03 0.  0.
          4    1    3    3  501    0 -0.53296758897E+01 -0.42938219308E+02 -0.13658099361E+03  0.14327898115E+03  0.15500000000E+01 0.  1.
         -4    1    3    3    0  501  0.53296758897E+01  0.42938219308E+02 -0.86309413860E+03  0.86417937415E+03  0.15500000000E+01 0.  1.
<mgrwt>
<rscale>  2 0.12498787E+03</rscale>
<asrwt>0</asrwt>
<pdfrwt beam="1">  1       21 0.59870893E-03 0.12498787E+03</pdfrwt>
<pdfrwt beam="2">  1       21 0.15439502E+00 0.12498787E+03</pdfrwt>
<totfact> 0.23440337E+06</totfact>
</mgrwt>
</event>
<event>
 5    0  0.1376514E+000  0.1250020E+03  0.7546771E-02  0.1235066E+00
         21   -1    0    0  503  502  0.00000000000E+00  0.00000000000E+00  0.17468425032E+02  0.17468425032E+02  0.00000000000E+00 0.  1.
         21   -1    0    0  502  503 -0.00000000000E+00 -0.00000000000E+00 -0.22362477711E+03  0.22362477711E+03  0.00000000000E+00 0.  1.
         25    2    1    2    0    0  0.00000000000E+00  0.00000000000E+00 -0.20615635208E+03  0.24109320214E+03  0.12500196245E+03 0.  0.
          4    1    3    3  501    0  0.33962549998E+02 -0.28843854586E+01 -0.20791107526E+01  0.34183324639E+02  0.15500000000E+01 0.  1.
         -4    1    3    3    0  501 -0.33962549998E+02  0.28843854586E+01 -0.20407724133E+03  0.20690987751E+03  0.15500000000E+01 0.  1.
<mgrwt>
<rscale>  2 0.12500196E+03</rscale>
<asrwt>0</asrwt>
<pdfrwt beam="1">  1       21 0.26874500E-02 0.12500196E+03</pdfrwt>
<pdfrwt beam="2">  1       21 0.34403811E-01 0.12500196E+03</pdfrwt>
<totfact> 0.60724030E+06</totfact>
</mgrwt>
</event>
<event>
 5    0  0.1521183E+000  0.1250013E+03  0.7546771E-02  0.1235067E+00
         21   -1    0    0  503  502  0.00000000000E+00  0.00000000000E+00  0.21857908415E+03  0.21857908415E+03  0.00000000000E+00 0. -1.
         21   -1    0    0  502  503 -0.00000000000E+00 -0.00000000000E+00 -0.17871466970E+02  0.17871466970E+02  0.00000000000E+00 0. -1.
         25    2    1    2    0    0  0.00000000000E+00  0.00000000000E+00  0.20070761718E+03  0.23645055112E+03  0.12500126212E+03 0.  0.
          4    1    3    3  501    0 -0.95600905825E+01  0.45568808617E+02  0.21539941760E+02  0.51325269037E+02  0.15500000000E+01 0.  1.
         -4    1    3    3    0  501  0.95600905825E+01 -0.45568808617E+02  0.17916767542E+03  0.18512528209E+03  0.15500000000E+01 0.  1.
<mgrwt>
<rscale>  2 0.12500126E+03</rscale>
<asrwt>0</asrwt>
<pdfrwt beam="1">  1       21 0.33627550E-01 0.12500126E+03</pdfrwt>
<pdfrwt beam="2">  1       21 0.27494566E-02 0.12500126E+03</pdfrwt>
<totfact> 0.61175888E+06</totfact>
</mgrwt>
</event>
<event>
 5    0  0.1495931E+000  0.1249934E+03  0.7546771E-02  0.1235080E+00
         21   -1    0    0  503  502  0.00000000000E+00  0.00000000000E+00  0.20901041763E+03  0.20901041763E+03  0.00000000000E+00 0.  1.
         21   -1    0    0  502  503 -0.00000000000E+00 -0.00000000000E+00 -0.18687281091E+02  0.18687281091E+02  0.00000000000E+00 0.  1.
         25    2    1    2    0    0  0.00000000000E+00  0.00000000000E+00  0.19032313654E+03  0.22769769872E+03  0.12499338263E+03 0.  0.
          4    1    3    3  501    0 -0.44724378452E+02  0.27437654818E+02  0.33376356273E+02  0.62205133132E+02  0.15500000000E+01 0. -1.
         -4    1    3    3    0  501  0.44724378452E+02 -0.27437654818E+02  0.15694678026E+03  0.16549256559E+03  0.15500000000E+01 0. -1.
<mgrwt>
<rscale>  2 0.12499338E+03</rscale>
<asrwt>0</asrwt>
<pdfrwt beam="1">  1       21 0.32155447E-01 0.12499338E+03</pdfrwt>
<pdfrwt beam="2">  1       21 0.28749665E-02 0.12499338E+03</pdfrwt>
<totfact> 0.62054215E+06</totfact>
</mgrwt>
</event>
<event>
 5    0  0.1547360E+000  0.1250230E+03  0.7546771E-02  0.1235033E+00
         21   -1    0    0  503  502  0.00000000000E+00  0.00000000000E+00  0.20240344947E+02  0.20240344947E+02  0.00000000000E+00 0.  1.
         21   -1    0    0  502  503 -0.00000000000E+00 -0.00000000000E+00 -0.19306419985E+03  0.19306419985E+03  0.00000000000E+00 0.  1.
         25    2    1    2    0    0  0.00000000000E+00  0.00000000000E+00 -0.17282385490E+03  0.21330454480E+03  0.12502297392E+03 0.  0.
          4    1    3    3  501    0 -0.27396181182E+02  0.28313226490E+02 -0.36501291774E+01  0.39596912514E+02  0.15500000000E+01 0. -1.
         -4    1    3    3    0  501  0.27396181182E+02 -0.28313226490E+02 -0.16917372573E+03  0.17370763228E+03  0.15500000000E+01 0. -1.
<mgrwt>
<rscale>  2 0.12502297E+03</rscale>
<asrwt>0</asrwt>
<pdfrwt beam="1">  1       21 0.31138993E-02 0.12502297E+03</pdfrwt>
<pdfrwt beam="2">  1       21 0.29702184E-01 0.12502297E+03</pdfrwt>
<totfact> 0.63476644E+06</totfact>
</mgrwt>
</event>
<event>
 5    0  0.1538078E+000  0.1250005E+03  0.7546771E-02  0.1235069E+00
         21   -1    0    0  503  502  0.00000000000E+00  0.00000000000E+00  0.56165415573E+02  0.56165415573E+02  0.00000000000E+00 0. -1.
         21   -1    0    0  502  503 -0.00000000000E+00 -0.00000000000E+00 -0.69549553710E+02  0.69549553710E+02  0.00000000000E+00 0. -1.
         25    2    1    2    0    0  0.00000000000E+00  0.00000000000E+00 -0.13384138137E+02  0.12571496928E+03  0.12500047339E+03 0.  0.
          4    1    3    3  501    0 -0.35141627716E+02 -0.39824443606E+02  0.26404341707E+02  0.59333903192E+02  0.15500000000E+01 0.  1.
         -4    1    3    3    0  501  0.35141627716E+02  0.39824443606E+02 -0.39788479843E+02  0.66381066090E+02  0.15500000000E+01 0.  1.
<mgrwt>
<rscale>  2 0.12500047E+03</rscale>
<asrwt>0</asrwt>
<pdfrwt beam="1">  1       21 0.86408332E-02 0.12500047E+03</pdfrwt>
<pdfrwt beam="2">  1       21 0.10699931E-01 0.12500047E+03</pdfrwt>
<totfact> 0.73944567E+06</totfact>
</mgrwt>
</event>
<event>
 5    0  0.1543011E+000  0.1249993E+03  0.7546771E-02  0.1235070E+00
         21   -1    0    0  503  502  0.00000000000E+00  0.00000000000E+00  0.65916369955E+02  0.65916369955E+02  0.00000000000E+00 0. -1.
         21   -1    0    0  502  503 -0.00000000000E+00 -0.00000000000E+00 -0.59260061227E+02  0.59260061227E+02  0.00000000000E+00 0. -1.
         25    2    1    2    0    0  0.00000000000E+00  0.00000000000E+00  0.66563087283E+01  0.12517643118E+03  0.12499932991E+03 0.  0.
          4    1    3    3  501    0 -0.61509102384E+01  0.42945952945E+02  0.48354253822E+02  0.64982497134E+02  0.15500000000E+01 0. -1.
         -4    1    3    3    0  501  0.61509102384E+01 -0.42945952945E+02 -0.41697945093E+02  0.60193934048E+02  0.15500000000E+01 0. -1.
<mgrwt>
<rscale>  2 0.12499933E+03</rscale>
<asrwt>0</asrwt>
<pdfrwt beam="1">  1       21 0.10140980E-01 0.12499933E+03</pdfrwt>
<pdfrwt beam="2">  1       21 0.91169325E-02 0.12499933E+03</pdfrwt>
<totfact> 0.74021022E+06</totfact>
</mgrwt>
</event>
<event>
 5    0  0.1554227E+000  0.1249991E+03  0.7546771E-02  0.1235071E+00
         21   -1    0    0  503  502  0.00000000000E+00  0.00000000000E+00  0.54922107069E+02  0.54922107069E+02  0.00000000000E+00 0. -1.
         21   -1    0    0  502  503 -0.00000000000E+00 -0.00000000000E+00 -0.71122389077E+02  0.71122389077E+02  0.00000000000E+00 0. -1.
         25    2    1    2    0    0  0.00000000000E+00  0.00000000000E+00 -0.16200282008E+02  0.12604449615E+03  0.12499906348E+03 0.  0.
          4    1    3    3  501    0 -0.52477005926E+02  0.33665398357E+02 -0.12207755393E+02  0.63550192676E+02  0.15500000000E+01 0. -1.
         -4    1    3    3    0  501  0.52477005926E+02 -0.33665398357E+02 -0.39925266154E+01  0.62494303470E+02  0.15500000000E+01 0. -1.
<mgrwt>
<rscale>  2 0.12499906E+03</rscale>
<asrwt>0</asrwt>
<pdfrwt beam="1">  1       21 0.84495549E-02 0.12499906E+03</pdfrwt>
<pdfrwt beam="2">  1       21 0.10941906E-01 0.12499906E+03</pdfrwt>
<totfact> 0.73901671E+06</totfact>
</mgrwt>
</event>
<event>
 5    0  0.1289145E+000  0.1249463E+03  0.7546771E-02  0.1235153E+00
         21   -1    0    0  503  502  0.00000000000E+00  0.00000000000E+00  0.43646649964E+02  0.43646649964E+02  0.00000000000E+00 0.  1.
         21   -1    0    0  502  503 -0.00000000000E+00 -0.00000000000E+00 -0.89420251419E+02  0.89420251419E+02  0.00000000000E+00 0.  1.
         25    2    1    2    0    0  0.00000000000E+00  0.00000000000E+00 -0.45773601455E+02  0.13306690138E+03  0.12494629908E+03 0.  0.
          4    1    3    3  501    0  0.50362959350E+02  0.30582655527E+01 -0.62085351961E+02  0.80017336189E+02  0.15500000000E+01 0.  1.
         -4    1    3    3    0  501 -0.50362959350E+02 -0.30582655527E+01  0.16311750506E+02  0.53049565194E+02  0.15500000000E+01 0.  1.
<mgrwt>
<rscale>  2 0.12494630E+03</rscale>
<asrwt>0</asrwt>
<pdfrwt beam="1">  1       21 0.67148693E-02 0.12494630E+03</pdfrwt>
<pdfrwt beam="2">  1       21 0.13756962E-01 0.12494630E+03</pdfrwt>
<totfact> 0.73053491E+06</totfact>
</mgrwt>
</event>
<event>
 5    0  0.1475600E+000  0.1249970E+03  0.7546771E-02  0.1235074E+00
         21   -1    0    0  503  502  0.00000000000E+00  0.00000000000E+00  0.12420535502E+03  0.12420535502E+03  0.00000000000E+00 0. -1.
         21   -1    0    0  502  503 -0.00000000000E+00 -0.00000000000E+00 -0.31448412244E+02  0.31448412244E+02  0.00000000000E+00 0. -1.
         25    2    1    2    0    0  0.00000000000E+00  0.00000000000E+00  0.92756942776E+02  0.15565376726E+03  0.12499697929E+03 0.  0.
          4    1    3    3  501    0 -0.14754926965E+02  0.24502105446E+02  0.11555038130E+03  0.11904769699E+03  0.15500000000E+01 0.  1.
         -4    1    3    3    0  501  0.14754926965E+02 -0.24502105446E+02 -0.22793438523E+02  0.36606070271E+02  0.15500000000E+01 0.  1.
<mgrwt>
<rscale>  2 0.12499698E+03</rscale>
<asrwt>0</asrwt>
<pdfrwt beam="1">  1       21 0.19108516E-01 0.12499698E+03</pdfrwt>
<pdfrwt beam="2">  1       21 0.48382173E-02 0.12499698E+03</pdfrwt>
<totfact> 0.70059878E+06</totfact>
</mgrwt>
</event>
<event>
 5    0  0.1391360E+000  0.1250019E+03  0.7546771E-02  0.1235066E+00
         21   -1    0    0  503  502  0.00000000000E+00  0.00000000000E+00  0.16983025297E+02  0.16983025297E+02  0.00000000000E+00 0. -1.
         21   -1    0    0  502  503 -0.00000000000E+00 -0.00000000000E+00 -0.23001596457E+03  0.23001596457E+03  0.00000000000E+00 0. -1.
         25    2    1    2    0    0  0.00000000000E+00  0.00000000000E+00 -0.21303293927E+03  0.24699898986E+03  0.12500187110E+03 0.  0.
          4    1    3    3  501    0 -0.43794130454E+02  0.15567344834E+02 -0.24005043515E+02  0.52334622398E+02  0.15500000000E+01 0. -1.
         -4    1    3    3    0  501  0.43794130454E+02 -0.15567344834E+02 -0.18902789575E+03  0.19466436746E+03  0.15500000000E+01 0. -1.
<mgrwt>
<rscale>  2 0.12500187E+03</rscale>
<asrwt>0</asrwt>
<pdfrwt beam="1">  1       21 0.26127734E-02 0.12500187E+03</pdfrwt>
<pdfrwt beam="2">  1       21 0.35387068E-01 0.12500187E+03</pdfrwt>
<totfact> 0.60159049E+06</totfact>
</mgrwt>
</event>
<event>
 5    0  0.1523496E+000  0.1249922E+03  0.7546771E-02  0.1235082E+00
         21   -1    0    0  503  502  0.00000000000E+00  0.00000000000E+00  0.47705087959E+02  0.47705087959E+02  0.00000000000E+00 0. -1.
         21   -1    0    0  502  503 -0.00000000000E+00 -0.00000000000E+00 -0.81873017456E+02  0.81873017456E+02  0.00000000000E+00 0. -1.
         25    2    1    2    0    0  0.00000000000E+00  0.00000000000E+00 -0.34167929497E+02  0.12957810542E+03  0.12499215174E+03 0.  0.
          4    1    3    3  501    0  0.61575216060E+02 -0.55232631738E+01 -0.77340025352E+01  0.62323598774E+02  0.15500000000E+01 0. -1.
         -4    1    3    3    0  501 -0.61575216060E+02  0.55232631738E+01 -0.26433926962E+02  0.67254506641E+02  0.15500000000E+01 0. -1.
<mgrwt>
<rscale>  2 0.12499215E+03</rscale>
<asrwt>0</asrwt>
<pdfrwt beam="1">  1       21 0.73392444E-02 0.12499215E+03</pdfrwt>
<pdfrwt beam="2">  1       21 0.12595849E-01 0.12499215E+03</pdfrwt>
<totfact> 0.73436069E+06</totfact>
</mgrwt>
</event>
<event>
 5    0  0.1476384E+000  0.1250005E+03  0.7546771E-02  0.1235068E+00
         21   -1    0    0  503  502  0.00000000000E+00  0.00000000000E+00  0.38730469397E+02  0.38730469397E+02  0.00000000000E+00 0.  1.
         21   -1    0    0  502  503 -0.00000000000E+00 -0.00000000000E+00 -0.10085813714E+03  0.10085813714E+03  0.00000000000E+00 0.  1.
         25    2    1    2    0    0  0.00000000000E+00  0.00000000000E+00 -0.62127667742E+02  0.13958860654E+03  0.12500052790E+03 0.  0.
          4    1    3    3  501    0 -0.68665008538E-01 -0.35883524886E+02 -0.88182441786E+02  0.95216477631E+02  0.15500000000E+01 0. -1.
         -4    1    3    3    0  501  0.68665008538E-01  0.35883524886E+02  0.26054774044E+02  0.44372128905E+02  0.15500000000E+01 0. -1.
<mgrwt>
<rscale>  2 0.12500053E+03</rscale>
<asrwt>0</asrwt>
<pdfrwt beam="1">  1       21 0.59585337E-02 0.12500053E+03</pdfrwt>
<pdfrwt beam="2">  1       21 0.15516637E-01 0.12500053E+03</pdfrwt>
<totfact> 0.72092090E+06</totfact>
</mgrwt>
</event>
<event>
 5    0  0.1497923E+000  0.1250028E+03  0.7546771E-02  0.1235065E+00
         21   -1    0    0  503  502  0.00000000000E+00  0.00000000000E+00  0.69128161106E+02  0.69128161106E+02  0.00000000000E+00 0.  1.
         21   -1    0    0  502  503 -0.00000000000E+00 -0.00000000000E+00 -0.56509889281E+02  0.56509889281E+02  0.00000000000E+00 0.  1.
         25    2    1    2    0    0  0.00000000000E+00  0.00000000000E+00  0.12618271825E+02  0.12563805039E+03  0.12500279565E+03 0.  0.
          4    1    3    3  501    0  0.32186576191E+02 -0.47552568901E+02 -0.18449354066E+02  0.60332442860E+02  0.15500000000E+01 0.  1.
         -4    1    3    3    0  501 -0.32186576191E+02  0.47552568901E+02  0.31067625891E+02  0.65305607527E+02  0.15500000000E+01 0.  1.
<mgrwt>
<rscale>  2 0.12500280E+03</rscale>
<asrwt>0</asrwt>
<pdfrwt beam="1">  1       21 0.10635102E-01 0.12500280E+03</pdfrwt>
<pdfrwt beam="2">  1       21 0.86938291E-02 0.12500280E+03</pdfrwt>
<totfact> 0.73950874E+06</totfact>
</mgrwt>
</event>
<event>
 5    0  0.1539834E+000  0.1250021E+03  0.7546771E-02  0.1235066E+00
         21   -1    0    0  503  502  0.00000000000E+00  0.00000000000E+00  0.18998765696E+02  0.18998765696E+02  0.00000000000E+00 0.  1.
         21   -1    0    0  502  503 -0.00000000000E+00 -0.00000000000E+00 -0.20561239876E+03  0.20561239876E+03  0.00000000000E+00 0.  1.
         25    2    1    2    0    0  0.00000000000E+00  0.00000000000E+00 -0.18661363306E+03  0.22461116445E+03  0.12500210859E+03 0.  0.
          4    1    3    3  501    0  0.10140491738E+02  0.59940279192E+02 -0.67372678502E+02  0.90758729337E+02  0.15500000000E+01 0. -1.
         -4    1    3    3    0  501 -0.10140491738E+02 -0.59940279192E+02 -0.11924095456E+03  0.13385243511E+03  0.15500000000E+01 0. -1.
<mgrwt>
<rscale>  2 0.12500211E+03</rscale>
<asrwt>0</asrwt>
<pdfrwt beam="1">  1       21 0.29228871E-02 0.12500211E+03</pdfrwt>
<pdfrwt beam="2">  1       21 0.31632676E-01 0.12500211E+03</pdfrwt>
<totfact> 0.62350977E+06</totfact>
</mgrwt>
</event>
<event>
 5    0  0.1466538E+000  0.1250189E+03  0.7546771E-02  0.1235040E+00
         21   -1    0    0  503  502  0.00000000000E+00  0.00000000000E+00  0.39740579669E+02  0.39740579669E+02  0.00000000000E+00 0.  1.
         21   -1    0    0  502  503 -0.00000000000E+00 -0.00000000000E+00 -0.98323527205E+02  0.98323527205E+02  0.00000000000E+00 0.  1.
         25    2    1    2    0    0  0.00000000000E+00  0.00000000000E+00 -0.58582947536E+02  0.13806410687E+03  0.12501894202E+03 0.  0.
          4    1    3    3  501    0  0.43210565959E+02  0.23255208663E+01  0.20495655335E+02  0.47906528213E+02  0.15500000000E+01 0.  1.
         -4    1    3    3    0  501 -0.43210565959E+02 -0.23255208663E+01 -0.79078602871E+02  0.90157578660E+02  0.15500000000E+01 0.  1.
<mgrwt>
<rscale>  2 0.12501894E+03</rscale>
<asrwt>0</asrwt>
<pdfrwt beam="1">  1       21 0.61139354E-02 0.12501894E+03</pdfrwt>
<pdfrwt beam="2">  1       21 0.15126696E-01 0.12501894E+03</pdfrwt>
<totfact> 0.72258172E+06</totfact>
</mgrwt>
</event>
<event>
 5    0  0.1444963E+000  0.1249984E+03  0.7546771E-02  0.1235072E+00
         21   -1    0    0  503  502  0.00000000000E+00  0.00000000000E+00  0.39595042814E+03  0.39595042814E+03  0.00000000000E+00 0.  1.
         21   -1    0    0  502  503 -0.00000000000E+00 -0.00000000000E+00 -0.98652446168E+01  0.98652446168E+01  0.00000000000E+00 0.  1.
         25    2    1    2    0    0  0.00000000000E+00  0.00000000000E+00  0.38608518352E+03  0.40581567276E+03  0.12499836526E+03 0.  0.
          4    1    3    3  501    0  0.62144314028E+01  0.60523163921E+02  0.14689187896E+03  0.15900094067E+03  0.15500000000E+01 0. -1.
         -4    1    3    3    0  501 -0.62144314028E+01 -0.60523163921E+02  0.23919330456E+03  0.24681473209E+03  0.15500000000E+01 0. -1.
<mgrwt>
<rscale>  2 0.12499837E+03</rscale>
<asrwt>0</asrwt>
<pdfrwt beam="1">  1       21 0.60915438E-01 0.12499837E+03</pdfrwt>
<pdfrwt beam="2">  1       21 0.15177302E-02 0.12499837E+03</pdfrwt>
<totfact> 0.47659933E+06</totfact>
</mgrwt>
</event>
<event>
 5    0  0.1431936E+000  0.1249772E+03  0.7546771E-02  0.1235105E+00
         21   -1    0    0  503  502  0.00000000000E+00  0.00000000000E+00  0.11447315311E+02  0.11447315311E+02  0.00000000000E+00 0.  1.
         21   -1    0    0  502  503 -0.00000000000E+00 -0.00000000000E+00 -0.34111291504E+03  0.34111291504E+03  0.00000000000E+00 0.  1.
         25    2    1    2    0    0  0.00000000000E+00  0.00000000000E+00 -0.32966559973E+03  0.35256023035E+03  0.12497723144E+03 0.  0.
          4    1    3    3  501    0 -0.14053403720E+02  0.57714829082E+02 -0.11028281436E+03  0.12527250814E+03  0.15500000000E+01 0.  1.
         -4    1    3    3    0  501  0.14053403720E+02 -0.57714829082E+02 -0.21938278537E+03  0.22728772221E+03  0.15500000000E+01 0.  1.
<mgrwt>
<rscale>  2 0.12497723E+03</rscale>
<asrwt>0</asrwt>
<pdfrwt beam="1">  1       21 0.17611252E-02 0.12497723E+03</pdfrwt>
<pdfrwt beam="2">  1       21 0.52478916E-01 0.12497723E+03</pdfrwt>
<totfact> 0.51379198E+06</totfact>
</mgrwt>
</event>
<event>
 5    0  0.1383619E+000  0.1249424E+03  0.7546771E-02  0.1235159E+00
         21   -1    0    0  503  502  0.00000000000E+00  0.00000000000E+00  0.11940547919E+03  0.11940547919E+03  0.00000000000E+00 0.  1.
         21   -1    0    0  502  503 -0.00000000000E+00 -0.00000000000E+00 -0.32684044118E+02  0.32684044118E+02  0.00000000000E+00 0.  1.
         25    2    1    2    0    0  0.00000000000E+00  0.00000000000E+00  0.86721435067E+02  0.15208952330E+03  0.12494244995E+03 0.  0.
          4    1    3    3  501    0 -0.55052730820E+02  0.28011323990E+02  0.54571168216E+02  0.82436959811E+02  0.15500000000E+01 0. -1.
         -4    1    3    3    0  501  0.55052730820E+02 -0.28011323990E+02  0.32150266851E+02  0.69652563492E+02  0.15500000000E+01 0. -1.
<mgrwt>
<rscale>  2 0.12494245E+03</rscale>
<asrwt>0</asrwt>
<pdfrwt beam="1">  1       21 0.18370074E-01 0.12494245E+03</pdfrwt>
<pdfrwt beam="2">  1       21 0.50283145E-02 0.12494245E+03</pdfrwt>
<totfact> 0.70601048E+06</totfact>
</mgrwt>
</event>
<event>
 5    0  0.1453451E+000  0.1250026E+03  0.7546771E-02  0.1235065E+00
         21   -1    0    0  503  502  0.00000000000E+00  0.00000000000E+00  0.89122423046E+02  0.89122423046E+02  0.00000000000E+00 0.  1.
         21   -1    0    0  502  503 -0.00000000000E+00 -0.00000000000E+00 -0.43831978330E+02  0.43831978330E+02  0.00000000000E+00 0.  1.
         25    2    1    2    0    0  0.00000000000E+00  0.00000000000E+00  0.45290444716E+02  0.13295440138E+03  0.12500259382E+03 0.  0.
          4    1    3    3  501    0  0.41990830883E+02  0.30191138351E+00  0.71856024143E+02  0.83240685572E+02  0.15500000000E+01 0. -1.
         -4    1    3    3    0  501 -0.41990830883E+02 -0.30191138351E+00 -0.26565579427E+02  0.49713715804E+02  0.15500000000E+01 0. -1.
<mgrwt>
<rscale>  2 0.12500259E+03</rscale>
<asrwt>0</asrwt>
<pdfrwt beam="1">  1       21 0.13711142E-01 0.12500259E+03</pdfrwt>
<pdfrwt beam="2">  1       21 0.67433813E-02 0.12500259E+03</pdfrwt>
<totfact> 0.72963660E+06</totfact>
</mgrwt>
</event>
<event>
 5    0  0.1271754E+000  0.1249953E+03  0.7546771E-02  0.1235077E+00
         21   -1    0    0  503  502  0.00000000000E+00  0.00000000000E+00  0.57567112630E+03  0.57567112630E+03  0.00000000000E+00 0.  1.
         21   -1    0    0  502  503 -0.00000000000E+00 -0.00000000000E+00 -0.67850502440E+01  0.67850502440E+01  0.00000000000E+00 0.  1.
         25    2    1    2    0    0  0.00000000000E+00  0.00000000000E+00  0.56888607606E+03  0.58245617655E+03  0.12499532017E+03 0.  0.
          4    1    3    3  501    0 -0.24004559138E+02  0.57675424207E+02  0.28006776585E+03  0.28695475146E+03  0.15500000000E+01 0. -1.
         -4    1    3    3    0  501  0.24004559138E+02 -0.57675424207E+02  0.28881831021E+03  0.29550142509E+03  0.15500000000E+01 0. -1.
<mgrwt>
<rscale>  2 0.12499532E+03</rscale>
<asrwt>0</asrwt>
<pdfrwt beam="1">  1       21 0.88564750E-01 0.12499532E+03</pdfrwt>
<pdfrwt beam="2">  1       21 0.10438543E-02 0.12499532E+03</pdfrwt>
<totfact> 0.37902658E+06</totfact>
</mgrwt>
</event>
<event>
 5    0  0.1336017E+000  0.1250074E+03  0.7546771E-02  0.1235058E+00
         21   -1    0    0  503  502  0.00000000000E+00  0.00000000000E+00  0.15539706210E+02  0.15539706210E+02  0.00000000000E+00 0.  1.
         21   -1    0    0  502  503 -0.00000000000E+00 -0.00000000000E+00 -0.25140183276E+03  0.25140183276E+03  0.00000000000E+00 0.  1.
         25    2    1    2    0    0  0.00000000000E+00  0.00000000000E+00 -0.23586212655E+03  0.26694153897E+03  0.12500736973E+03 0.  0.
          4    1    3    3  501    0 -0.39514689207E+02 -0.31697770448E+02 -0.39816367038E+02  0.64450794398E+02  0.15500000000E+01 0. -1.
         -4    1    3    3    0  501  0.39514689207E+02  0.31697770448E+02 -0.19604575952E+03  0.20249074458E+03  0.15500000000E+01 0. -1.
<mgrwt>
<rscale>  2 0.12500737E+03</rscale>
<asrwt>0</asrwt>
<pdfrwt beam="1">  1       21 0.23907241E-02 0.12500737E+03</pdfrwt>
<pdfrwt beam="2">  1       21 0.38677204E-01 0.12500737E+03</pdfrwt>
<totfact> 0.58308006E+06</totfact>
</mgrwt>
</event>
<event>
 5    0  0.1546657E+000  0.1249975E+03  0.7546771E-02  0.1235073E+00
         21   -1    0    0  503  502  0.00000000000E+00  0.00000000000E+00  0.13468532197E+03  0.13468532197E+03  0.00000000000E+00 0.  1.
         21   -1    0    0  502  503 -0.00000000000E+00 -0.00000000000E+00 -0.29001618198E+02  0.29001618198E+02  0.00000000000E+00 0.  1.
         25    2    1    2    0    0  0.00000000000E+00  0.00000000000E+00  0.10568370377E+03  0.16368694017E+03  0.12499747653E+03 0.  0.
          4    1    3    3  501    0 -0.47508213213E+02  0.25773945593E+02  0.11797932549E+02  0.55343656425E+02  0.15500000000E+01 0.  1.
         -4    1    3    3    0  501  0.47508213213E+02 -0.25773945593E+02  0.93885771223E+02  0.10834328374E+03  0.15500000000E+01 0.  1.
<mgrwt>
<rscale>  2 0.12499748E+03</rscale>
<asrwt>0</asrwt>
<pdfrwt beam="1">  1       21 0.20720818E-01 0.12499748E+03</pdfrwt>
<pdfrwt beam="2">  1       21 0.44617875E-02 0.12499748E+03</pdfrwt>
<totfact> 0.69076205E+06</totfact>
</mgrwt>
</event>
<event>
 5    0  0.1222151E+000  0.1250011E+03  0.7546771E-02  0.1235068E+00
         21   -1    0    0  503  502  0.00000000000E+00  0.00000000000E+00  0.12745800321E+04  0.12745800321E+04  0.00000000000E+00 0. -1.
         21   -1    0    0  502  503 -0.00000000000E+00 -0.00000000000E+00 -0.30647887588E+01  0.30647887588E+01  0.00000000000E+00 0. -1.
         25    2    1    2    0    0  0.00000000000E+00  0.00000000000E+00  0.12715152433E+04  0.12776448209E+04  0.12500109687E+03 0.  0.
          4    1    3    3  501    0 -0.19864411815E+02 -0.58512733626E+02  0.73031284059E+03  0.73292399502E+03  0.15500000000E+01 0. -1.
         -4    1    3    3    0  501  0.19864411815E+02  0.58512733626E+02  0.54120240275E+03  0.54472082584E+03  0.15500000000E+01 0. -1.
<mgrwt>
<rscale>  2 0.12500110E+03</rscale>
<asrwt>0</asrwt>
<pdfrwt beam="1">  1       21 0.19608881E+00 0.12500110E+03</pdfrwt>
<pdfrwt beam="2">  1       21 0.47150698E-03 0.12500110E+03</pdfrwt>
<totfact> 0.17658146E+06</totfact>
</mgrwt>
</event>
<event>
 5    0  0.1417112E+000  0.1250027E+03  0.7546771E-02  0.1235065E+00
         21   -1    0    0  503  502  0.00000000000E+00  0.00000000000E+00  0.16549054749E+03  0.16549054749E+03  0.00000000000E+00 0.  1.
         21   -1    0    0  502  503 -0.00000000000E+00 -0.00000000000E+00 -0.23605088683E+02  0.23605088683E+02  0.00000000000E+00 0.  1.
         25    2    1    2    0    0  0.00000000000E+00  0.00000000000E+00  0.14188545881E+03  0.18909563618E+03  0.12500270477E+03 0.  0.
          4    1    3    3  501    0 -0.27543963058E+02 -0.40427580665E+02  0.12141256857E+02  0.50426895576E+02  0.15500000000E+01 0. -1.
         -4    1    3    3    0  501  0.27543963058E+02  0.40427580665E+02  0.12974420195E+03  0.13866874060E+03  0.15500000000E+01 0. -1.
<mgrwt>
<rscale>  2 0.12500270E+03</rscale>
<asrwt>0</asrwt>
<pdfrwt beam="1">  1       21 0.25460083E-01 0.12500270E+03</pdfrwt>
<pdfrwt beam="2">  1       21 0.36315522E-02 0.12500270E+03</pdfrwt>
<totfact> 0.66118584E+06</totfact>
</mgrwt>
</event>
<event>
 5    0  0.1415249E+000  0.1250027E+03  0.7546771E-02  0.1235065E+00
         21   -1    0    0  503  502  0.00000000000E+00  0.00000000000E+00  0.41481045327E+03  0.41481045327E+03  0.00000000000E+00 0.  1.
         21   -1    0    0  502  503 -0.00000000000E+00 -0.00000000000E+00 -0.94173634690E+01  0.94173634690E+01  0.00000000000E+00 0.  1.
         25    2    1    2    0    0  0.00000000000E+00  0.00000000000E+00  0.40539308980E+03  0.42422781674E+03  0.12500273292E+03 0.  0.
          4    1    3    3  501    0  0.58677615268E+02  0.20753023511E+02  0.22136764881E+03  0.22995605875E+03  0.15500000000E+01 0. -1.
         -4    1    3    3    0  501 -0.58677615268E+02 -0.20753023511E+02  0.18402544099E+03  0.19427175799E+03  0.15500000000E+01 0. -1.
<mgrwt>
<rscale>  2 0.12500273E+03</rscale>
<asrwt>0</asrwt>
<pdfrwt beam="1">  1       21 0.63816979E-01 0.12500273E+03</pdfrwt>
<pdfrwt beam="2">  1       21 0.14488255E-02 0.12500273E+03</pdfrwt>
<totfact> 0.46471630E+06</totfact>
</mgrwt>
</event>
<event>
 5    0  0.1406939E+000  0.1249949E+03  0.7546771E-02  0.1235077E+00
         21   -1    0    0  503  502  0.00000000000E+00  0.00000000000E+00  0.13838030341E+02  0.13838030341E+02  0.00000000000E+00 0.  1.
         21   -1    0    0  502  503 -0.00000000000E+00 -0.00000000000E+00 -0.28226063768E+03  0.28226063768E+03  0.00000000000E+00 0.  1.
         25    2    1    2    0    0  0.00000000000E+00  0.00000000000E+00 -0.26842260734E+03  0.29609866802E+03  0.12499490019E+03 0.  0.
          4    1    3    3  501    0 -0.37826456838E+02 -0.49248004597E+02 -0.15050710001E+03  0.16282197778E+03  0.15500000000E+01 0.  1.
         -4    1    3    3    0  501  0.37826456838E+02  0.49248004597E+02 -0.11791550732E+03  0.13327669024E+03  0.15500000000E+01 0.  1.
<mgrwt>
<rscale>  2 0.12499490E+03</rscale>
<asrwt>0</asrwt>
<pdfrwt beam="1">  1       21 0.21289279E-02 0.12499490E+03</pdfrwt>
<pdfrwt beam="2">  1       21 0.43424711E-01 0.12499490E+03</pdfrwt>
<totfact> 0.55789107E+06</totfact>
</mgrwt>
</event>
<event>
 5    0  0.1594702E+000  0.1250161E+03  0.7546771E-02  0.1235044E+00
         21   -1    0    0  503  502  0.00000000000E+00  0.00000000000E+00  0.34404646217E+02  0.34404646217E+02  0.00000000000E+00 0.  1.
         21   -1    0    0  502  503 -0.00000000000E+00 -0.00000000000E+00 -0.11356772177E+03  0.11356772177E+03  0.00000000000E+00 0.  1.
         25    2    1    2    0    0  0.00000000000E+00  0.00000000000E+00 -0.79163075550E+02  0.14797236798E+03  0.12501611559E+03 0.  0.
          4    1    3    3  501    0 -0.61553519549E+02  0.10465289123E+02 -0.36564626802E+02  0.72372180280E+02  0.15500000000E+01 0.  1.
         -4    1    3    3    0  501  0.61553519549E+02 -0.10465289123E+02 -0.42598448748E+02  0.75600187705E+02  0.15500000000E+01 0.  1.
<mgrwt>
<rscale>  2 0.12501612E+03</rscale>
<asrwt>0</asrwt>
<pdfrwt beam="1">  1       21 0.52930225E-02 0.12501612E+03</pdfrwt>
<pdfrwt beam="2">  1       21 0.17471957E-01 0.12501612E+03</pdfrwt>
<totfact> 0.70985717E+06</totfact>
</mgrwt>
</event>
<event>
 5    0  0.1540297E+000  0.1250025E+03  0.7546771E-02  0.1235065E+00
         21   -1    0    0  503  502  0.00000000000E+00  0.00000000000E+00  0.29159170305E+02  0.29159170305E+02  0.00000000000E+00 0. -1.
         21   -1    0    0  502  503 -0.00000000000E+00 -0.00000000000E+00 -0.13396843429E+03  0.13396843429E+03  0.00000000000E+00 0. -1.
         25    2    1    2    0    0  0.00000000000E+00  0.00000000000E+00 -0.10480926398E+03  0.16312760459E+03  0.12500253423E+03 0.  0.
          4    1    3    3  501    0 -0.46156158676E+02  0.78890754540E+01  0.15814160589E+01  0.46877839882E+02  0.15500000000E+01 0.  1.
         -4    1    3    3    0  501  0.46156158676E+02 -0.78890754540E+01 -0.10639068004E+03  0.11624976471E+03  0.15500000000E+01 0.  1.
<mgrwt>
<rscale>  2 0.12500253E+03</rscale>
<asrwt>0</asrwt>
<pdfrwt beam="1">  1       21 0.44860261E-02 0.12500253E+03</pdfrwt>
<pdfrwt beam="2">  1       21 0.20610529E-01 0.12500253E+03</pdfrwt>
<totfact> 0.69134888E+06</totfact>
</mgrwt>
</event>
<event>
 5    0  0.1296722E+000  0.1250063E+03  0.7546771E-02  0.1235059E+00
         21   -1    0    0  503  502  0.00000000000E+00  0.00000000000E+00  0.32739061245E+03  0.32739061245E+03  0.00000000000E+00 0.  1.
         21   -1    0    0  502  503 -0.00000000000E+00 -0.00000000000E+00 -0.11932677398E+02  0.11932677398E+02  0.00000000000E+00 0.  1.
         25    2    1    2    0    0  0.00000000000E+00  0.00000000000E+00  0.31545793505E+03  0.33932328984E+03  0.12500634482E+03 0.  0.
          4    1    3    3  501    0 -0.15994938302E+01 -0.43183807951E+02  0.28023586470E+03  0.28355236203E+03  0.15500000000E+01 0.  1.
         -4    1    3    3    0  501  0.15994938302E+01  0.43183807951E+02  0.35222070350E+02  0.55770927815E+02  0.15500000000E+01 0.  1.
<mgrwt>
<rscale>  2 0.12500634E+03</rscale>
<asrwt>0</asrwt>
<pdfrwt beam="1">  1       21 0.50367780E-01 0.12500634E+03</pdfrwt>
<pdfrwt beam="2">  1       21 0.18357968E-02 0.12500634E+03</pdfrwt>
<totfact> 0.52328415E+06</totfact>
</mgrwt>
</event>
<event>
 5    0  0.1562508E+000  0.1249984E+03  0.7546771E-02  0.1235072E+00
         21   -1    0    0  503  502  0.00000000000E+00  0.00000000000E+00  0.21788932637E+02  0.21788932637E+02  0.00000000000E+00 0.  1.
         21   -1    0    0  502  503 -0.00000000000E+00 -0.00000000000E+00 -0.17927218976E+03  0.17927218976E+03  0.00000000000E+00 0.  1.
         25    2    1    2    0    0  0.00000000000E+00  0.00000000000E+00 -0.15748325713E+03  0.20106112240E+03  0.12499839465E+03 0.  0.
          4    1    3    3  501    0  0.53941997298E+02  0.29203825536E+02 -0.97851418168E+02  0.11549850664E+03  0.15500000000E+01 0.  1.
         -4    1    3    3    0  501 -0.53941997298E+02 -0.29203825536E+02 -0.59631838959E+02  0.85562615762E+02  0.15500000000E+01 0.  1.
<mgrwt>
<rscale>  2 0.12499839E+03</rscale>
<asrwt>0</asrwt>
<pdfrwt beam="1">  1       21 0.33521436E-02 0.12499839E+03</pdfrwt>
<pdfrwt beam="2">  1       21 0.27580336E-01 0.12499839E+03</pdfrwt>
<totfact> 0.64815088E+06</totfact>
</mgrwt>
</event>
<event>
 5    0  0.1480890E+000  0.1250020E+03  0.7546771E-02  0.1235066E+00
         21   -1    0    0  503  502  0.00000000000E+00  0.00000000000E+00  0.22533695827E+02  0.22533695827E+02  0.00000000000E+00 0. -1.
         21   -1    0    0  502  503 -0.00000000000E+00 -0.00000000000E+00 -0.17335708129E+03  0.17335708129E+03  0.00000000000E+00 0. -1.
         25    2    1    2    0    0  0.00000000000E+00  0.00000000000E+00 -0.15082338546E+03  0.19589077712E+03  0.12500201181E+03 0.  0.
          4    1    3    3  501    0 -0.56161776828E+02 -0.98078832648E+01 -0.35346786198E+02  0.67097969754E+02  0.15500000000E+01 0. -1.
         -4    1    3    3    0  501  0.56161776828E+02  0.98078832648E+01 -0.11547659927E+03  0.12879280736E+03  0.15500000000E+01 0. -1.
<mgrwt>
<rscale>  2 0.12500201E+03</rscale>
<asrwt>0</asrwt>
<pdfrwt beam="1">  1       21 0.34667223E-02 0.12500201E+03</pdfrwt>
<pdfrwt beam="2">  1       21 0.26670321E-01 0.12500201E+03</pdfrwt>
<totfact> 0.65370330E+06</totfact>
</mgrwt>
</event>
<event>
 5    0  0.1463473E+000  0.1250013E+03  0.7546771E-02  0.1235067E+00
         21   -1    0    0  503  502  0.00000000000E+00  0.00000000000E+00  0.10200115919E+03  0.10200115919E+03  0.00000000000E+00 0.  1.
         21   -1    0    0  502  503 -0.00000000000E+00 -0.00000000000E+00 -0.38296921704E+02  0.38296921704E+02  0.00000000000E+00 0.  1.
         25    2    1    2    0    0  0.00000000000E+00  0.00000000000E+00  0.63704237488E+02  0.14029808090E+03  0.12500128651E+03 0.  0.
          4    1    3    3  501    0  0.30999153153E+02  0.55753443587E+01 -0.28713362667E+02  0.42648466052E+02  0.15500000000E+01 0.  1.
         -4    1    3    3    0  501 -0.30999153153E+02 -0.55753443587E+01  0.92417600155E+02  0.97649614844E+02  0.15500000000E+01 0.  1.
<mgrwt>
<rscale>  2 0.12500129E+03</rscale>
<asrwt>0</asrwt>
<pdfrwt beam="1">  1       21 0.15692486E-01 0.12500129E+03</pdfrwt>
<pdfrwt beam="2">  1       21 0.58918342E-02 0.12500129E+03</pdfrwt>
<totfact> 0.71998058E+06</totfact>
</mgrwt>
</event>
<event>
 5    0  0.1426222E+000  0.1250050E+03  0.7546771E-02  0.1235061E+00
         21   -1    0    0  503  502  0.00000000000E+00  0.00000000000E+00  0.19160769817E+02  0.19160769817E+02  0.00000000000E+00 0. -1.
         21   -1    0    0  502  503 -0.00000000000E+00 -0.00000000000E+00 -0.20388347232E+03  0.20388347232E+03  0.00000000000E+00 0. -1.
         25    2    1    2    0    0  0.00000000000E+00  0.00000000000E+00 -0.18472270251E+03  0.22304424214E+03  0.12500502842E+03 0.  0.
          4    1    3    3  501    0  0.19343305084E+01  0.35559749734E+02 -0.75406792664E+00  0.35654011753E+02  0.15500000000E+01 0. -1.
         -4    1    3    3    0  501 -0.19343305084E+01 -0.35559749734E+02 -0.18396863458E+03  0.18739023039E+03  0.15500000000E+01 0. -1.
<mgrwt>
<rscale>  2 0.12500503E+03</rscale>
<asrwt>0</asrwt>
<pdfrwt beam="1">  1       21 0.29478108E-02 0.12500503E+03</pdfrwt>
<pdfrwt beam="2">  1       21 0.31366688E-01 0.12500503E+03</pdfrwt>
<totfact> 0.62504780E+06</totfact>
</mgrwt>
</event>
<event>
 5    0  0.1222151E+000  0.1250043E+03  0.7546771E-02  0.1235062E+00
         21   -1    0    0  503  502  0.00000000000E+00  0.00000000000E+00  0.58397665752E+03  0.58397665752E+03  0.00000000000E+00 0.  1.
         21   -1    0    0  502  503 -0.00000000000E+00 -0.00000000000E+00 -0.66895160594E+01  0.66895160594E+01  0.00000000000E+00 0.  1.
         25    2    1    2    0    0  0.00000000000E+00  0.00000000000E+00  0.57728714146E+03  0.59066617358E+03  0.12500433959E+03 0.  0.
          4    1    3    3  501    0 -0.33006936901E+02 -0.38790616016E+02  0.45966250531E+03  0.46247831416E+03  0.15500000000E+01 0. -1.
         -4    1    3    3    0  501  0.33006936901E+02  0.38790616016E+02  0.11762463615E+03  0.12818785942E+03  0.15500000000E+01 0. -1.
<mgrwt>
<rscale>  2 0.12500434E+03</rscale>
<asrwt>0</asrwt>
<pdfrwt beam="1">  1       21 0.89842522E-01 0.12500434E+03</pdfrwt>
<pdfrwt beam="2">  1       21 0.10291568E-02 0.12500434E+03</pdfrwt>
<totfact> 0.37514139E+06</totfact>
</mgrwt>
</event>
<event>
 5    0  0.1295229E+000  0.1250315E+03  0.7546771E-02  0.1235020E+00
         21   -1    0    0  503  502  0.00000000000E+00  0.00000000000E+00  0.85961604821E+01  0.85961604821E+01  0.00000000000E+00 0. -1.
         21   -1    0    0  502  503 -0.00000000000E+00 -0.00000000000E+00 -0.45464722435E+03  0.45464722435E+03  0.00000000000E+00 0. -1.
         25    2    1    2    0    0  0.00000000000E+00  0.00000000000E+00 -0.44605106386E+03  0.46324338483E+03  0.12503152408E+03 0.  0.
          4    1    3    3  501    0  0.56792889209E+02  0.10488007499E+02 -0.31151155509E+03  0.31682373968E+03  0.15500000000E+01 0. -1.
         -4    1    3    3    0  501 -0.56792889209E+02 -0.10488007499E+02 -0.13453950877E+03  0.14641964515E+03  0.15500000000E+01 0. -1.
<mgrwt>
<rscale>  2 0.12503152E+03</rscale>
<asrwt>0</asrwt>
<pdfrwt beam="1">  1       21 0.13224860E-02 0.12503152E+03</pdfrwt>
<pdfrwt beam="2">  1       21 0.69945737E-01 0.12503152E+03</pdfrwt>
<totfact> 0.44075625E+06</totfact>
</mgrwt>
</event>
<event>
 5    0  0.1394995E+000  0.1249997E+03  0.7546771E-02  0.1235070E+00
         21   -1    0    0  503  502  0.00000000000E+00  0.00000000000E+00  0.13254844992E+02  0.13254844992E+02  0.00000000000E+00 0. -1.
         21   -1    0    0  502  503 -0.00000000000E+00 -0.00000000000E+00 -0.29470195091E+03  0.29470195091E+03  0.00000000000E+00 0. -1.
         25    2    1    2    0    0  0.00000000000E+00  0.00000000000E+00 -0.28144710591E+03  0.30795679590E+03  0.12499965885E+03 0.  0.
          4    1    3    3  501    0  0.18449531560E+02 -0.23572146395E+02 -0.27583902175E+03  0.27746278979E+03  0.15500000000E+01 0. -1.
         -4    1    3    3    0  501 -0.18449531560E+02  0.23572146395E+02 -0.56080841677E+01  0.30494006108E+02  0.15500000000E+01 0. -1.
<mgrwt>
<rscale>  2 0.12499966E+03</rscale>
<asrwt>0</asrwt>
<pdfrwt beam="1">  1       21 0.20392069E-02 0.12499966E+03</pdfrwt>
<pdfrwt beam="2">  1       21 0.45338762E-01 0.12499966E+03</pdfrwt>
<totfact> 0.54801816E+06</totfact>
</mgrwt>
</event>
<event>
 5    0  0.1448843E+000  0.1249988E+03  0.7546771E-02  0.1235071E+00
         21   -1    0    0  503  502  0.00000000000E+00  0.00000000000E+00  0.17523123702E+02  0.17523123702E+02  0.00000000000E+00 0.  1.
         21   -1    0    0  502  503 -0.00000000000E+00 -0.00000000000E+00 -0.22291553820E+03  0.22291553820E+03  0.00000000000E+00 0.  1.
         25    2    1    2    0    0  0.00000000000E+00  0.00000000000E+00 -0.20539241450E+03  0.24043866191E+03  0.12499882481E+03 0.  0.
          4    1    3    3  501    0  0.36820733631E+02 -0.42756612411E+02 -0.51086862844E+02  0.76132544849E+02  0.15500000000E+01 0. -1.
         -4    1    3    3    0  501 -0.36820733631E+02  0.42756612411E+02 -0.15430555166E+03  0.16430611706E+03  0.15500000000E+01 0. -1.
<mgrwt>
<rscale>  2 0.12499882E+03</rscale>
<asrwt>0</asrwt>
<pdfrwt beam="1">  1       21 0.26958655E-02 0.12499882E+03</pdfrwt>
<pdfrwt beam="2">  1       21 0.34294694E-01 0.12499882E+03</pdfrwt>
<totfact> 0.60792045E+06</totfact>
</mgrwt>
</event>
<event>
 5    0  0.1295049E+000  0.1249838E+03  0.7546771E-02  0.1235095E+00
         21   -1    0    0  503  502  0.00000000000E+00  0.00000000000E+00  0.38006552314E+03  0.38006552314E+03  0.00000000000E+00 0.  1.
         21   -1    0    0  502  503 -0.00000000000E+00 -0.00000000000E+00 -0.10275175245E+02  0.10275175245E+02  0.00000000000E+00 0.  1.
         25    2    1    2    0    0  0.00000000000E+00  0.00000000000E+00  0.36979034789E+03  0.39034069838E+03  0.12498383663E+03 0.  0.
          4    1    3    3  501    0  0.55948377967E-01 -0.29184160456E+02  0.35740727165E+03  0.35860016548E+03  0.15500000000E+01 0.  1.
         -4    1    3    3    0  501 -0.55948377967E-01  0.29184160456E+02  0.12383076240E+02  0.31740532902E+02  0.15500000000E+01 0.  1.
<mgrwt>
<rscale>  2 0.12498384E+03</rscale>
<asrwt>0</asrwt>
<pdfrwt beam="1">  1       21 0.58471608E-01 0.12498384E+03</pdfrwt>
<pdfrwt beam="2">  1       21 0.15807965E-02 0.12498384E+03</pdfrwt>
<totfact> 0.48708398E+06</totfact>
</mgrwt>
</event>
<event>
 5    0  0.1222151E+000  0.1249823E+03  0.7546771E-02  0.1235097E+00
         21   -1    0    0  503  502  0.00000000000E+00  0.00000000000E+00  0.61762755372E+02  0.61762755372E+02  0.00000000000E+00 0.  1.
         21   -1    0    0  502  503 -0.00000000000E+00 -0.00000000000E+00 -0.63228086515E+02  0.63228086515E+02  0.00000000000E+00 0.  1.
         25    2    1    2    0    0  0.00000000000E+00  0.00000000000E+00 -0.14653311431E+01  0.12499084189E+03  0.12498225218E+03 0.  0.
          4    1    3    3  501    0 -0.20269308237E+02  0.40876963784E+01 -0.59687410242E+02  0.63186577368E+02  0.15500000000E+01 0. -1.
         -4    1    3    3    0  501  0.20269308237E+02 -0.40876963784E+01  0.58222079099E+02  0.61804264519E+02  0.15500000000E+01 0. -1.
<mgrwt>
<rscale>  2 0.12498225E+03</rscale>
<asrwt>0</asrwt>
<pdfrwt beam="1">  1       21 0.95019623E-02 0.12498225E+03</pdfrwt>
<pdfrwt beam="2">  1       21 0.97273980E-02 0.12498225E+03</pdfrwt>
<totfact> 0.74078427E+06</totfact>
</mgrwt>
</event>
<event>
 5    0  0.1496656E+000  0.1250034E+03  0.7546771E-02  0.1235064E+00
         21   -1    0    0  503  502  0.00000000000E+00  0.00000000000E+00  0.39569169994E+02  0.39569169994E+02  0.00000000000E+00 0. -1.
         21   -1    0    0  502  503 -0.00000000000E+00 -0.00000000000E+00 -0.98724911769E+02  0.98724911769E+02  0.00000000000E+00 0. -1.
         25    2    1    2    0    0  0.00000000000E+00  0.00000000000E+00 -0.59155741775E+02  0.13829408176E+03  0.12500340502E+03 0.  0.
          4    1    3    3  501    0 -0.42432933980E+02 -0.42414218534E+02 -0.48884403262E+02  0.77405472689E+02  0.15500000000E+01 0. -1.
         -4    1    3    3    0  501  0.42432933980E+02  0.42414218534E+02 -0.10271338514E+02  0.60888609073E+02  0.15500000000E+01 0. -1.
<mgrwt>
<rscale>  2 0.12500341E+03</rscale>
<asrwt>0</asrwt>
<pdfrwt beam="1">  1       21 0.60875646E-02 0.12500341E+03</pdfrwt>
<pdfrwt beam="2">  1       21 0.15188448E-01 0.12500341E+03</pdfrwt>
<totfact> 0.72256533E+06</totfact>
</mgrwt>
</event>
<event>
 5    0  0.1529937E+000  0.1249954E+03  0.7546771E-02  0.1235076E+00
         21   -1    0    0  503  502  0.00000000000E+00  0.00000000000E+00  0.41148913888E+02  0.41148913888E+02  0.00000000000E+00 0. -1.
         21   -1    0    0  502  503 -0.00000000000E+00 -0.00000000000E+00 -0.94922650482E+02  0.94922650482E+02  0.00000000000E+00 0. -1.
         25    2    1    2    0    0  0.00000000000E+00  0.00000000000E+00 -0.53773736593E+02  0.13607156437E+03  0.12499542345E+03 0.  0.
          4    1    3    3  501    0 -0.64255485108E+01  0.40097339319E+02 -0.78575637038E+02  0.88462520483E+02  0.15500000000E+01 0.  1.
         -4    1    3    3    0  501  0.64255485108E+01 -0.40097339319E+02  0.24801900445E+02  0.47609043887E+02  0.15500000000E+01 0.  1.
<mgrwt>
<rscale>  2 0.12499542E+03</rscale>
<asrwt>0</asrwt>
<pdfrwt beam="1">  1       21 0.63306022E-02 0.12499542E+03</pdfrwt>
<pdfrwt beam="2">  1       21 0.14603485E-01 0.12499542E+03</pdfrwt>
<totfact> 0.72563368E+06</totfact>
</mgrwt>
</event>
<event>
 5    0  0.1222151E+000  0.1250029E+03  0.7546771E-02  0.1235065E+00
         21   -1    0    0  503  502  0.00000000000E+00  0.00000000000E+00  0.72935587663E+03  0.72935587663E+03  0.00000000000E+00 0.  1.
         21   -1    0    0  502  503 -0.00000000000E+00 -0.00000000000E+00 -0.53560021083E+01  0.53560021083E+01  0.00000000000E+00 0.  1.
         25    2    1    2    0    0  0.00000000000E+00  0.00000000000E+00  0.72399987452E+03  0.73471187874E+03  0.12500290577E+03 0.  0.
          4    1    3    3  501    0 -0.24507687388E+02  0.57328733210E+02  0.38610417640E+03  0.39110874182E+03  0.15500000000E+01 0.  1.
         -4    1    3    3    0  501  0.24507687388E+02 -0.57328733210E+02  0.33789569812E+03  0.34360313692E+03  0.15500000000E+01 0.  1.
<mgrwt>
<rscale>  2 0.12500291E+03</rscale>
<asrwt>0</asrwt>
<pdfrwt beam="1">  1       21 0.11220852E+00 0.12500291E+03</pdfrwt>
<pdfrwt beam="2">  1       21 0.82400090E-03 0.12500291E+03</pdfrwt>
<totfact> 0.31611758E+06</totfact>
</mgrwt>
</event>
<event>
 5    0  0.1270403E+000  0.1249437E+03  0.7546771E-02  0.1235157E+00
         21   -1    0    0  503  502  0.00000000000E+00  0.00000000000E+00  0.21761451984E+02  0.21761451984E+02  0.00000000000E+00 0.  1.
         21   -1    0    0  502  503 -0.00000000000E+00 -0.00000000000E+00 -0.17934154659E+03  0.17934154659E+03  0.00000000000E+00 0.  1.
         25    2    1    2    0    0  0.00000000000E+00  0.00000000000E+00 -0.15758009460E+03  0.20110299857E+03  0.12494370660E+03 0.  0.
          4    1    3    3  501    0 -0.37038849018E+02  0.13036218345E+02 -0.62311295894E+00  0.39301527897E+02  0.15500000000E+01 0.  1.
         -4    1    3    3    0  501  0.37038849018E+02 -0.13036218345E+02 -0.15695698165E+03  0.16180147067E+03  0.15500000000E+01 0.  1.
<mgrwt>
<rscale>  2 0.12494371E+03</rscale>
<asrwt>0</asrwt>
<pdfrwt beam="1">  1       21 0.33479157E-02 0.12494371E+03</pdfrwt>
<pdfrwt beam="2">  1       21 0.27591007E-01 0.12494371E+03</pdfrwt>
<totfact> 0.64900366E+06</totfact>
</mgrwt>
</event>
<event>
 5    0  0.1402266E+000  0.1249989E+03  0.7546771E-02  0.1235071E+00
         21   -1    0    0  503  502  0.00000000000E+00  0.00000000000E+00  0.11501601152E+02  0.11501601152E+02  0.00000000000E+00 0. -1.
         21   -1    0    0  502  503 -0.00000000000E+00 -0.00000000000E+00 -0.33962060972E+03  0.33962060972E+03  0.00000000000E+00 0. -1.
         25    2    1    2    0    0  0.00000000000E+00  0.00000000000E+00 -0.32811900856E+03  0.35112221087E+03  0.12499889273E+03 0.  0.
          4    1    3    3  501    0 -0.33627037299E+02  0.80311136062E+01 -0.31024918129E+03  0.31217340280E+03  0.15500000000E+01 0.  1.
         -4    1    3    3    0  501  0.33627037299E+02 -0.80311136062E+01 -0.17869827273E+02  0.38948808070E+02  0.15500000000E+01 0.  1.
<mgrwt>
<rscale>  2 0.12499889E+03</rscale>
<asrwt>0</asrwt>
<pdfrwt beam="1">  1       21 0.17694768E-02 0.12499889E+03</pdfrwt>
<pdfrwt beam="2">  1       21 0.52249334E-01 0.12499889E+03</pdfrwt>
<totfact> 0.51457083E+06</totfact>
</mgrwt>
</event>
<event>
 5    0  0.1478590E+000  0.1249965E+03  0.7546771E-02  0.1235075E+00
         21   -1    0    0  503  502  0.00000000000E+00  0.00000000000E+00  0.67387021551E+02  0.67387021551E+02  0.00000000000E+00 0.  1.
         21   -1    0    0  502  503 -0.00000000000E+00 -0.00000000000E+00 -0.57964137533E+02  0.57964137533E+02  0.00000000000E+00 0.  1.
         25    2    1    2    0    0  0.00000000000E+00  0.00000000000E+00  0.94228840183E+01  0.12535115908E+03  0.12499648931E+03 0.  0.
          4    1    3    3  501    0 -0.18650691318E+02  0.34589565483E+02 -0.43999436906E+02  0.59013890526E+02  0.15500000000E+01 0.  1.
         -4    1    3    3    0  501  0.18650691318E+02 -0.34589565483E+02  0.53422320924E+02  0.66337268559E+02  0.15500000000E+01 0.  1.
<mgrwt>
<rscale>  2 0.12499649E+03</rscale>
<asrwt>0</asrwt>
<pdfrwt beam="1">  1       21 0.10367234E-01 0.12499649E+03</pdfrwt>
<pdfrwt beam="2">  1       21 0.89175596E-02 0.12499649E+03</pdfrwt>
<totfact> 0.74002807E+06</totfact>
</mgrwt>
</event>
<event>
 5    0  0.1351154E+000  0.1250018E+03  0.7546771E-02  0.1235067E+00
         21   -1    0    0  503  502  0.00000000000E+00  0.00000000000E+00  0.31393614263E+03  0.31393614263E+03  0.00000000000E+00 0.  1.
         21   -1    0    0  502  503 -0.00000000000E+00 -0.00000000000E+00 -0.12443169493E+02  0.12443169493E+02  0.00000000000E+00 0.  1.
         25    2    1    2    0    0  0.00000000000E+00  0.00000000000E+00  0.30149297313E+03  0.32637931212E+03  0.12500177011E+03 0.  0.
          4    1    3    3  501    0  0.15769397081E+02  0.20927260556E+02  0.26466650914E+01  0.26382408055E+02  0.15500000000E+01 0.  1.
         -4    1    3    3    0  501 -0.15769397081E+02 -0.20927260556E+02  0.29884630804E+03  0.29999690406E+03  0.15500000000E+01 0.  1.
<mgrwt>
<rscale>  2 0.12500177E+03</rscale>
<asrwt>0</asrwt>
<pdfrwt beam="1">  1       21 0.48297862E-01 0.12500177E+03</pdfrwt>
<pdfrwt beam="2">  1       21 0.19143340E-02 0.12500177E+03</pdfrwt>
<totfact> 0.53329290E+06</totfact>
</mgrwt>
</event>
<event>
 5    0  0.1222151E+000  0.1249955E+03  0.7546771E-02  0.1235076E+00
         21   -1    0    0  503  502  0.00000000000E+00  0.00000000000E+00  0.44031020862E+01  0.44031020862E+01  0.00000000000E+00 0. -1.
         21   -1    0    0  502  503 -0.00000000000E+00 -0.00000000000E+00 -0.88709478535E+03  0.88709478535E+03  0.00000000000E+00 0. -1.
         25    2    1    2    0    0  0.00000000000E+00  0.00000000000E+00 -0.88269168327E+03  0.89149788744E+03  0.12499550232E+03 0.  0.
          4    1    3    3  501    0  0.41623493675E+02  0.16806172292E+02 -0.75129920670E+03  0.75264059360E+03  0.15500000000E+01 0.  1.
         -4    1    3    3    0  501 -0.41623493675E+02 -0.16806172292E+02 -0.13139247657E+03  0.13885729383E+03  0.15500000000E+01 0.  1.
<mgrwt>
<rscale>  2 0.12499550E+03</rscale>
<asrwt>0</asrwt>
<pdfrwt beam="1">  1       21 0.67740027E-03 0.12499550E+03</pdfrwt>
<pdfrwt beam="2">  1       21 0.13647613E+00 0.12499550E+03</pdfrwt>
<totfact> 0.26547255E+06</totfact>
</mgrwt>
</event>
<event>
 5    0  0.1487271E+000  0.1250052E+03  0.7546771E-02  0.1235061E+00
         21   -1    0    0  503  502  0.00000000000E+00  0.00000000000E+00  0.15824941793E+02  0.15824941793E+02  0.00000000000E+00 0. -1.
         21   -1    0    0  502  503 -0.00000000000E+00 -0.00000000000E+00 -0.24686194885E+03  0.24686194885E+03  0.00000000000E+00 0. -1.
         25    2    1    2    0    0  0.00000000000E+00  0.00000000000E+00 -0.23103700706E+03  0.26268689064E+03  0.12500521543E+03 0.  0.
          4    1    3    3  501    0  0.85824971362E+01 -0.61850392724E+02 -0.11079938888E+03  0.12719291416E+03  0.15500000000E+01 0.  1.
         -4    1    3    3    0  501 -0.85824971362E+01  0.61850392724E+02 -0.12023761818E+03  0.13549397648E+03  0.15500000000E+01 0.  1.
<mgrwt>
<rscale>  2 0.12500522E+03</rscale>
<asrwt>0</asrwt>
<pdfrwt beam="1">  1       21 0.24346063E-02 0.12500522E+03</pdfrwt>
<pdfrwt beam="2">  1       21 0.37978763E-01 0.12500522E+03</pdfrwt>
<totfact> 0.58696163E+06</totfact>
</mgrwt>
</event>
<event>
 5    0  0.1468919E+000  0.1250002E+03  0.7546771E-02  0.1235069E+00
         21   -1    0    0  503  502  0.00000000000E+00  0.00000000000E+00  0.29248928218E+02  0.29248928218E+02  0.00000000000E+00 0.  1.
         21   -1    0    0  502  503 -0.00000000000E+00 -0.00000000000E+00 -0.13355235247E+03  0.13355235247E+03  0.00000000000E+00 0.  1.
         25    2    1    2    0    0  0.00000000000E+00  0.00000000000E+00 -0.10430342426E+03  0.16280128069E+03  0.12500021073E+03 0.  0.
          4    1    3    3  501    0  0.37661672390E+02 -0.66017797257E+01  0.12207221586E+02  0.40167198329E+02  0.15500000000E+01 0. -1.
         -4    1    3    3    0  501 -0.37661672390E+02  0.66017797257E+01 -0.11651064584E+03  0.12263408236E+03  0.15500000000E+01 0. -1.
<mgrwt>
<rscale>  2 0.12500021E+03</rscale>
<asrwt>0</asrwt>
<pdfrwt beam="1">  1       21 0.44998352E-02 0.12500021E+03</pdfrwt>
<pdfrwt beam="2">  1       21 0.20546516E-01 0.12500021E+03</pdfrwt>
<totfact> 0.69178449E+06</totfact>
</mgrwt>
</event>
<event>
 5    0  0.1637489E+000  0.1249995E+03  0.7546771E-02  0.1235070E+00
         21   -1    0    0  503  502  0.00000000000E+00  0.00000000000E+00  0.54656214413E+02  0.54656214413E+02  0.00000000000E+00 0.  1.
         21   -1    0    0  502  503 -0.00000000000E+00 -0.00000000000E+00 -0.71468849096E+02  0.71468849096E+02  0.00000000000E+00 0.  1.
         25    2    1    2    0    0  0.00000000000E+00  0.00000000000E+00 -0.16812634683E+02  0.12612506351E+03  0.12499946784E+03 0.  0.
          4    1    3    3  501    0  0.31672586562E+02  0.52082316634E+02 -0.22244544895E+02  0.64907185450E+02  0.15500000000E+01 0.  1.
         -4    1    3    3    0  501 -0.31672586562E+02 -0.52082316634E+02  0.54319102123E+01  0.61217878059E+02  0.15500000000E+01 0.  1.
<mgrwt>
<rscale>  2 0.12499947E+03</rscale>
<asrwt>0</asrwt>
<pdfrwt beam="1">  1       21 0.84086484E-02 0.12499947E+03</pdfrwt>
<pdfrwt beam="2">  1       21 0.10995208E-01 0.12499947E+03</pdfrwt>
<totfact> 0.73889817E+06</totfact>
</mgrwt>
</event>
<event>
 5    0  0.1505667E+000  0.1249923E+03  0.7546771E-02  0.1235081E+00
         21   -1    0    0  503  502  0.00000000000E+00  0.00000000000E+00  0.45831023067E+02  0.45831023067E+02  0.00000000000E+00 0. -1.
         21   -1    0    0  502  503 -0.00000000000E+00 -0.00000000000E+00 -0.85221001076E+02  0.85221001076E+02  0.00000000000E+00 0. -1.
         25    2    1    2    0    0  0.00000000000E+00  0.00000000000E+00 -0.39389978009E+02  0.13105202414E+03  0.12499225042E+03 0.  0.
          4    1    3    3  501    0 -0.46515701039E+02  0.24349580077E+02 -0.55200449333E+02  0.76197799178E+02  0.15500000000E+01 0. -1.
         -4    1    3    3    0  501  0.46515701039E+02 -0.24349580077E+02  0.15810471325E+02  0.54854224965E+02  0.15500000000E+01 0. -1.
<mgrwt>
<rscale>  2 0.12499225E+03</rscale>
<asrwt>0</asrwt>
<pdfrwt beam="1">  1       21 0.70509267E-02 0.12499225E+03</pdfrwt>
<pdfrwt beam="2">  1       21 0.13110923E-01 0.12499225E+03</pdfrwt>
<totfact> 0.73238140E+06</totfact>
</mgrwt>
</event>
<event>
 5    0  0.1305404E+000  0.1250104E+03  0.7546771E-02  0.1235053E+00
         21   -1    0    0  503  502  0.00000000000E+00  0.00000000000E+00  0.77250373940E+01  0.77250373940E+01  0.00000000000E+00 0. -1.
         21   -1    0    0  502  503 -0.00000000000E+00 -0.00000000000E+00 -0.50574533500E+03  0.50574533500E+03  0.00000000000E+00 0. -1.
         25    2    1    2    0    0  0.00000000000E+00  0.00000000000E+00 -0.49802029760E+03  0.51347037239E+03  0.12501042556E+03 0.  0.
          4    1    3    3  501    0 -0.34789618131E+02 -0.46065055920E+02 -0.34726186146E+03  0.35203055241E+03  0.15500000000E+01 0.  1.
         -4    1    3    3    0  501  0.34789618131E+02  0.46065055920E+02 -0.15075843614E+03  0.16143981998E+03  0.15500000000E+01 0.  1.
<mgrwt>
<rscale>  2 0.12501043E+03</rscale>
<asrwt>0</asrwt>
<pdfrwt beam="1">  1       21 0.11884676E-02 0.12501043E+03</pdfrwt>
<pdfrwt beam="2">  1       21 0.77806956E-01 0.12501043E+03</pdfrwt>
<totfact> 0.41312124E+06</totfact>
</mgrwt>
</event>
<event>
 5    0  0.1377385E+000  0.1249988E+03  0.7546771E-02  0.1235071E+00
         21   -1    0    0  503  502  0.00000000000E+00  0.00000000000E+00  0.17109170874E+02  0.17109170874E+02  0.00000000000E+00 0. -1.
         21   -1    0    0  502  503 -0.00000000000E+00 -0.00000000000E+00 -0.22830886906E+03  0.22830886906E+03  0.00000000000E+00 0. -1.
         25    2    1    2    0    0  0.00000000000E+00  0.00000000000E+00 -0.21119969818E+03  0.24541803993E+03  0.12499880724E+03 0.  0.
          4    1    3    3  501    0  0.44730878140E+02 -0.18315171538E+01 -0.20028589093E+02  0.49068857694E+02  0.15500000000E+01 0. -1.
         -4    1    3    3    0  501 -0.44730878140E+02  0.18315171538E+01 -0.19117110909E+03  0.19634918224E+03  0.15500000000E+01 0. -1.
<mgrwt>
<rscale>  2 0.12499881E+03</rscale>
<asrwt>0</asrwt>
<pdfrwt beam="1">  1       21 0.26321803E-02 0.12499881E+03</pdfrwt>
<pdfrwt beam="2">  1       21 0.35124439E-01 0.12499881E+03</pdfrwt>
<totfact> 0.60314091E+06</totfact>
</mgrwt>
</event>
<event>
 5    0  0.1464583E+000  0.1250318E+03  0.7546771E-02  0.1235020E+00
         21   -1    0    0  503  502  0.00000000000E+00  0.00000000000E+00  0.61976713074E+02  0.61976713074E+02  0.00000000000E+00 0. -1.
         21   -1    0    0  502  503 -0.00000000000E+00 -0.00000000000E+00 -0.63059759203E+02  0.63059759203E+02  0.00000000000E+00 0. -1.
         25    2    1    2    0    0  0.00000000000E+00  0.00000000000E+00 -0.10830461284E+01  0.12503647228E+03  0.12503178160E+03 0.  0.
          4    1    3    3  501    0  0.57300968883E+02 -0.64061014992E+01 -0.24654560102E+02  0.62727099448E+02  0.15500000000E+01 0. -1.
         -4    1    3    3    0  501 -0.57300968883E+02  0.64061014992E+01  0.23571513974E+02  0.62309372829E+02  0.15500000000E+01 0. -1.
<mgrwt>
<rscale>  2 0.12503178E+03</rscale>
<asrwt>0</asrwt>
<pdfrwt beam="1">  1       21 0.95348790E-02 0.12503178E+03</pdfrwt>
<pdfrwt beam="2">  1       21 0.97015014E-02 0.12503178E+03</pdfrwt>
<totfact> 0.73978526E+06</totfact>
</mgrwt>
</event>
<event>
 5    0  0.1222151E+000  0.1249930E+03  0.7546771E-02  0.1235080E+00
         21   -1    0    0  503  502  0.00000000000E+00  0.00000000000E+00  0.45749482076E+01  0.45749482076E+01  0.00000000000E+00 0.  1.
         21   -1    0    0  502  503 -0.00000000000E+00 -0.00000000000E+00 -0.85373884735E+03  0.85373884735E+03  0.00000000000E+00 0.  1.
         25    2    1    2    0    0  0.00000000000E+00  0.00000000000E+00 -0.84916389914E+03  0.85831379555E+03  0.12499297595E+03 0.  0.
          4    1    3    3  501    0 -0.41501336902E+02 -0.40278396529E+02 -0.58689340294E+03  0.58973805974E+03  0.15500000000E+01 0. -1.
         -4    1    3    3    0  501  0.41501336902E+02  0.40278396529E+02 -0.26227049620E+03  0.26857573581E+03  0.15500000000E+01 0. -1.
<mgrwt>
<rscale>  2 0.12499298E+03</rscale>
<asrwt>0</asrwt>
<pdfrwt beam="1">  1       21 0.70383823E-03 0.12499298E+03</pdfrwt>
<pdfrwt beam="2">  1       21 0.13134443E+00 0.12499298E+03</pdfrwt>
<totfact> 0.27524203E+06</totfact>
</mgrwt>
</event>
<event>
 5    0  0.1477628E+000  0.1250007E+03  0.7546771E-02  0.1235068E+00
         21   -1    0    0  503  502  0.00000000000E+00  0.00000000000E+00  0.13879278503E+03  0.13879278503E+03  0.00000000000E+00 0.  1.
         21   -1    0    0  502  503 -0.00000000000E+00 -0.00000000000E+00 -0.28144770881E+02  0.28144770881E+02  0.00000000000E+00 0.  1.
         25    2    1    2    0    0  0.00000000000E+00  0.00000000000E+00  0.11064801415E+03  0.16693755591E+03  0.12500065815E+03 0.  0.
          4    1    3    3  501    0  0.15372042088E+02 -0.44732204641E+02  0.80349921938E+00  0.47331996799E+02  0.15500000000E+01 0.  1.
         -4    1    3    3    0  501 -0.15372042088E+02  0.44732204641E+02  0.10984451493E+03  0.11960555911E+03  0.15500000000E+01 0.  1.
<mgrwt>
<rscale>  2 0.12500066E+03</rscale>
<asrwt>0</asrwt>
<pdfrwt beam="1">  1       21 0.21352736E-01 0.12500066E+03</pdfrwt>
<pdfrwt beam="2">  1       21 0.43299648E-02 0.12500066E+03</pdfrwt>
<totfact> 0.68680433E+06</totfact>
</mgrwt>
</event>
<event>
 5    0  0.1560365E+000  0.1250029E+03  0.7546771E-02  0.1235065E+00
         21   -1    0    0  503  502  0.00000000000E+00  0.00000000000E+00  0.46714321408E+02  0.46714321408E+02  0.00000000000E+00 0.  1.
         21   -1    0    0  502  503 -0.00000000000E+00 -0.00000000000E+00 -0.83623800215E+02  0.83623800215E+02  0.00000000000E+00 0.  1.
         25    2    1    2    0    0  0.00000000000E+00  0.00000000000E+00 -0.36909478807E+02  0.13033812162E+03  0.12500286526E+03 0.  0.
          4    1    3    3  501    0 -0.16205351836E+02  0.54942403655E+02 -0.44474707857E+02  0.72537461263E+02  0.15500000000E+01 0. -1.
         -4    1    3    3    0  501  0.16205351836E+02 -0.54942403655E+02  0.75652290499E+01  0.57800660360E+02  0.15500000000E+01 0. -1.
<mgrwt>
<rscale>  2 0.12500287E+03</rscale>
<asrwt>0</asrwt>
<pdfrwt beam="1">  1       21 0.71868187E-02 0.12500287E+03</pdfrwt>
<pdfrwt beam="2">  1       21 0.12865200E-01 0.12500287E+03</pdfrwt>
<totfact> 0.73314396E+06</totfact>
</mgrwt>
</event>
<event>
 4    0  0.1433868E+000  0.1251097E+03  0.7546771E-02  0.1234898E+00
         21   -1    0    0  503  502  0.00000000000E+00  0.00000000000E+00  0.28416358313E+02  0.28416358313E+02  0.00000000000E+00 0.  1.
         21   -1    0    0  502  503 -0.00000000000E+00 -0.00000000000E+00 -0.13770622478E+03  0.13770622478E+03  0.00000000000E+00 0.  1.
          4    1    1    2  501    0 -0.26417216400E+02  0.14104383250E+01 -0.12988472327E+03  0.13256056162E+03  0.15500000000E+01 0.  1.
         -4    1    1    2    0  501  0.26417216400E+02 -0.14104383250E+01  0.20594856802E+02  0.33562021472E+02  0.15500000000E+01 0.  1.
<mgrwt>
<rscale>  2 0.12510970E+03</rscale>
<asrwt>0</asrwt>
<pdfrwt beam="1">  1       21 0.43717475E-02 0.12510970E+03</pdfrwt>
<pdfrwt beam="2">  1       21 0.21185573E-01 0.12510970E+03</pdfrwt>
<totfact> 0.68587642E+06</totfact>
</mgrwt>
</event>
<event>
 5    0  0.1530713E+000  0.1249994E+03  0.7546771E-02  0.1235070E+00
         21   -1    0    0  503  502  0.00000000000E+00  0.00000000000E+00  0.52430890011E+02  0.52430890011E+02  0.00000000000E+00 0. -1.
         21   -1    0    0  502  503 -0.00000000000E+00 -0.00000000000E+00 -0.74502095639E+02  0.74502095639E+02  0.00000000000E+00 0. -1.
         25    2    1    2    0    0  0.00000000000E+00  0.00000000000E+00 -0.22071205628E+02  0.12693298565E+03  0.12499937891E+03 0.  0.
          4    1    3    3  501    0  0.41331373807E+02 -0.94352909590E+01  0.35571008497E+02  0.55362499237E+02  0.15500000000E+01 0.  1.
         -4    1    3    3    0  501 -0.41331373807E+02  0.94352909590E+01 -0.57642214125E+02  0.71570486414E+02  0.15500000000E+01 0.  1.
<mgrwt>
<rscale>  2 0.12499938E+03</rscale>
<asrwt>0</asrwt>
<pdfrwt beam="1">  1       21 0.80662908E-02 0.12499938E+03</pdfrwt>
<pdfrwt beam="2">  1       21 0.11461861E-01 0.12499938E+03</pdfrwt>
<totfact> 0.73779431E+06</totfact>
</mgrwt>
</event>
<event>
 5    0  0.1222151E+000  0.1250113E+03  0.7546771E-02  0.1235052E+00
         21   -1    0    0  503  502  0.00000000000E+00  0.00000000000E+00  0.49790362487E+01  0.49790362487E+01  0.00000000000E+00 0.  1.
         21   -1    0    0  502  503 -0.00000000000E+00 -0.00000000000E+00 -0.78468176066E+03  0.78468176066E+03  0.00000000000E+00 0.  1.
         25    2    1    2    0    0  0.00000000000E+00  0.00000000000E+00 -0.77970272441E+03  0.78966079691E+03  0.12501134237E+03 0.  0.
          4    1    3    3  501    0  0.87752469614E+01 -0.56968268365E+02 -0.54226199833E+03  0.54531904964E+03  0.15500000000E+01 0.  1.
         -4    1    3    3    0  501 -0.87752469614E+01  0.56968268365E+02 -0.23744072608E+03  0.24434174727E+03  0.15500000000E+01 0.  1.
<mgrwt>
<rscale>  2 0.12501134E+03</rscale>
<asrwt>0</asrwt>
<pdfrwt beam="1">  1       21 0.76600538E-03 0.12501134E+03</pdfrwt>
<pdfrwt beam="2">  1       21 0.12072030E+00 0.12501134E+03</pdfrwt>
<totfact> 0.29699907E+06</totfact>
</mgrwt>
</event>
<event>
 5    0  0.1546886E+000  0.1250031E+03  0.7546771E-02  0.1235065E+00
         21   -1    0    0  503  502  0.00000000000E+00  0.00000000000E+00  0.24164247532E+02  0.24164247532E+02  0.00000000000E+00 0.  1.
         21   -1    0    0  502  503 -0.00000000000E+00 -0.00000000000E+00 -0.16166202079E+03  0.16166202079E+03  0.00000000000E+00 0.  1.
         25    2    1    2    0    0  0.00000000000E+00  0.00000000000E+00 -0.13749777326E+03  0.18582626832E+03  0.12500305735E+03 0.  0.
          4    1    3    3  501    0 -0.58409846708E+02  0.65856557272E+01 -0.10024733074E+03  0.11621966647E+03  0.15500000000E+01 0. -1.
         -4    1    3    3    0  501  0.58409846708E+02 -0.65856557272E+01 -0.37250442519E+02  0.69606601853E+02  0.15500000000E+01 0. -1.
<mgrwt>
<rscale>  2 0.12500306E+03</rscale>
<asrwt>0</asrwt>
<pdfrwt beam="1">  1       21 0.37175765E-02 0.12500306E+03</pdfrwt>
<pdfrwt beam="2">  1       21 0.24871080E-01 0.12500306E+03</pdfrwt>
<totfact> 0.66484216E+06</totfact>
</mgrwt>
</event>
<event>
 5    0  0.1419237E+000  0.1250143E+03  0.7546771E-02  0.1235047E+00
         21   -1    0    0  503  502  0.00000000000E+00  0.00000000000E+00  0.94070334792E+01  0.94070334792E+01  0.00000000000E+00 0.  1.
         21   -1    0    0  502  503 -0.00000000000E+00 -0.00000000000E+00 -0.41534285398E+03  0.41534285398E+03  0.00000000000E+00 0.  1.
         25    2    1    2    0    0  0.00000000000E+00  0.00000000000E+00 -0.40593582050E+03  0.42474988746E+03  0.12501430531E+03 0.  0.
          4    1    3    3  501    0  0.27616217702E+02  0.50798515420E+02 -0.28348460598E+03  0.28932519589E+03  0.15500000000E+01 0. -1.
         -4    1    3    3    0  501 -0.27616217702E+02 -0.50798515420E+02 -0.12245121452E+03  0.13542469157E+03  0.15500000000E+01 0. -1.
<mgrwt>
<rscale>  2 0.12501431E+03</rscale>
<asrwt>0</asrwt>
<pdfrwt beam="1">  1       21 0.14472362E-02 0.12501431E+03</pdfrwt>
<pdfrwt beam="2">  1       21 0.63898889E-01 0.12501431E+03</pdfrwt>
<totfact> 0.46425325E+06</totfact>
</mgrwt>
</event>
<event>
 5    0  0.1496502E+000  0.1250003E+03  0.7546771E-02  0.1235069E+00
         21   -1    0    0  503  502  0.00000000000E+00  0.00000000000E+00  0.19260138867E+03  0.19260138867E+03  0.00000000000E+00 0.  1.
         21   -1    0    0  502  503 -0.00000000000E+00 -0.00000000000E+00 -0.20281610929E+02  0.20281610929E+02  0.00000000000E+00 0.  1.
         25    2    1    2    0    0  0.00000000000E+00  0.00000000000E+00  0.17231977774E+03  0.21288299960E+03  0.12500026287E+03 0.  0.
          4    1    3    3  501    0 -0.44696398119E+02 -0.29330189644E+02  0.31083960370E+02  0.61859866809E+02  0.15500000000E+01 0. -1.
         -4    1    3    3    0  501  0.44696398119E+02  0.29330189644E+02  0.14123581737E+03  0.15102313279E+03  0.15500000000E+01 0. -1.
<mgrwt>
<rscale>  2 0.12500026E+03</rscale>
<asrwt>0</asrwt>
<pdfrwt beam="1">  1       21 0.29630982E-01 0.12500026E+03</pdfrwt>
<pdfrwt beam="2">  1       21 0.31202480E-02 0.12500026E+03</pdfrwt>
<totfact> 0.63557060E+06</totfact>
</mgrwt>
</event>
<event>
 5    0  0.1509311E+000  0.1250063E+03  0.7546771E-02  0.1235059E+00
         21   -1    0    0  503  502  0.00000000000E+00  0.00000000000E+00  0.22729786785E+02  0.22729786785E+02  0.00000000000E+00 0. -1.
         21   -1    0    0  502  503 -0.00000000000E+00 -0.00000000000E+00 -0.17187343920E+03  0.17187343920E+03  0.00000000000E+00 0. -1.
         25    2    1    2    0    0  0.00000000000E+00  0.00000000000E+00 -0.14914365242E+03  0.19460322599E+03  0.12500634587E+03 0.  0.
          4    1    3    3  501    0 -0.59944343207E+02  0.52328460615E+01 -0.10078520316E+03  0.11739151007E+03  0.15500000000E+01 0.  1.
         -4    1    3    3    0  501  0.59944343207E+02 -0.52328460615E+01 -0.48358449256E+02  0.77211715917E+02  0.15500000000E+01 0.  1.
<mgrwt>
<rscale>  2 0.12500635E+03</rscale>
<asrwt>0</asrwt>
<pdfrwt beam="1">  1       21 0.34968902E-02 0.12500635E+03</pdfrwt>
<pdfrwt beam="2">  1       21 0.26442068E-01 0.12500635E+03</pdfrwt>
<totfact> 0.65503944E+06</totfact>
</mgrwt>
</event>
<event>
 5    0  0.1386570E+000  0.1249995E+03  0.7546771E-02  0.1235070E+00
         21   -1    0    0  503  502  0.00000000000E+00  0.00000000000E+00  0.72074081591E+01  0.72074081591E+01  0.00000000000E+00 0. -1.
         21   -1    0    0  502  503 -0.00000000000E+00 -0.00000000000E+00 -0.54197278014E+03  0.54197278014E+03  0.00000000000E+00 0. -1.
         25    2    1    2    0    0  0.00000000000E+00  0.00000000000E+00 -0.53476537198E+03  0.54918018830E+03  0.12499950460E+03 0.  0.
          4    1    3    3  501    0 -0.52212028892E+02  0.28850852387E+02 -0.34902881596E+03  0.35409318620E+03  0.15500000000E+01 0.  1.
         -4    1    3    3    0  501  0.52212028892E+02 -0.28850852387E+02 -0.18573655602E+03  0.19508700209E+03  0.15500000000E+01 0.  1.
<mgrwt>
<rscale>  2 0.12499950E+03</rscale>
<asrwt>0</asrwt>
<pdfrwt beam="1">  1       21 0.11088320E-02 0.12499950E+03</pdfrwt>
<pdfrwt beam="2">  1       21 0.83380428E-01 0.12499950E+03</pdfrwt>
<totfact> 0.39497100E+06</totfact>
</mgrwt>
</event>
<event>
 5    0  0.1362621E+000  0.1250004E+03  0.7546771E-02  0.1235069E+00
         21   -1    0    0  503  502  0.00000000000E+00  0.00000000000E+00  0.93720449640E+01  0.93720449640E+01  0.00000000000E+00 0.  1.
         21   -1    0    0  502  503 -0.00000000000E+00 -0.00000000000E+00 -0.41680071330E+03  0.41680071330E+03  0.00000000000E+00 0.  1.
         25    2    1    2    0    0  0.00000000000E+00  0.00000000000E+00 -0.40742866834E+03  0.42617275826E+03  0.12500040042E+03 0.  0.
          4    1    3    3  501    0 -0.45847211085E+02 -0.32315483494E+02 -0.10987203358E+03  0.12337148577E+03  0.15500000000E+01 0.  1.
         -4    1    3    3    0  501  0.45847211085E+02  0.32315483494E+02 -0.29755663475E+03  0.30280127249E+03  0.15500000000E+01 0.  1.
<mgrwt>
<rscale>  2 0.12500040E+03</rscale>
<asrwt>0</asrwt>
<pdfrwt beam="1">  1       21 0.14418524E-02 0.12500040E+03</pdfrwt>
<pdfrwt beam="2">  1       21 0.64123218E-01 0.12500040E+03</pdfrwt>
<totfact> 0.46351971E+06</totfact>
</mgrwt>
</event>
<event>
 5    0  0.1251771E+000  0.1249988E+03  0.7546771E-02  0.1235071E+00
         21   -1    0    0  503  502  0.00000000000E+00  0.00000000000E+00  0.65516019252E+03  0.65516019252E+03  0.00000000000E+00 0.  1.
         21   -1    0    0  502  503 -0.00000000000E+00 -0.00000000000E+00 -0.59621653925E+01  0.59621653925E+01  0.00000000000E+00 0.  1.
         25    2    1    2    0    0  0.00000000000E+00  0.00000000000E+00  0.64919802712E+03  0.66112235791E+03  0.12499877482E+03 0.  0.
          4    1    3    3  501    0 -0.40428888859E+02  0.47636540356E+02  0.32560107031E+03  0.33154516211E+03  0.15500000000E+01 0. -1.
         -4    1    3    3    0  501  0.40428888859E+02 -0.47636540356E+02  0.32359695681E+03  0.32957719580E+03  0.15500000000E+01 0. -1.
<mgrwt>
<rscale>  2 0.12499877E+03</rscale>
<asrwt>0</asrwt>
<pdfrwt beam="1">  1       21 0.10079382E+00 0.12499877E+03</pdfrwt>
<pdfrwt beam="2">  1       21 0.91725673E-03 0.12499877E+03</pdfrwt>
<totfact> 0.34464498E+06</totfact>
</mgrwt>
</event>
<event>
 5    0  0.1222151E+000  0.1249994E+03  0.7546771E-02  0.1235070E+00
         21   -1    0    0  503  502  0.00000000000E+00  0.00000000000E+00  0.28619895853E+04  0.28619895853E+04  0.00000000000E+00 0. -1.
         21   -1    0    0  502  503 -0.00000000000E+00 -0.00000000000E+00 -0.13648597438E+01  0.13648597438E+01  0.00000000000E+00 0. -1.
         25    2    1    2    0    0  0.00000000000E+00  0.00000000000E+00  0.28606247256E+04  0.28633544451E+04  0.12499942995E+03 0.  0.
          4    1    3    3  501    0 -0.38758452718E+02  0.26674155090E+02  0.23720310335E+04  0.23724981253E+04  0.15500000000E+01 0.  1.
         -4    1    3    3    0  501  0.38758452718E+02 -0.26674155090E+02  0.48859369213E+03  0.49085631980E+03  0.15500000000E+01 0.  1.
<mgrwt>
<rscale>  2 0.12499943E+03</rscale>
<asrwt>0</asrwt>
<pdfrwt beam="1">  1       21 0.44030129E+00 0.12499943E+03</pdfrwt>
<pdfrwt beam="2">  1       21 0.20998071E-03 0.12499943E+03</pdfrwt>
<totfact> 0.22218069E+05</totfact>
</mgrwt>
</event>
<event>
 5    0  0.1222151E+000  0.1250008E+03  0.7546771E-02  0.1235068E+00
         21   -1    0    0  503  502  0.00000000000E+00  0.00000000000E+00  0.14208767933E+04  0.14208767933E+04  0.00000000000E+00 0. -1.
         21   -1    0    0  502  503 -0.00000000000E+00 -0.00000000000E+00 -0.27492200564E+01  0.27492200564E+01  0.00000000000E+00 0. -1.
         25    2    1    2    0    0  0.00000000000E+00  0.00000000000E+00  0.14181275732E+04  0.14236260133E+04  0.12500084764E+03 0.  0.
          4    1    3    3  501    0  0.58765453418E+02 -0.19375973351E+02  0.61037121288E+03  0.61350161114E+03  0.15500000000E+01 0. -1.
         -4    1    3    3    0  501 -0.58765453418E+02  0.19375973351E+02  0.80775636034E+03  0.81012440220E+03  0.15500000000E+01 0. -1.
<mgrwt>
<rscale>  2 0.12500085E+03</rscale>
<asrwt>0</asrwt>
<pdfrwt beam="1">  1       21 0.21859584E+00 0.12500085E+03</pdfrwt>
<pdfrwt beam="2">  1       21 0.42295807E-03 0.12500085E+03</pdfrwt>
<totfact> 0.15164439E+06</totfact>
</mgrwt>
</event>
<event>
 5    0  0.1506571E+000  0.1249965E+03  0.7546771E-02  0.1235075E+00
         21   -1    0    0  503  502  0.00000000000E+00  0.00000000000E+00  0.92934790783E+02  0.92934790783E+02  0.00000000000E+00 0.  1.
         21   -1    0    0  502  503 -0.00000000000E+00 -0.00000000000E+00 -0.42029783125E+02  0.42029783125E+02  0.00000000000E+00 0.  1.
         25    2    1    2    0    0  0.00000000000E+00  0.00000000000E+00  0.50905007657E+02  0.13496457391E+03  0.12499646557E+03 0.  0.
          4    1    3    3  501    0  0.39677108540E+02 -0.43384599014E+02  0.48284246991E+02  0.76093806458E+02  0.15500000000E+01 0.  1.
         -4    1    3    3    0  501 -0.39677108540E+02  0.43384599014E+02  0.26207606657E+01  0.58870767450E+02  0.15500000000E+01 0.  1.
<mgrwt>
<rscale>  2 0.12499647E+03</rscale>
<asrwt>0</asrwt>
<pdfrwt beam="1">  1       21 0.14297660E-01 0.12499647E+03</pdfrwt>
<pdfrwt beam="2">  1       21 0.64661205E-02 0.12499647E+03</pdfrwt>
<totfact> 0.72707717E+06</totfact>
</mgrwt>
</event>
<event>
 5    0  0.1289443E+000  0.1250054E+03  0.7546771E-02  0.1235061E+00
         21   -1    0    0  503  502  0.00000000000E+00  0.00000000000E+00  0.48660747694E+01  0.48660747694E+01  0.00000000000E+00 0.  1.
         21   -1    0    0  502  503 -0.00000000000E+00 -0.00000000000E+00 -0.80282085364E+03  0.80282085364E+03  0.00000000000E+00 0.  1.
         25    2    1    2    0    0  0.00000000000E+00  0.00000000000E+00 -0.79795477887E+03  0.80768692841E+03  0.12500538069E+03 0.  0.
          4    1    3    3  501    0 -0.58970578125E+02 -0.27846625484E+01 -0.26673529484E+03  0.27319480860E+03  0.15500000000E+01 0.  1.
         -4    1    3    3    0  501  0.58970578125E+02  0.27846625484E+01 -0.53121948403E+03  0.53449211981E+03  0.15500000000E+01 0.  1.
<mgrwt>
<rscale>  2 0.12500538E+03</rscale>
<asrwt>0</asrwt>
<pdfrwt beam="1">  1       21 0.74862724E-03 0.12500538E+03</pdfrwt>
<pdfrwt beam="2">  1       21 0.12351084E+00 0.12500538E+03</pdfrwt>
<totfact> 0.29105838E+06</totfact>
</mgrwt>
</event>
<event>
 5    0  0.1636522E+000  0.1250041E+03  0.7546771E-02  0.1235063E+00
         21   -1    0    0  503  502  0.00000000000E+00  0.00000000000E+00  0.82153984928E+02  0.82153984928E+02  0.00000000000E+00 0.  1.
         21   -1    0    0  502  503 -0.00000000000E+00 -0.00000000000E+00 -0.47551007473E+02  0.47551007473E+02  0.00000000000E+00 0.  1.
         25    2    1    2    0    0  0.00000000000E+00  0.00000000000E+00  0.34602977455E+02  0.12970499240E+03  0.12500407595E+03 0.  0.
          4    1    3    3  501    0 -0.59762768343E+02  0.15938841880E+02  0.26492775028E+02  0.67304567372E+02  0.15500000000E+01 0.  1.
         -4    1    3    3    0  501  0.59762768343E+02 -0.15938841880E+02  0.81102024268E+01  0.62400425030E+02  0.15500000000E+01 0.  1.
<mgrwt>
<rscale>  2 0.12500408E+03</rscale>
<asrwt>0</asrwt>
<pdfrwt beam="1">  1       21 0.12639075E-01 0.12500408E+03</pdfrwt>
<pdfrwt beam="2">  1       21 0.73155396E-02 0.12500408E+03</pdfrwt>
<totfact> 0.73396731E+06</totfact>
</mgrwt>
</event>
<event>
 5    0  0.1325441E+000  0.1249979E+03  0.7546771E-02  0.1235073E+00
         21   -1    0    0  503  502  0.00000000000E+00  0.00000000000E+00  0.48257397721E+03  0.48257397721E+03  0.00000000000E+00 0.  1.
         21   -1    0    0  502  503 -0.00000000000E+00 -0.00000000000E+00 -0.80943420458E+01  0.80943420458E+01  0.00000000000E+00 0.  1.
         25    2    1    2    0    0  0.00000000000E+00  0.00000000000E+00  0.47447963516E+03  0.49066831926E+03  0.12499790133E+03 0.  0.
          4    1    3    3  501    0  0.34948305454E+02  0.25053224756E+02  0.41517267260E+03  0.41739645267E+03  0.15500000000E+01 0. -1.
         -4    1    3    3    0  501 -0.34948305454E+02 -0.25053224756E+02  0.59306962561E+02  0.73271866586E+02  0.15500000000E+01 0. -1.
<mgrwt>
<rscale>  2 0.12499790E+03</rscale>
<asrwt>0</asrwt>
<pdfrwt beam="1">  1       21 0.74242128E-01 0.12499790E+03</pdfrwt>
<pdfrwt beam="2">  1       21 0.12452838E-02 0.12499790E+03</pdfrwt>
<totfact> 0.42556945E+06</totfact>
</mgrwt>
</event>
<event>
 5    0  0.1222151E+000  0.1249985E+03  0.7546771E-02  0.1235072E+00
         21   -1    0    0  503  502  0.00000000000E+00  0.00000000000E+00  0.53740310767E+01  0.53740310767E+01  0.00000000000E+00 0. -1.
         21   -1    0    0  502  503 -0.00000000000E+00 -0.00000000000E+00 -0.72685748640E+03  0.72685748640E+03  0.00000000000E+00 0. -1.
         25    2    1    2    0    0  0.00000000000E+00  0.00000000000E+00 -0.72148345532E+03  0.73223151748E+03  0.12499847551E+03 0.  0.
          4    1    3    3  501    0  0.37920974654E+02 -0.27686899155E+02 -0.11927107478E+03  0.12818953344E+03  0.15500000000E+01 0. -1.
         -4    1    3    3    0  501 -0.37920974654E+02  0.27686899155E+02 -0.60221238055E+03  0.60404198404E+03  0.15500000000E+01 0. -1.
<mgrwt>
<rscale>  2 0.12499848E+03</rscale>
<asrwt>0</asrwt>
<pdfrwt beam="1">  1       21 0.82677354E-03 0.12499848E+03</pdfrwt>
<pdfrwt beam="2">  1       21 0.11182429E+00 0.12499848E+03</pdfrwt>
<totfact> 0.31705082E+06</totfact>
</mgrwt>
</event>
<event>
 5    0  0.1499388E+000  0.1250069E+03  0.7546771E-02  0.1235059E+00
         21   -1    0    0  503  502  0.00000000000E+00  0.00000000000E+00  0.27820421661E+02  0.27820421661E+02  0.00000000000E+00 0. -1.
         21   -1    0    0  502  503 -0.00000000000E+00 -0.00000000000E+00 -0.14042491268E+03  0.14042491268E+03  0.00000000000E+00 0. -1.
         25    2    1    2    0    0  0.00000000000E+00  0.00000000000E+00 -0.11260449102E+03  0.16824533435E+03  0.12500688433E+03 0.  0.
          4    1    3    3  501    0 -0.52158001041E+01  0.31821927738E+02 -0.12833480083E+03  0.13233315254E+03  0.15500000000E+01 0.  1.
         -4    1    3    3    0  501  0.52158001041E+01 -0.31821927738E+02  0.15730309808E+02  0.35912181810E+02  0.15500000000E+01 0.  1.
<mgrwt>
<rscale>  2 0.12500688E+03</rscale>
<asrwt>0</asrwt>
<pdfrwt beam="1">  1       21 0.42800647E-02 0.12500688E+03</pdfrwt>
<pdfrwt beam="2">  1       21 0.21603834E-01 0.12500688E+03</pdfrwt>
<totfact> 0.68513793E+06</totfact>
</mgrwt>
</event>
<event>
 5    0  0.1337379E+000  0.1249989E+03  0.7546771E-02  0.1235071E+00
         21   -1    0    0  503  502  0.00000000000E+00  0.00000000000E+00  0.88443274096E+01  0.88443274096E+01  0.00000000000E+00 0.  1.
         21   -1    0    0  502  503 -0.00000000000E+00 -0.00000000000E+00 -0.44165949383E+03  0.44165949383E+03  0.00000000000E+00 0.  1.
         25    2    1    2    0    0  0.00000000000E+00  0.00000000000E+00 -0.43281516642E+03  0.45050382124E+03  0.12499889867E+03 0.  0.
          4    1    3    3  501    0 -0.29030797939E+02  0.45105827251E+02 -0.33187578861E+03  0.33618635375E+03  0.15500000000E+01 0. -1.
         -4    1    3    3    0  501  0.29030797939E+02 -0.45105827251E+02 -0.10093937781E+03  0.11431746749E+03  0.15500000000E+01 0. -1.
<mgrwt>
<rscale>  2 0.12499890E+03</rscale>
<asrwt>0</asrwt>
<pdfrwt beam="1">  1       21 0.13606660E-02 0.12499890E+03</pdfrwt>
<pdfrwt beam="2">  1       21 0.67947602E-01 0.12499890E+03</pdfrwt>
<totfact> 0.44863374E+06</totfact>
</mgrwt>
</event>
<event>
 5    0  0.1745326E+000  0.1250017E+03  0.7546771E-02  0.1235067E+00
         21   -1    0    0  503  502  0.00000000000E+00  0.00000000000E+00  0.61304719067E+02  0.61304719067E+02  0.00000000000E+00 0. -1.
         21   -1    0    0  502  503 -0.00000000000E+00 -0.00000000000E+00 -0.63720343427E+02  0.63720343427E+02  0.00000000000E+00 0. -1.
         25    2    1    2    0    0  0.00000000000E+00  0.00000000000E+00 -0.24156243603E+01  0.12502506249E+03  0.12500172403E+03 0.  0.
          4    1    3    3  501    0 -0.61758570839E+02 -0.63946906628E+00  0.82504463959E+01  0.62329787088E+02  0.15500000000E+01 0. -1.
         -4    1    3    3    0  501  0.61758570839E+02  0.63946906628E+00 -0.10666070756E+02  0.62695275405E+02  0.15500000000E+01 0. -1.
<mgrwt>
<rscale>  2 0.12500172E+03</rscale>
<asrwt>0</asrwt>
<pdfrwt beam="1">  1       21 0.94314953E-02 0.12500172E+03</pdfrwt>
<pdfrwt beam="2">  1       21 0.98031297E-02 0.12500172E+03</pdfrwt>
<totfact> 0.74036933E+06</totfact>
</mgrwt>
</event>
<event>
 5    0  0.1344011E+000  0.1249973E+03  0.7546771E-02  0.1235074E+00
         21   -1    0    0  503  502  0.00000000000E+00  0.00000000000E+00  0.76797279611E+01  0.76797279611E+01  0.00000000000E+00 0.  1.
         21   -1    0    0  502  503 -0.00000000000E+00 -0.00000000000E+00 -0.50862230699E+03  0.50862230699E+03  0.00000000000E+00 0.  1.
         25    2    1    2    0    0  0.00000000000E+00  0.00000000000E+00 -0.50094257903E+03  0.51630203495E+03  0.12499729521E+03 0.  0.
          4    1    3    3  501    0 -0.39034568139E+02 -0.45785576343E+02 -0.32003836668E+03  0.32564854546E+03  0.15500000000E+01 0.  1.
         -4    1    3    3    0  501  0.39034568139E+02  0.45785576343E+02 -0.18090421235E+03  0.19065348949E+03  0.15500000000E+01 0.  1.
<mgrwt>
<rscale>  2 0.12499730E+03</rscale>
<asrwt>0</asrwt>
<pdfrwt beam="1">  1       21 0.11814963E-02 0.12499730E+03</pdfrwt>
<pdfrwt beam="2">  1       21 0.78249604E-01 0.12499730E+03</pdfrwt>
<totfact> 0.41176319E+06</totfact>
</mgrwt>
</event>
<event>
 5    0  0.1430889E+000  0.1250001E+03  0.7546771E-02  0.1235069E+00
         21   -1    0    0  503  502  0.00000000000E+00  0.00000000000E+00  0.14337583040E+02  0.14337583040E+02  0.00000000000E+00 0. -1.
         21   -1    0    0  502  503 -0.00000000000E+00 -0.00000000000E+00 -0.27244878842E+03  0.27244878842E+03  0.00000000000E+00 0. -1.
         25    2    1    2    0    0  0.00000000000E+00  0.00000000000E+00 -0.25811120538E+03  0.28678637146E+03  0.12500011405E+03 0.  0.
          4    1    3    3  501    0 -0.44222222095E+02 -0.25165485501E+02 -0.45859612313E+02  0.68515787444E+02  0.15500000000E+01 0.  1.
         -4    1    3    3    0  501  0.44222222095E+02  0.25165485501E+02 -0.21225159306E+03  0.21827058401E+03  0.15500000000E+01 0.  1.
<mgrwt>
<rscale>  2 0.12500011E+03</rscale>
<asrwt>0</asrwt>
<pdfrwt beam="1">  1       21 0.22057822E-02 0.12500011E+03</pdfrwt>
<pdfrwt beam="2">  1       21 0.41915194E-01 0.12500011E+03</pdfrwt>
<totfact> 0.56572311E+06</totfact>
</mgrwt>
</event>
<event>
 5    0  0.1455445E+000  0.1250300E+03  0.7546771E-02  0.1235022E+00
         21   -1    0    0  503  502  0.00000000000E+00  0.00000000000E+00  0.15857124100E+03  0.15857124100E+03  0.00000000000E+00 0. -1.
         21   -1    0    0  502  503 -0.00000000000E+00 -0.00000000000E+00 -0.24645874488E+02  0.24645874488E+02  0.00000000000E+00 0. -1.
         25    2    1    2    0    0  0.00000000000E+00  0.00000000000E+00  0.13392536652E+03  0.18321711549E+03  0.12503002684E+03 0.  0.
          4    1    3    3  501    0 -0.56773269133E+02 -0.91025177107E+01  0.10284709919E+03  0.11783882309E+03  0.15500000000E+01 0. -1.
         -4    1    3    3    0  501  0.56773269133E+02  0.91025177107E+01  0.31078267327E+02  0.65378292397E+02  0.15500000000E+01 0. -1.
<mgrwt>
<rscale>  2 0.12503003E+03</rscale>
<asrwt>0</asrwt>
<pdfrwt beam="1">  1       21 0.24395575E-01 0.12503003E+03</pdfrwt>
<pdfrwt beam="2">  1       21 0.37916731E-02 0.12503003E+03</pdfrwt>
<totfact> 0.66733560E+06</totfact>
</mgrwt>
</event>
<event>
 5    0  0.1471023E+000  0.1250022E+03  0.7546771E-02  0.1235066E+00
         21   -1    0    0  503  502  0.00000000000E+00  0.00000000000E+00  0.21044472240E+03  0.21044472240E+03  0.00000000000E+00 0. -1.
         21   -1    0    0  502  503 -0.00000000000E+00 -0.00000000000E+00 -0.18562542397E+02  0.18562542397E+02  0.00000000000E+00 0. -1.
         25    2    1    2    0    0  0.00000000000E+00  0.00000000000E+00  0.19188218001E+03  0.22900726480E+03  0.12500222529E+03 0.  0.
          4    1    3    3  501    0  0.20532363735E+02 -0.37174389684E+02  0.11977672791E+02  0.44151787669E+02  0.15500000000E+01 0.  1.
         -4    1    3    3    0  501 -0.20532363735E+02  0.37174389684E+02  0.17990450722E+03  0.18485547713E+03  0.15500000000E+01 0.  1.
<mgrwt>
<rscale>  2 0.12500223E+03</rscale>
<asrwt>0</asrwt>
<pdfrwt beam="1">  1       21 0.32376109E-01 0.12500223E+03</pdfrwt>
<pdfrwt beam="2">  1       21 0.28557759E-02 0.12500223E+03</pdfrwt>
<totfact> 0.61909436E+06</totfact>
</mgrwt>
</event>
<event>
 5    0  0.1354186E+000  0.1250016E+03  0.7546771E-02  0.1235067E+00
         21   -1    0    0  503  502  0.00000000000E+00  0.00000000000E+00  0.10896450681E+02  0.10896450681E+02  0.00000000000E+00 0.  1.
         21   -1    0    0  502  503 -0.00000000000E+00 -0.00000000000E+00 -0.35849746783E+03  0.35849746783E+03  0.00000000000E+00 0.  1.
         25    2    1    2    0    0  0.00000000000E+00  0.00000000000E+00 -0.34760101715E+03  0.36939391851E+03  0.12500159963E+03 0.  0.
          4    1    3    3  501    0 -0.92152243672E+01  0.43968909832E+02 -0.30212738413E+03  0.30545301461E+03  0.15500000000E+01 0.  1.
         -4    1    3    3    0  501  0.92152243672E+01 -0.43968909832E+02 -0.45473633022E+02  0.63940903905E+02  0.15500000000E+01 0.  1.
<mgrwt>
<rscale>  2 0.12500160E+03</rscale>
<asrwt>0</asrwt>
<pdfrwt beam="1">  1       21 0.16763772E-02 0.12500160E+03</pdfrwt>
<pdfrwt beam="2">  1       21 0.55153451E-01 0.12500160E+03</pdfrwt>
<totfact> 0.50135255E+06</totfact>
</mgrwt>
</event>
<event>
 5    0  0.1379023E+000  0.1250082E+03  0.7546771E-02  0.1235056E+00
         21   -1    0    0  503  502  0.00000000000E+00  0.00000000000E+00  0.11748177106E+02  0.11748177106E+02  0.00000000000E+00 0. -1.
         21   -1    0    0  502  503 -0.00000000000E+00 -0.00000000000E+00 -0.33254205561E+03  0.33254205561E+03  0.00000000000E+00 0. -1.
         25    2    1    2    0    0  0.00000000000E+00  0.00000000000E+00 -0.32079387850E+03  0.34429023271E+03  0.12500820716E+03 0.  0.
          4    1    3    3  501    0 -0.22209654616E+02  0.54927807780E+02 -0.10572688327E+03  0.12120606079E+03  0.15500000000E+01 0.  1.
         -4    1    3    3    0  501  0.22209654616E+02 -0.54927807780E+02 -0.21506699523E+03  0.22308417192E+03  0.15500000000E+01 0.  1.
<mgrwt>
<rscale>  2 0.12500821E+03</rscale>
<asrwt>0</asrwt>
<pdfrwt beam="1">  1       21 0.18074121E-02 0.12500821E+03</pdfrwt>
<pdfrwt beam="2">  1       21 0.51160309E-01 0.12500821E+03</pdfrwt>
<totfact> 0.51952216E+06</totfact>
</mgrwt>
</event>
<event>
 5    0  0.1650057E+000  0.1249999E+03  0.7546771E-02  0.1235069E+00
         21   -1    0    0  503  502  0.00000000000E+00  0.00000000000E+00  0.49558126464E+02  0.49558126464E+02  0.00000000000E+00 0. -1.
         21   -1    0    0  502  503 -0.00000000000E+00 -0.00000000000E+00 -0.78821472592E+02  0.78821472592E+02  0.00000000000E+00 0. -1.
         25    2    1    2    0    0  0.00000000000E+00  0.00000000000E+00 -0.29263346128E+02  0.12837959906E+03  0.12499991211E+03 0.  0.
          4    1    3    3  501    0  0.55218723588E+02 -0.29146472068E+02 -0.12285676104E+02  0.63655043838E+02  0.15500000000E+01 0.  1.
         -4    1    3    3    0  501 -0.55218723588E+02  0.29146472068E+02 -0.16977670024E+02  0.64724555218E+02  0.15500000000E+01 0.  1.
<mgrwt>
<rscale>  2 0.12499991E+03</rscale>
<asrwt>0</asrwt>
<pdfrwt beam="1">  1       21 0.76243272E-02 0.12499991E+03</pdfrwt>
<pdfrwt beam="2">  1       21 0.12126380E-01 0.12499991E+03</pdfrwt>
<totfact> 0.73582507E+06</totfact>
</mgrwt>
</event>
<event>
 5    0  0.1498661E+000  0.1249981E+03  0.7546771E-02  0.1235072E+00
         21   -1    0    0  503  502  0.00000000000E+00  0.00000000000E+00  0.22143052170E+03  0.22143052170E+03  0.00000000000E+00 0. -1.
         21   -1    0    0  502  503 -0.00000000000E+00 -0.00000000000E+00 -0.17640425507E+02  0.17640425507E+02  0.00000000000E+00 0. -1.
         25    2    1    2    0    0  0.00000000000E+00  0.00000000000E+00  0.20379009619E+03  0.23907094720E+03  0.12499805795E+03 0.  0.
          4    1    3    3  501    0  0.49547051233E+02 -0.22951938169E+02  0.15997078605E+03  0.16904069522E+03  0.15500000000E+01 0. -1.
         -4    1    3    3    0  501 -0.49547051233E+02  0.22951938169E+02  0.43819310137E+02  0.70030251981E+02  0.15500000000E+01 0. -1.
<mgrwt>
<rscale>  2 0.12499806E+03</rscale>
<asrwt>0</asrwt>
<pdfrwt beam="1">  1       21 0.34066232E-01 0.12499806E+03</pdfrwt>
<pdfrwt beam="2">  1       21 0.27139118E-02 0.12499806E+03</pdfrwt>
<totfact> 0.60925667E+06</totfact>
</mgrwt>
</event>
<event>
 5    0  0.1512295E+000  0.1249869E+03  0.7546771E-02  0.1235090E+00
         21   -1    0    0  503  502  0.00000000000E+00  0.00000000000E+00  0.26000502673E+02  0.26000502673E+02  0.00000000000E+00 0. -1.
         21   -1    0    0  502  503 -0.00000000000E+00 -0.00000000000E+00 -0.15020608056E+03  0.15020608056E+03  0.00000000000E+00 0. -1.
         25    2    1    2    0    0  0.00000000000E+00  0.00000000000E+00 -0.12420557789E+03  0.17620658324E+03  0.12498693691E+03 0.  0.
          4    1    3    3  501    0  0.61351284203E+01  0.50860099658E+02 -0.11691022725E+02  0.52568736434E+02  0.15500000000E+01 0. -1.
         -4    1    3    3    0  501 -0.61351284203E+01 -0.50860099658E+02 -0.11251455517E+03  0.12363784680E+03  0.15500000000E+01 0. -1.
<mgrwt>
<rscale>  2 0.12498694E+03</rscale>
<asrwt>0</asrwt>
<pdfrwt beam="1">  1       21 0.40000774E-02 0.12498694E+03</pdfrwt>
<pdfrwt beam="2">  1       21 0.23108628E-01 0.12498694E+03</pdfrwt>
<totfact> 0.67611799E+06</totfact>
</mgrwt>
</event>
<event>
 5    0  0.1239754E+000  0.1250003E+03  0.7546771E-02  0.1235069E+00
         21   -1    0    0  503  502  0.00000000000E+00  0.00000000000E+00  0.59379236741E+01  0.59379236741E+01  0.00000000000E+00 0. -1.
         21   -1    0    0  502  503 -0.00000000000E+00 -0.00000000000E+00 -0.65785141489E+03  0.65785141489E+03  0.00000000000E+00 0. -1.
         25    2    1    2    0    0  0.00000000000E+00  0.00000000000E+00 -0.65191349121E+03  0.66378933856E+03  0.12500034385E+03 0.  0.
          4    1    3    3  501    0  0.52847557532E+02 -0.30176944813E+02 -0.40112266110E+03  0.40571579225E+03  0.15500000000E+01 0. -1.
         -4    1    3    3    0  501 -0.52847557532E+02  0.30176944813E+02 -0.25079083012E+03  0.25807354631E+03  0.15500000000E+01 0. -1.
<mgrwt>
<rscale>  2 0.12500034E+03</rscale>
<asrwt>0</asrwt>
<pdfrwt beam="1">  1       21 0.91352661E-03 0.12500034E+03</pdfrwt>
<pdfrwt beam="2">  1       21 0.10120792E+00 0.12500034E+03</pdfrwt>
<totfact> 0.34353095E+06</totfact>
</mgrwt>
</event>
<event>
 5    0  0.1222151E+000  0.1249999E+03  0.7546771E-02  0.1235069E+00
         21   -1    0    0  503  502  0.00000000000E+00  0.00000000000E+00  0.29587714097E+01  0.29587714097E+01  0.00000000000E+00 0.  1.
         21   -1    0    0  502  503 -0.00000000000E+00 -0.00000000000E+00 -0.13202243058E+04  0.13202243058E+04  0.00000000000E+00 0.  1.
         25    2    1    2    0    0  0.00000000000E+00  0.00000000000E+00 -0.13172655344E+04  0.13231830773E+04  0.12499987089E+03 0.  0.
          4    1    3    3  501    0  0.25237399715E+02 -0.37176513677E+02 -0.11181960305E+04  0.11190995419E+04  0.15500000000E+01 0.  1.
         -4    1    3    3    0  501 -0.25237399715E+02  0.37176513677E+02 -0.19906950396E+03  0.20408353539E+03  0.15500000000E+01 0.  1.
<mgrwt>
<rscale>  2 0.12499987E+03</rscale>
<asrwt>0</asrwt>
<pdfrwt beam="1">  1       21 0.45519514E-03 0.12499987E+03</pdfrwt>
<pdfrwt beam="2">  1       21 0.20311164E+00 0.12499987E+03</pdfrwt>
<totfact> 0.16841191E+06</totfact>
</mgrwt>
</event>
<event>
 5    0  0.1536946E+000  0.1249984E+03  0.7546771E-02  0.1235072E+00
         21   -1    0    0  503  502  0.00000000000E+00  0.00000000000E+00  0.47411533356E+02  0.47411533356E+02  0.00000000000E+00 0. -1.
         21   -1    0    0  502  503 -0.00000000000E+00 -0.00000000000E+00 -0.82388186047E+02  0.82388186047E+02  0.00000000000E+00 0. -1.
         25    2    1    2    0    0  0.00000000000E+00  0.00000000000E+00 -0.34976652691E+02  0.12979971940E+03  0.12499840368E+03 0.  0.
          4    1    3    3  501    0 -0.20931897538E+02  0.37752945477E+02  0.29416579765E+02  0.52260567274E+02  0.15500000000E+01 0. -1.
         -4    1    3    3    0  501  0.20931897538E+02 -0.37752945477E+02 -0.64393232456E+02  0.77539152129E+02  0.15500000000E+01 0. -1.
<mgrwt>
<rscale>  2 0.12499840E+03</rscale>
<asrwt>0</asrwt>
<pdfrwt beam="1">  1       21 0.72940820E-02 0.12499840E+03</pdfrwt>
<pdfrwt beam="2">  1       21 0.12675106E-01 0.12499840E+03</pdfrwt>
<totfact> 0.73394685E+06</totfact>
</mgrwt>
</event>
<event>
 5    0  0.1467836E+000  0.1249910E+03  0.7546771E-02  0.1235083E+00
         21   -1    0    0  503  502  0.00000000000E+00  0.00000000000E+00  0.21397701038E+02  0.21397701038E+02  0.00000000000E+00 0.  1.
         21   -1    0    0  502  503 -0.00000000000E+00 -0.00000000000E+00 -0.18252823202E+03  0.18252823202E+03  0.00000000000E+00 0.  1.
         25    2    1    2    0    0  0.00000000000E+00  0.00000000000E+00 -0.16113053098E+03  0.20392593306E+03  0.12499095231E+03 0.  0.
          4    1    3    3  501    0 -0.56219219434E+02  0.26912867750E+02 -0.87559727124E+02  0.10748958740E+03  0.15500000000E+01 0.  1.
         -4    1    3    3    0  501  0.56219219434E+02 -0.26912867750E+02 -0.73570803855E+02  0.96436345660E+02  0.15500000000E+01 0.  1.
<mgrwt>
<rscale>  2 0.12499095E+03</rscale>
<asrwt>0</asrwt>
<pdfrwt beam="1">  1       21 0.32919542E-02 0.12499095E+03</pdfrwt>
<pdfrwt beam="2">  1       21 0.28081265E-01 0.12499095E+03</pdfrwt>
<totfact> 0.64519091E+06</totfact>
</mgrwt>
</event>
<event>
 5    0  0.1433746E+000  0.1250825E+03  0.7546771E-02  0.1234940E+00
         21   -1    0    0  503  502  0.00000000000E+00  0.00000000000E+00  0.37612155817E+02  0.37612155817E+02  0.00000000000E+00 0.  1.
         21   -1    0    0  502  503 -0.00000000000E+00 -0.00000000000E+00 -0.10399316287E+03  0.10399316287E+03  0.00000000000E+00 0.  1.
         25    2    1    2    0    0  0.00000000000E+00  0.00000000000E+00 -0.66381007057E+02  0.14160531869E+03  0.12508248552E+03 0.  0.
          4    1    3    3  501    0 -0.40511221327E+02  0.17940265634E+01 -0.87064773708E+02  0.96057560376E+02  0.15500000000E+01 0.  1.
         -4    1    3    3    0  501  0.40511221327E+02 -0.17940265634E+01  0.20683766651E+02  0.45547758315E+02  0.15500000000E+01 0.  1.
<mgrwt>
<rscale>  2 0.12508249E+03</rscale>
<asrwt>0</asrwt>
<pdfrwt beam="1">  1       21 0.57864857E-02 0.12508249E+03</pdfrwt>
<pdfrwt beam="2">  1       21 0.15998948E-01 0.12508249E+03</pdfrwt>
<totfact> 0.71679695E+06</totfact>
</mgrwt>
</event>
<event>
 5    0  0.1456480E+000  0.1249973E+03  0.7546771E-02  0.1235074E+00
         21   -1    0    0  503  502  0.00000000000E+00  0.00000000000E+00  0.44699418696E+03  0.44699418696E+03  0.00000000000E+00 0.  1.
         21   -1    0    0  502  503 -0.00000000000E+00 -0.00000000000E+00 -0.87385470671E+01  0.87385470671E+01  0.00000000000E+00 0.  1.
         25    2    1    2    0    0  0.00000000000E+00  0.00000000000E+00  0.43825563989E+03  0.45573273403E+03  0.12499727583E+03 0.  0.
          4    1    3    3  501    0  0.87228000092E+01 -0.61812043158E+02  0.20957759547E+03  0.21868238827E+03  0.15500000000E+01 0. -1.
         -4    1    3    3    0  501 -0.87228000092E+01  0.61812043158E+02  0.22867804443E+03  0.23705034575E+03  0.15500000000E+01 0. -1.
<mgrwt>
<rscale>  2 0.12499728E+03</rscale>
<asrwt>0</asrwt>
<pdfrwt beam="1">  1       21 0.68768319E-01 0.12499728E+03</pdfrwt>
<pdfrwt beam="2">  1       21 0.13443922E-02 0.12499728E+03</pdfrwt>
<totfact> 0.44554243E+06</totfact>
</mgrwt>
</event>
<event>
 5    0  0.1574097E+000  0.1250004E+03  0.7546771E-02  0.1235069E+00
         21   -1    0    0  503  502  0.00000000000E+00  0.00000000000E+00  0.33023852642E+02  0.33023852642E+02  0.00000000000E+00 0.  1.
         21   -1    0    0  502  503 -0.00000000000E+00 -0.00000000000E+00 -0.11828639619E+03  0.11828639619E+03  0.00000000000E+00 0.  1.
         25    2    1    2    0    0  0.00000000000E+00  0.00000000000E+00 -0.85262543544E+02  0.15131024883E+03  0.12500036027E+03 0.  0.
          4    1    3    3  501    0 -0.54318841225E+02 -0.29300779026E+02 -0.30845545970E+02  0.69013928809E+02  0.15500000000E+01 0.  1.
         -4    1    3    3    0  501  0.54318841225E+02  0.29300779026E+02 -0.54416997574E+02  0.82296320018E+02  0.15500000000E+01 0.  1.
<mgrwt>
<rscale>  2 0.12500036E+03</rscale>
<asrwt>0</asrwt>
<pdfrwt beam="1">  1       21 0.50805926E-02 0.12500036E+03</pdfrwt>
<pdfrwt beam="2">  1       21 0.18197907E-01 0.12500036E+03</pdfrwt>
<totfact> 0.70594348E+06</totfact>
</mgrwt>
</event>
<event>
 5    0  0.1381900E+000  0.1249675E+03  0.7546771E-02  0.1235120E+00
         21   -1    0    0  503  502  0.00000000000E+00  0.00000000000E+00  0.13208915805E+02  0.13208915805E+02  0.00000000000E+00 0. -1.
         21   -1    0    0  502  503 -0.00000000000E+00 -0.00000000000E+00 -0.29557472976E+03  0.29557472976E+03  0.00000000000E+00 0. -1.
         25    2    1    2    0    0  0.00000000000E+00  0.00000000000E+00 -0.28236581395E+03  0.30878364556E+03  0.12496754330E+03 0.  0.
          4    1    3    3  501    0 -0.22946804720E+02 -0.35740469437E+02 -0.28008661218E+02  0.50900143474E+02  0.15500000000E+01 0.  1.
         -4    1    3    3    0  501  0.22946804720E+02  0.35740469437E+02 -0.25435715273E+03  0.25788350209E+03  0.15500000000E+01 0.  1.
<mgrwt>
<rscale>  2 0.12496754E+03</rscale>
<asrwt>0</asrwt>
<pdfrwt beam="1">  1       21 0.20321409E-02 0.12496754E+03</pdfrwt>
<pdfrwt beam="2">  1       21 0.45473035E-01 0.12496754E+03</pdfrwt>
<totfact> 0.54778662E+06</totfact>
</mgrwt>
</event>
<event>
 5    0  0.1525525E+000  0.1249981E+03  0.7546771E-02  0.1235072E+00
         21   -1    0    0  503  502  0.00000000000E+00  0.00000000000E+00  0.25102676284E+02  0.25102676284E+02  0.00000000000E+00 0. -1.
         21   -1    0    0  502  503 -0.00000000000E+00 -0.00000000000E+00 -0.15560620660E+03  0.15560620660E+03  0.00000000000E+00 0. -1.
         25    2    1    2    0    0  0.00000000000E+00  0.00000000000E+00 -0.13050353031E+03  0.18070888288E+03  0.12499811570E+03 0.  0.
          4    1    3    3  501    0 -0.22965727989E+02 -0.28960233801E+02 -0.13807810230E+03  0.14294783887E+03  0.15500000000E+01 0. -1.
         -4    1    3    3    0  501  0.22965727989E+02  0.28960233801E+02  0.75745719853E+01  0.37761044009E+02  0.15500000000E+01 0. -1.
<mgrwt>
<rscale>  2 0.12499812E+03</rscale>
<asrwt>0</asrwt>
<pdfrwt beam="1">  1       21 0.38619502E-02 0.12499812E+03</pdfrwt>
<pdfrwt beam="2">  1       21 0.23939416E-01 0.12499812E+03</pdfrwt>
<totfact> 0.67073514E+06</totfact>
</mgrwt>
</event>
<event>
 5    0  0.1222151E+000  0.1249991E+03  0.7546771E-02  0.1235071E+00
         21   -1    0    0  503  502  0.00000000000E+00  0.00000000000E+00  0.80195842053E+03  0.80195842053E+03  0.00000000000E+00 0. -1.
         21   -1    0    0  502  503 -0.00000000000E+00 -0.00000000000E+00 -0.48708212383E+01  0.48708212383E+01  0.00000000000E+00 0. -1.
         25    2    1    2    0    0  0.00000000000E+00  0.00000000000E+00  0.79708759930E+03  0.80682924177E+03  0.12499913771E+03 0.  0.
          4    1    3    3  501    0  0.43953040587E+02 -0.35929481104E+02  0.23010312869E+03  0.23700769971E+03  0.15500000000E+01 0. -1.
         -4    1    3    3    0  501 -0.43953040587E+02  0.35929481104E+02  0.56698447061E+03  0.56982154206E+03  0.15500000000E+01 0. -1.
<mgrwt>
<rscale>  2 0.12499914E+03</rscale>
<asrwt>0</asrwt>
<pdfrwt beam="1">  1       21 0.12337811E+00 0.12499914E+03</pdfrwt>
<pdfrwt beam="2">  1       21 0.74935775E-03 0.12499914E+03</pdfrwt>
<totfact> 0.29138433E+06</totfact>
</mgrwt>
</event>
<event>
 5    0  0.1222151E+000  0.1249984E+03  0.7546771E-02  0.1235072E+00
         21   -1    0    0  503  502  0.00000000000E+00  0.00000000000E+00  0.37523400863E+01  0.37523400863E+01  0.00000000000E+00 0. -1.
         21   -1    0    0  502  503 -0.00000000000E+00 -0.00000000000E+00 -0.10409906210E+04  0.10409906210E+04  0.00000000000E+00 0. -1.
         25    2    1    2    0    0  0.00000000000E+00  0.00000000000E+00 -0.10372382809E+04  0.10447429611E+04  0.12499841338E+03 0.  0.
          4    1    3    3  501    0 -0.39899201855E+02 -0.29684046037E+01 -0.11752064200E+03  0.12415418450E+03  0.15500000000E+01 0. -1.
         -4    1    3    3    0  501  0.39899201855E+02  0.29684046037E+01 -0.91971763894E+03  0.92058877661E+03  0.15500000000E+01 0. -1.
<mgrwt>
<rscale>  2 0.12499841E+03</rscale>
<asrwt>0</asrwt>
<pdfrwt beam="1">  1       21 0.57728303E-03 0.12499841E+03</pdfrwt>
<pdfrwt beam="2">  1       21 0.16015242E+00 0.12499841E+03</pdfrwt>
<totfact> 0.22524849E+06</totfact>
</mgrwt>
</event>
<event>
 5    0  0.1343264E+000  0.1250134E+03  0.7546771E-02  0.1235048E+00
         21   -1    0    0  503  502  0.00000000000E+00  0.00000000000E+00  0.13976758326E+02  0.13976758326E+02  0.00000000000E+00 0. -1.
         21   -1    0    0  502  503 -0.00000000000E+00 -0.00000000000E+00 -0.27954179350E+03  0.27954179350E+03  0.00000000000E+00 0. -1.
         25    2    1    2    0    0  0.00000000000E+00  0.00000000000E+00 -0.26556503517E+03  0.29351855182E+03  0.12501340872E+03 0.  0.
          4    1    3    3  501    0 -0.92211268235E+01  0.24995529439E+02 -0.71729373691E-01  0.26687325024E+02  0.15500000000E+01 0. -1.
         -4    1    3    3    0  501  0.92211268235E+01 -0.24995529439E+02 -0.26549330580E+03  0.26683122680E+03  0.15500000000E+01 0. -1.
<mgrwt>
<rscale>  2 0.12501341E+03</rscale>
<asrwt>0</asrwt>
<pdfrwt beam="1">  1       21 0.21502707E-02 0.12501341E+03</pdfrwt>
<pdfrwt beam="2">  1       21 0.43006426E-01 0.12501341E+03</pdfrwt>
<totfact> 0.55980277E+06</totfact>
</mgrwt>
</event>
<event>
 5    0  0.1222151E+000  0.1249954E+03  0.7546771E-02  0.1235076E+00
         21   -1    0    0  503  502  0.00000000000E+00  0.00000000000E+00  0.73125462919E+03  0.73125462919E+03  0.00000000000E+00 0.  1.
         21   -1    0    0  502  503 -0.00000000000E+00 -0.00000000000E+00 -0.53414559051E+01  0.53414559051E+01  0.00000000000E+00 0.  1.
         25    2    1    2    0    0  0.00000000000E+00  0.00000000000E+00  0.72591317329E+03  0.73659608510E+03  0.12499542963E+03 0.  0.
          4    1    3    3  501    0 -0.41127497521E+02 -0.37959737830E+02  0.52660223202E+03  0.52957032207E+03  0.15500000000E+01 0. -1.
         -4    1    3    3    0  501  0.41127497521E+02  0.37959737830E+02  0.19931094127E+03  0.20702576303E+03  0.15500000000E+01 0. -1.
<mgrwt>
<rscale>  2 0.12499543E+03</rscale>
<asrwt>0</asrwt>
<pdfrwt beam="1">  1       21 0.11250063E+00 0.12499543E+03</pdfrwt>
<pdfrwt beam="2">  1       21 0.82176303E-03 0.12499543E+03</pdfrwt>
<totfact> 0.31549600E+06</totfact>
</mgrwt>
</event>
<event>
 5    0  0.1222151E+000  0.1250003E+03  0.7546771E-02  0.1235069E+00
         21   -1    0    0  503  502  0.00000000000E+00  0.00000000000E+00  0.49727970665E+01  0.49727970665E+01  0.00000000000E+00 0. -1.
         21   -1    0    0  502  503 -0.00000000000E+00 -0.00000000000E+00 -0.78552721425E+03  0.78552721425E+03  0.00000000000E+00 0. -1.
         25    2    1    2    0    0  0.00000000000E+00  0.00000000000E+00 -0.78055441719E+03  0.79050001132E+03  0.12500027883E+03 0.  0.
          4    1    3    3  501    0 -0.21061437936E+02  0.56833524327E+02 -0.29432100558E+03  0.30050106569E+03  0.15500000000E+01 0. -1.
         -4    1    3    3    0  501  0.21061437936E+02 -0.56833524327E+02 -0.48623341160E+03  0.48999894563E+03  0.15500000000E+01 0. -1.
<mgrwt>
<rscale>  2 0.12500028E+03</rscale>
<asrwt>0</asrwt>
<pdfrwt beam="1">  1       21 0.76504648E-03 0.12500028E+03</pdfrwt>
<pdfrwt beam="2">  1       21 0.12085022E+00 0.12500028E+03</pdfrwt>
<totfact> 0.29679825E+06</totfact>
</mgrwt>
</event>
<event>
 5    0  0.1222151E+000  0.1250027E+03  0.7546771E-02  0.1235065E+00
         21   -1    0    0  503  502  0.00000000000E+00  0.00000000000E+00  0.11316481652E+04  0.11316481652E+04  0.00000000000E+00 0.  1.
         21   -1    0    0  502  503 -0.00000000000E+00 -0.00000000000E+00 -0.34519719097E+01  0.34519719097E+01  0.00000000000E+00 0.  1.
         25    2    1    2    0    0  0.00000000000E+00  0.00000000000E+00  0.11281961933E+04  0.11351001371E+04  0.12500268282E+03 0.  0.
          4    1    3    3  501    0  0.34810597617E+02  0.11706213033E+02  0.10508247554E+03  0.11132628753E+03  0.15500000000E+01 0. -1.
         -4    1    3    3    0  501 -0.34810597617E+02 -0.11706213033E+02  0.10231137178E+04  0.10237738496E+04  0.15500000000E+01 0. -1.
<mgrwt>
<rscale>  2 0.12500268E+03</rscale>
<asrwt>0</asrwt>
<pdfrwt beam="1">  1       21 0.17409942E+00 0.12500268E+03</pdfrwt>
<pdfrwt beam="2">  1       21 0.53107350E-03 0.12500268E+03</pdfrwt>
<totfact> 0.20485207E+06</totfact>
</mgrwt>
</event>
<event>
 5    0  0.1470774E+000  0.1250058E+03  0.7546771E-02  0.1235060E+00
         21   -1    0    0  503  502  0.00000000000E+00  0.00000000000E+00  0.22919007331E+03  0.22919007331E+03  0.00000000000E+00 0.  1.
         21   -1    0    0  502  503 -0.00000000000E+00 -0.00000000000E+00 -0.17045283980E+02  0.17045283980E+02  0.00000000000E+00 0.  1.
         25    2    1    2    0    0  0.00000000000E+00  0.00000000000E+00  0.21214478933E+03  0.24623535729E+03  0.12500575803E+03 0.  0.
          4    1    3    3  501    0 -0.27197455448E+02  0.54628829554E+02  0.13251437108E+03  0.14589884044E+03  0.15500000000E+01 0. -1.
         -4    1    3    3    0  501  0.27197455448E+02 -0.54628829554E+02  0.79630418254E+02  0.10033651685E+03  0.15500000000E+01 0. -1.
<mgrwt>
<rscale>  2 0.12500576E+03</rscale>
<asrwt>0</asrwt>
<pdfrwt beam="1">  1       21 0.35260009E-01 0.12500576E+03</pdfrwt>
<pdfrwt beam="2">  1       21 0.26223515E-02 0.12500576E+03</pdfrwt>
<totfact> 0.60225703E+06</totfact>
</mgrwt>
</event>
<event>
 5    0  0.1282010E+000  0.1249953E+03  0.7546771E-02  0.1235077E+00
         21   -1    0    0  503  502  0.00000000000E+00  0.00000000000E+00  0.68343618234E+01  0.68343618234E+01  0.00000000000E+00 0. -1.
         21   -1    0    0  502  503 -0.00000000000E+00 -0.00000000000E+00 -0.57151755783E+03  0.57151755783E+03  0.00000000000E+00 0. -1.
         25    2    1    2    0    0  0.00000000000E+00  0.00000000000E+00 -0.56468319600E+03  0.57835191965E+03  0.12499532437E+03 0.  0.
          4    1    3    3  501    0 -0.16011840237E+02 -0.58789205020E+02 -0.34628879177E+03  0.35161183066E+03  0.15500000000E+01 0. -1.
         -4    1    3    3    0  501  0.16011840237E+02  0.58789205020E+02 -0.21839440424E+03  0.22674008899E+03  0.15500000000E+01 0. -1.
<mgrwt>
<rscale>  2 0.12499532E+03</rscale>
<asrwt>0</asrwt>
<pdfrwt beam="1">  1       21 0.10514396E-02 0.12499532E+03</pdfrwt>
<pdfrwt beam="2">  1       21 0.87925831E-01 0.12499532E+03</pdfrwt>
<totfact> 0.38094712E+06</totfact>
</mgrwt>
</event>
<event>
 5    0  0.1519854E+000  0.1249946E+03  0.7546771E-02  0.1235078E+00
         21   -1    0    0  503  502  0.00000000000E+00  0.00000000000E+00  0.20725055693E+02  0.20725055693E+02  0.00000000000E+00 0.  1.
         21   -1    0    0  502  503 -0.00000000000E+00 -0.00000000000E+00 -0.18846327167E+03  0.18846327167E+03  0.00000000000E+00 0.  1.
         25    2    1    2    0    0  0.00000000000E+00  0.00000000000E+00 -0.16773821598E+03  0.20918832736E+03  0.12499458871E+03 0.  0.
          4    1    3    3  501    0 -0.57902593504E+02 -0.10702927204E+02 -0.48913881382E+02  0.76565222373E+02  0.15500000000E+01 0.  1.
         -4    1    3    3    0  501  0.57902593504E+02  0.10702927204E+02 -0.11882433460E+03  0.13262310499E+03  0.15500000000E+01 0.  1.
<mgrwt>
<rscale>  2 0.12499459E+03</rscale>
<asrwt>0</asrwt>
<pdfrwt beam="1">  1       21 0.31884702E-02 0.12499459E+03</pdfrwt>
<pdfrwt beam="2">  1       21 0.28994349E-01 0.12499459E+03</pdfrwt>
<totfact> 0.63953788E+06</totfact>
</mgrwt>
</event>
<event>
 5    0  0.1500485E+000  0.1250014E+03  0.7546771E-02  0.1235067E+00
         21   -1    0    0  503  502  0.00000000000E+00  0.00000000000E+00  0.22983548801E+02  0.22983548801E+02  0.00000000000E+00 0.  1.
         21   -1    0    0  502  503 -0.00000000000E+00 -0.00000000000E+00 -0.16996221174E+03  0.16996221174E+03  0.00000000000E+00 0.  1.
         25    2    1    2    0    0  0.00000000000E+00  0.00000000000E+00 -0.14697866294E+03  0.19294576054E+03  0.12500135660E+03 0.  0.
          4    1    3    3  501    0 -0.44576119815E+02  0.31131320142E+02 -0.25970500637E+02  0.60274861716E+02  0.15500000000E+01 0.  1.
         -4    1    3    3    0  501  0.44576119815E+02 -0.31131320142E+02 -0.12100816230E+03  0.13267089883E+03  0.15500000000E+01 0.  1.
<mgrwt>
<rscale>  2 0.12500136E+03</rscale>
<asrwt>0</asrwt>
<pdfrwt beam="1">  1       21 0.35359307E-02 0.12500136E+03</pdfrwt>
<pdfrwt beam="2">  1       21 0.26148032E-01 0.12500136E+03</pdfrwt>
<totfact> 0.65694300E+06</totfact>
</mgrwt>
</event>
<event>
 5    0  0.1508157E+000  0.1250050E+03  0.7546771E-02  0.1235061E+00
         21   -1    0    0  503  502  0.00000000000E+00  0.00000000000E+00  0.14209677854E+03  0.14209677854E+03  0.00000000000E+00 0.  1.
         21   -1    0    0  502  503 -0.00000000000E+00 -0.00000000000E+00 -0.27492265146E+02  0.27492265146E+02  0.00000000000E+00 0.  1.
         25    2    1    2    0    0  0.00000000000E+00  0.00000000000E+00  0.11460451339E+03  0.16958904368E+03  0.12500499689E+03 0.  0.
          4    1    3    3  501    0  0.44650866366E+02  0.22811985156E+02  0.67210407986E+01  0.50612858281E+02  0.15500000000E+01 0. -1.
         -4    1    3    3    0  501 -0.44650866366E+02 -0.22811985156E+02  0.10788347260E+03  0.11897618540E+03  0.15500000000E+01 0. -1.
<mgrwt>
<rscale>  2 0.12500500E+03</rscale>
<asrwt>0</asrwt>
<pdfrwt beam="1">  1       21 0.21861042E-01 0.12500500E+03</pdfrwt>
<pdfrwt beam="2">  1       21 0.42295794E-02 0.12500500E+03</pdfrwt>
<totfact> 0.68357709E+06</totfact>
</mgrwt>
</event>
<event>
 5    0  0.1308575E+000  0.1249996E+03  0.7546771E-02  0.1235070E+00
         21   -1    0    0  503  502  0.00000000000E+00  0.00000000000E+00  0.58870327709E+03  0.58870327709E+03  0.00000000000E+00 0.  1.
         21   -1    0    0  502  503 -0.00000000000E+00 -0.00000000000E+00 -0.66353018010E+01  0.66353018010E+01  0.00000000000E+00 0.  1.
         25    2    1    2    0    0  0.00000000000E+00  0.00000000000E+00  0.58206797529E+03  0.59533857889E+03  0.12499958264E+03 0.  0.
          4    1    3    3  501    0 -0.43309896791E+02 -0.36324469766E+02  0.16425180363E+03  0.17371318821E+03  0.15500000000E+01 0. -1.
         -4    1    3    3    0  501  0.43309896791E+02  0.36324469766E+02  0.41781617166E+03  0.42162539067E+03  0.15500000000E+01 0. -1.
<mgrwt>
<rscale>  2 0.12499958E+03</rscale>
<asrwt>0</asrwt>
<pdfrwt beam="1">  1       21 0.90569694E-01 0.12499958E+03</pdfrwt>
<pdfrwt beam="2">  1       21 0.10208161E-02 0.12499958E+03</pdfrwt>
<totfact> 0.37304688E+06</totfact>
</mgrwt>
</event>
<event>
 5    0  0.1222151E+000  0.1250002E+03  0.7546771E-02  0.1235069E+00
         21   -1    0    0  503  502  0.00000000000E+00  0.00000000000E+00  0.33425731009E+01  0.33425731009E+01  0.00000000000E+00 0. -1.
         21   -1    0    0  502  503 -0.00000000000E+00 -0.00000000000E+00 -0.11686390101E+04  0.11686390101E+04  0.00000000000E+00 0. -1.
         25    2    1    2    0    0  0.00000000000E+00  0.00000000000E+00 -0.11652964370E+04  0.11719815832E+04  0.12500018112E+03 0.  0.
          4    1    3    3  501    0  0.19886651284E+01  0.53814674564E+02 -0.28558280494E+03  0.29061988054E+03  0.15500000000E+01 0.  1.
         -4    1    3    3    0  501 -0.19886651284E+01 -0.53814674564E+02 -0.87971363207E+03  0.88136170267E+03  0.15500000000E+01 0.  1.
<mgrwt>
<rscale>  2 0.12500018E+03</rscale>
<asrwt>0</asrwt>
<pdfrwt beam="1">  1       21 0.51424215E-03 0.12500018E+03</pdfrwt>
<pdfrwt beam="2">  1       21 0.17979057E+00 0.12500018E+03</pdfrwt>
<totfact> 0.19710763E+06</totfact>
</mgrwt>
</event>
<event>
 5    0  0.1459621E+000  0.1250158E+03  0.7546771E-02  0.1235045E+00
         21   -1    0    0  503  502  0.00000000000E+00  0.00000000000E+00  0.27327891192E+03  0.27327891192E+03  0.00000000000E+00 0.  1.
         21   -1    0    0  502  503 -0.00000000000E+00 -0.00000000000E+00 -0.14297621126E+02  0.14297621126E+02  0.00000000000E+00 0.  1.
         25    2    1    2    0    0  0.00000000000E+00  0.00000000000E+00  0.25898129080E+03  0.28757653305E+03  0.12501581251E+03 0.  0.
          4    1    3    3  501    0 -0.17454471054E+02 -0.49302185907E+02  0.20815597441E+03  0.21463148948E+03  0.15500000000E+01 0.  1.
         -4    1    3    3    0  501  0.17454471054E+02  0.49302185907E+02  0.50825316388E+02  0.72945043566E+02  0.15500000000E+01 0.  1.
<mgrwt>
<rscale>  2 0.12501581E+03</rscale>
<asrwt>0</asrwt>
<pdfrwt beam="1">  1       21 0.42042906E-01 0.12501581E+03</pdfrwt>
<pdfrwt beam="2">  1       21 0.21996342E-02 0.12501581E+03</pdfrwt>
<totfact> 0.56482220E+06</totfact>
</mgrwt>
</event>
<event>
 5    0  0.1464476E+000  0.1250031E+03  0.7546771E-02  0.1235064E+00
         21   -1    0    0  503  502  0.00000000000E+00  0.00000000000E+00  0.13479627561E+02  0.13479627561E+02  0.00000000000E+00 0.  1.
         21   -1    0    0  502  503 -0.00000000000E+00 -0.00000000000E+00 -0.28980373175E+03  0.28980373175E+03  0.00000000000E+00 0.  1.
         25    2    1    2    0    0  0.00000000000E+00  0.00000000000E+00 -0.27632410419E+03  0.30328335932E+03  0.12500314188E+03 0.  0.
          4    1    3    3  501    0 -0.34838329101E+02 -0.51588851264E+02 -0.12511341232E+03  0.13975295056E+03  0.15500000000E+01 0.  1.
         -4    1    3    3    0  501  0.34838329101E+02  0.51588851264E+02 -0.15121069187E+03  0.16353040875E+03  0.15500000000E+01 0.  1.
<mgrwt>
<rscale>  2 0.12500314E+03</rscale>
<asrwt>0</asrwt>
<pdfrwt beam="1">  1       21 0.20737891E-02 0.12500314E+03</pdfrwt>
<pdfrwt beam="2">  1       21 0.44585185E-01 0.12500314E+03</pdfrwt>
<totfact> 0.55180059E+06</totfact>
</mgrwt>
</event>
<event>
 5    0  0.1222151E+000  0.1250049E+03  0.7546771E-02  0.1235062E+00
         21   -1    0    0  503  502  0.00000000000E+00  0.00000000000E+00  0.11226881438E+04  0.11226881438E+04  0.00000000000E+00 0.  1.
         21   -1    0    0  502  503 -0.00000000000E+00 -0.00000000000E+00 -0.34796460288E+01  0.34796460288E+01  0.00000000000E+00 0.  1.
         25    2    1    2    0    0  0.00000000000E+00  0.00000000000E+00  0.11192084978E+04  0.11261677899E+04  0.12500491736E+03 0.  0.
          4    1    3    3  501    0  0.60497372162E+02  0.15986187488E+01  0.41955367970E+03  0.42389878541E+03  0.15500000000E+01 0. -1.
         -4    1    3    3    0  501 -0.60497372162E+02 -0.15986187488E+01  0.69965481811E+03  0.70226900446E+03  0.15500000000E+01 0. -1.
<mgrwt>
<rscale>  2 0.12500492E+03</rscale>
<asrwt>0</asrwt>
<pdfrwt beam="1">  1       21 0.17272096E+00 0.12500492E+03</pdfrwt>
<pdfrwt beam="2">  1       21 0.53533105E-03 0.12500492E+03</pdfrwt>
<totfact> 0.20676164E+06</totfact>
</mgrwt>
</event>
<event>
 5    0  0.1535012E+000  0.1250097E+03  0.7546771E-02  0.1235054E+00
         21   -1    0    0  503  502  0.00000000000E+00  0.00000000000E+00  0.23315075910E+02  0.23315075910E+02  0.00000000000E+00 0. -1.
         21   -1    0    0  502  503 -0.00000000000E+00 -0.00000000000E+00 -0.16756770550E+03  0.16756770550E+03  0.00000000000E+00 0. -1.
         25    2    1    2    0    0  0.00000000000E+00  0.00000000000E+00 -0.14425262959E+03  0.19088278141E+03  0.12500966001E+03 0.  0.
          4    1    3    3  501    0  0.14709250570E+02  0.44999433357E+02 -0.98550604915E+01  0.48382184449E+02  0.15500000000E+01 0.  1.
         -4    1    3    3    0  501 -0.14709250570E+02 -0.44999433357E+02 -0.13439756910E+03  0.14250059696E+03  0.15500000000E+01 0.  1.
<mgrwt>
<rscale>  2 0.12500966E+03</rscale>
<asrwt>0</asrwt>
<pdfrwt beam="1">  1       21 0.35869346E-02 0.12500966E+03</pdfrwt>
<pdfrwt beam="2">  1       21 0.25779648E-01 0.12500966E+03</pdfrwt>
<totfact> 0.65908350E+06</totfact>
</mgrwt>
</event>
<event>
 5    0  0.1222151E+000  0.1250031E+03  0.7546771E-02  0.1235064E+00
         21   -1    0    0  503  502  0.00000000000E+00  0.00000000000E+00  0.17368372623E+04  0.17368372623E+04  0.00000000000E+00 0. -1.
         21   -1    0    0  502  503 -0.00000000000E+00 -0.00000000000E+00 -0.22491716803E+01  0.22491716803E+01  0.00000000000E+00 0. -1.
         25    2    1    2    0    0  0.00000000000E+00  0.00000000000E+00  0.17345880906E+04  0.17390864340E+04  0.12500312290E+03 0.  0.
          4    1    3    3  501    0 -0.19389515207E+02 -0.39826895314E+02  0.14803704569E+04  0.14810338372E+04  0.15500000000E+01 0.  1.
         -4    1    3    3    0  501  0.19389515207E+02  0.39826895314E+02  0.25421763377E+03  0.25805259679E+03  0.15500000000E+01 0.  1.
<mgrwt>
<rscale>  2 0.12500312E+03</rscale>
<asrwt>0</asrwt>
<pdfrwt beam="1">  1       21 0.26720466E+00 0.12500312E+03</pdfrwt>
<pdfrwt beam="2">  1       21 0.34602780E-03 0.12500312E+03</pdfrwt>
<totfact> 0.10788362E+06</totfact>
</mgrwt>
</event>
