<event>
 5    1  0.8891499E-003  0.7991992E+02  0.7546771E-02  0.1463422E+00
          2   -1    0    0  502    0  0.00000000000E+00  0.00000000000E+00  0.25556077006E+04  0.25556077006E+04  0.00000000000E+00 0. -1.
          1   -1    0    0  501    0 -0.00000000000E+00 -0.00000000000E+00 -0.20235775621E+03  0.20235775621E+03  0.00000000000E+00 0. -1.
         25    1    1    2    0    0  0.61957084058E+02 -0.29193528391E+02  0.10305196098E+04  0.10403300479E+04  0.12500000000E+03 0.  0.
          2    1    1    2  501    0  0.20511940895E+02  0.18170465634E+02 -0.19535710531E+03  0.19726962294E+03  0.00000000000E+00 0. -1.
          1    1    1    2  502    0 -0.82469024952E+02  0.11023062757E+02  0.15180874399E+04  0.15203657859E+04  0.00000000000E+00 0. -1.
<mgrwt>
<rscale>  0 0.46797630E+02</rscale>
<asrwt>0</asrwt>
<pdfrwt beam="1">  1        2 0.39317039E+00 0.79919924E+02</pdfrwt>
<pdfrwt beam="2">  1        1 0.31131964E-01 0.27402656E+02</pdfrwt>
<totfact> 0.83042440E+01</totfact>
</mgrwt>
</event>
<event>
 5    1  0.8891499E-003  0.5670696E+02  0.7546771E-02  0.1511004E+00
          2   -1    0    0  502    0  0.00000000000E+00  0.00000000000E+00  0.87177770128E+03  0.87177770128E+03  0.00000000000E+00 0. -1.
          1   -1    0    0  501    0 -0.00000000000E+00 -0.00000000000E+00 -0.32802361757E+02  0.32802361757E+02  0.00000000000E+00 0. -1.
         25    1    1    2    0    0 -0.11980716690E+02  0.72567589208E+02  0.32735805841E+03  0.35804733065E+03  0.12500000000E+03 0.  0.
          2    1    1    2  501    0  0.21113745103E+02 -0.17908612474E+02 -0.39759392353E+01  0.27969925381E+02  0.00000000000E+00 0. -1.
          1    1    1    2  502    0 -0.91330284127E+01 -0.54658976734E+02  0.51559322035E+03  0.51856280701E+03  0.00000000000E+00 0. -1.
<mgrwt>
<rscale>  0 0.39623009E+02</rscale>
<asrwt>0</asrwt>
<pdfrwt beam="1">  1        2 0.13411963E+00 0.56706963E+02</pdfrwt>
<pdfrwt beam="2">  1        1 0.50465179E-02 0.27685892E+02</pdfrwt>
<totfact> 0.60389106E+03</totfact>
</mgrwt>
</event>
<event>
 5    1  0.8891499E-003  0.4897239E+02  0.7546771E-02  0.1493541E+00
          1   -1    0    0  501    0 -0.00000000000E+00  0.00000000000E+00  0.40176781605E+02  0.40176781605E+02  0.00000000000E+00 0. -1.
          2   -1    0    0  502    0  0.00000000000E+00 -0.00000000000E+00 -0.59045681781E+03  0.59045681781E+03  0.00000000000E+00 0. -1.
         25    1    1    2    0    0  0.62429570284E+02  0.48171951835E+02 -0.22677936922E+03  0.27068777308E+03  0.12500000000E+03 0.  0.
          2    1    1    2  501    0 -0.18915899216E+02 -0.30785179713E+02 -0.32421667404E+01  0.36277405892E+02  0.00000000000E+00 0. -1.
          1    1    1    2  502    0 -0.43513671068E+02 -0.17386772122E+02 -0.32025850025E+03  0.32366842045E+03  0.00000000000E+00 0. -1.
<mgrwt>
<rscale>  0 0.42065210E+02</rscale>
<asrwt>0</asrwt>
<pdfrwt beam="2">  1        2 0.90839503E-01 0.48972387E+02</pdfrwt>
<pdfrwt beam="1">  1        1 0.61810438E-02 0.36132237E+02</pdfrwt>
<totfact> 0.75360836E+03</totfact>
</mgrwt>
</event>
<event>
 5    1  0.8891499E-003  0.9517266E+02  0.7546771E-02  0.1474494E+00
         -2   -1    0    0    0  501 -0.00000000000E+00  0.00000000000E+00  0.20161317299E+03  0.20161317299E+03  0.00000000000E+00 0.  1.
          2   -1    0    0  502    0  0.00000000000E+00 -0.00000000000E+00 -0.13772650794E+03  0.13772650794E+03  0.00000000000E+00 0. -1.
         25    1    1    2    0    0  0.84332766296E+02 -0.88902217593E+01 -0.20700406586E+02  0.15246166189E+03  0.12500000000E+03 0.  0.
          1    1    1    2  502    0  0.12928882540E+02  0.16869459059E+02 -0.29746560027E+02  0.36559437716E+02  0.00000000000E+00 0. -1.
         -1    1    1    2    0  501 -0.97261648836E+02 -0.79792372993E+01  0.11433363166E+03  0.15031858132E+03  0.00000000000E+00 0.  1.
<mgrwt>
<rscale>  0 0.44975599E+02</rscale>
<asrwt>0</asrwt>
<pdfrwt beam="2">  1        2 0.21188694E-01 0.21254050E+02</pdfrwt>
<pdfrwt beam="1">  1       -2 0.31017411E-01 0.95172660E+02</pdfrwt>
<totfact> 0.22166640E+03</totfact>
</mgrwt>
</event>
<event>
 5    1  0.8891499E-003  0.1632662E+03  0.7546771E-02  0.1205916E+00
          2   -1    0    0  502    0  0.00000000000E+00  0.00000000000E+00  0.32237673901E+04  0.32237673901E+04  0.00000000000E+00 0. -1.
          1   -1    0    0  501    0 -0.00000000000E+00 -0.00000000000E+00 -0.36602828148E+03  0.36602828148E+03  0.00000000000E+00 0. -1.
         25    1    1    2    0    0  0.69324198092E+02  0.89784439172E+02  0.88175147370E+03  0.89776263640E+03  0.12500000000E+03 0.  0.
          2    1    1    2  501    0 -0.16524064373E+03 -0.21189273070E+01 -0.33703220034E+03  0.37536604036E+03  0.00000000000E+00 0. -1.
          1    1    1    2  502    0  0.95916445636E+02 -0.87665511865E+02  0.23130198353E+04  0.23166669948E+04  0.00000000000E+00 0. -1.
<mgrwt>
<rscale>  0 0.14565479E+03</rscale>
<asrwt>0</asrwt>
<pdfrwt beam="1">  1        2 0.49596420E+00 0.12994309E+03</pdfrwt>
<pdfrwt beam="2">  1        1 0.56312045E-01 0.16326622E+03</pdfrwt>
<totfact> 0.16073078E+01</totfact>
</mgrwt>
</event>
<event>
 5    1  0.8891499E-003  0.8344720E+02  0.7546771E-02  0.1375029E+00
          2   -1    0    0  502    0  0.00000000000E+00  0.00000000000E+00  0.76198660964E+03  0.76198660964E+03  0.00000000000E+00 0. -1.
         -2   -1    0    0    0  501 -0.00000000000E+00 -0.00000000000E+00 -0.17095696180E+03  0.17095696180E+03  0.00000000000E+00 0.  1.
         25    1    1    2    0    0 -0.10179825795E+02  0.61944893909E+02  0.34677137856E+03  0.37392002851E+03  0.12500000000E+03 0.  0.
          1    1    1    2  502    0 -0.51682964281E+02 -0.43631549492E+01  0.38844553420E+03  0.39189296875E+03  0.00000000000E+00 0. -1.
         -1    1    1    2    0  501  0.61862790076E+02 -0.57581738959E+02 -0.14418726492E+03  0.16713057417E+03  0.00000000000E+00 0.  1.
<mgrwt>
<rscale>  0 0.65788603E+02</rscale>
<asrwt>0</asrwt>
<pdfrwt beam="1">  1        2 0.11722871E+00 0.51866809E+02</pdfrwt>
<pdfrwt beam="2">  1       -2 0.26301072E-01 0.83447204E+02</pdfrwt>
<totfact> 0.50802942E+02</totfact>
</mgrwt>
</event>
<event>
 5    1  0.8891499E-003  0.6311050E+02  0.7546771E-02  0.1517592E+00
          1   -1    0    0  502    0  0.00000000000E+00  0.00000000000E+00  0.48895771440E+03  0.48895771440E+03  0.00000000000E+00 0. -1.
         -1   -1    0    0    0  501 -0.00000000000E+00 -0.00000000000E+00 -0.30644977175E+02  0.30644977175E+02  0.00000000000E+00 0.  1.
         25    1    1    2    0    0 -0.23699599657E+02 -0.43124717421E+02  0.18916575627E+03  0.23201313674E+03  0.12500000000E+03 0.  0.
          2    1    1    2  502    0  0.47243087117E+02  0.46585753975E+02  0.24444743682E+03  0.25329171151E+03  0.00000000000E+00 0. -1.
         -2    1    1    2    0  501 -0.23543487460E+02 -0.34610365547E+01  0.24699544143E+02  0.34297843324E+02  0.00000000000E+00 0.  1.
<mgrwt>
<rscale>  0 0.38753200E+02</rscale>
<asrwt>0</asrwt>
<pdfrwt beam="1">  1        1 0.75224258E-01 0.63110497E+02</pdfrwt>
<pdfrwt beam="2">  1       -1 0.47146122E-02 0.23796524E+02</pdfrwt>
<totfact> 0.71293213E+03</totfact>
</mgrwt>
</event>
<event>
 5    1  0.8891499E-003  0.1539897E+03  0.7546771E-02  0.1285626E+00
          2   -1    0    0  502    0  0.00000000000E+00  0.00000000000E+00  0.28868178017E+03  0.28868178017E+03  0.00000000000E+00 0. -1.
          1   -1    0    0  501    0 -0.00000000000E+00 -0.00000000000E+00 -0.84199120300E+03  0.84199120300E+03  0.00000000000E+00 0. -1.
         25    1    1    2    0    0 -0.50371320238E+02  0.16004234816E+03 -0.33569083646E+03  0.39555550911E+03  0.12500000000E+03 0.  0.
          2    1    1    2  501    0  0.95473289676E+02 -0.11787621407E+03 -0.46032840430E+03  0.48467740889E+03  0.00000000000E+00 0. -1.
          1    1    1    2  502    0 -0.45101969438E+02 -0.42166134097E+02  0.24270981793E+03  0.25044006515E+03  0.00000000000E+00 0. -1.
<mgrwt>
<rscale>  0 0.97507687E+02</rscale>
<asrwt>0</asrwt>
<pdfrwt beam="1">  1        2 0.44412581E-01 0.61742777E+02</pdfrwt>
<pdfrwt beam="2">  1        1 0.12953711E+00 0.15398966E+03</pdfrwt>
<totfact> 0.33721745E+02</totfact>
</mgrwt>
</event>
<event>
 5    1  0.8891499E-003  0.5003794E+02  0.7546771E-02  0.1491816E+00
          2   -1    0    0  502    0  0.00000000000E+00  0.00000000000E+00  0.50241918925E+02  0.50241918925E+02  0.00000000000E+00 0. -1.
          1   -1    0    0  501    0 -0.00000000000E+00 -0.00000000000E+00 -0.46850978106E+03  0.46850978106E+03  0.00000000000E+00 0. -1.
         25    1    1    2    0    0 -0.30632879931E+02  0.50369121687E+02 -0.30581634171E+03  0.33559507834E+03  0.12500000000E+03 0.  0.
          2    1    1    2  501    0  0.35785826187E+02 -0.45521049089E+00 -0.12616048593E+03  0.13113847941E+03  0.00000000000E+00 0. -1.
          1    1    1    2  502    0 -0.51529462556E+01 -0.49913911196E+02  0.13708965503E+02  0.52018142231E+02  0.00000000000E+00 0. -1.
<mgrwt>
<rscale>  0 0.42317772E+02</rscale>
<asrwt>0</asrwt>
<pdfrwt beam="1">  1        2 0.77295265E-02 0.50037937E+02</pdfrwt>
<pdfrwt beam="2">  1        1 0.72078423E-01 0.35788721E+02</pdfrwt>
<totfact> 0.54573719E+03</totfact>
</mgrwt>
</event>
<event>
 5    1  0.8891499E-003  0.7407108E+02  0.7546771E-02  0.1484633E+00
         -2   -1    0    0    0  501 -0.00000000000E+00  0.00000000000E+00  0.14858490075E+03  0.14858490075E+03  0.00000000000E+00 0.  1.
          2   -1    0    0  502    0  0.00000000000E+00 -0.00000000000E+00 -0.11213121260E+03  0.11213121260E+03  0.00000000000E+00 0. -1.
         25    1    1    2    0    0 -0.52086557173E+02  0.48683058709E+02  0.36464238612E+02  0.14845096948E+03  0.12500000000E+03 0.  0.
          1    1    1    2  502    0 -0.18326738300E+02 -0.17616244607E+02 -0.20461154283E+02  0.32632196453E+02  0.00000000000E+00 0. -1.
         -1    1    1    2    0  501  0.70413295473E+02 -0.31066814102E+02  0.20450603817E+02  0.79632947416E+02  0.00000000000E+00 0.  1.
<mgrwt>
<rscale>  0 0.43392665E+02</rscale>
<asrwt>0</asrwt>
<pdfrwt beam="2">  1        2 0.17250956E-01 0.25420492E+02</pdfrwt>
<pdfrwt beam="1">  1       -2 0.22859216E-01 0.74071082E+02</pdfrwt>
<totfact> 0.47195455E+03</totfact>
</mgrwt>
</event>
<event>
 5    1  0.8891499E-003  0.1553822E+03  0.7546771E-02  0.1271550E+00
          2   -1    0    0  502    0  0.00000000000E+00  0.00000000000E+00  0.66037999539E+03  0.66037999539E+03  0.00000000000E+00 0. -1.
          1   -1    0    0  501    0 -0.00000000000E+00 -0.00000000000E+00 -0.29773137899E+03  0.29773137899E+03  0.00000000000E+00 0. -1.
         25    1    1    2    0    0 -0.19234861598E+01  0.14793162906E+03  0.24295578627E+03  0.31070883598E+03  0.12500000000E+03 0.  0.
          2    1    1    2  501    0  0.69959910630E+02  0.17104945591E+01 -0.24103356153E+03  0.25098703686E+03  0.00000000000E+00 0. -1.
          1    1    1    2  502    0 -0.68036424471E+02 -0.14964212362E+03  0.36072639166E+03  0.39641550154E+03  0.00000000000E+00 0. -1.
<mgrwt>
<rscale>  0 0.10427739E+03</rscale>
<asrwt>0</asrwt>
<pdfrwt beam="1">  1        2 0.10159692E+00 0.15538221E+03</pdfrwt>
<pdfrwt beam="2">  1        1 0.45804828E-01 0.69980818E+02</pdfrwt>
<totfact> 0.55180560E+02</totfact>
</mgrwt>
</event>
<event>
 5    1  0.8891499E-003  0.2761306E+02  0.7546771E-02  0.1678562E+00
         -1   -1    0    0    0  501 -0.00000000000E+00  0.00000000000E+00  0.21389839877E+02  0.21389839877E+02  0.00000000000E+00 0.  1.
          1   -1    0    0  502    0  0.00000000000E+00 -0.00000000000E+00 -0.28699647407E+04  0.28699647407E+04  0.00000000000E+00 0. -1.
         25    1    1    2    0    0 -0.40306048459E+02 -0.23591244907E+02 -0.25159832438E+04  0.25195193604E+04  0.12500000000E+03 0.  0.
          2    1    1    2  502    0  0.19907973260E+02  0.50842950562E+01 -0.34208578894E+03  0.34270229711E+03  0.00000000000E+00 0. -1.
         -2    1    1    2    0  501  0.20398075199E+02  0.18506949851E+02  0.94941319190E+01  0.29132923051E+02  0.00000000000E+00 0.  1.
<mgrwt>
<rscale>  0 0.23819414E+02</rscale>
<asrwt>0</asrwt>
<pdfrwt beam="2">  1        1 0.44153273E+00 0.20546957E+02</pdfrwt>
<pdfrwt beam="1">  1       -1 0.32907469E-02 0.27613065E+02</pdfrwt>
<totfact> 0.35194384E+02</totfact>
</mgrwt>
</event>
<event>
 5    1  0.8891499E-003  0.7623792E+02  0.7546771E-02  0.1473769E+00
         -1   -1    0    0    0  501 -0.00000000000E+00  0.00000000000E+00  0.70437706437E+02  0.70437706437E+02  0.00000000000E+00 0.  1.
          1   -1    0    0  502    0  0.00000000000E+00 -0.00000000000E+00 -0.21221959806E+04  0.21221959806E+04  0.00000000000E+00 0. -1.
         25    1    1    2    0    0 -0.28318568416E+02 -0.98285887214E+02 -0.12817346166E+04  0.12918710015E+04  0.12500000000E+03 0.  0.
          2    1    1    2  502    0  0.98968388512E+01  0.24765909743E+02 -0.81313129514E+03  0.81356855940E+03  0.00000000000E+00 0. -1.
         -2    1    1    2    0  501  0.18421729565E+02  0.73519977471E+02  0.43107637656E+02  0.87194126131E+02  0.00000000000E+00 0.  1.
<mgrwt>
<rscale>  0 0.45091883E+02</rscale>
<asrwt>0</asrwt>
<pdfrwt beam="2">  1        1 0.32649164E+00 0.26670165E+02</pdfrwt>
<pdfrwt beam="1">  1       -1 0.10836572E-01 0.76237921E+02</pdfrwt>
<totfact> 0.19217892E+02</totfact>
</mgrwt>
</event>
<event>
 5    1  0.8891499E-003  0.2260914E+03  0.7546771E-02  0.1242581E+00
         -3   -1    0    0    0  501 -0.00000000000E+00  0.00000000000E+00  0.43597240479E+03  0.43597240479E+03  0.00000000000E+00 0.  1.
          1   -1    0    0  502    0  0.00000000000E+00 -0.00000000000E+00 -0.13108655401E+04  0.13108655401E+04  0.00000000000E+00 0. -1.
         25    1    1    2    0    0 -0.15919268135E+03  0.52009239150E+02  0.84123341565E+02  0.22527540334E+03  0.12500000000E+03 0.  0.
          2    1    1    2  502    0  0.21360670526E+03 -0.85745948352E+02 -0.12257902573E+04  0.12472136733E+04  0.00000000000E+00 0. -1.
         -2    1    1    2    0  501 -0.54414023906E+02  0.33736709202E+02  0.26677378042E+03  0.27434886817E+03  0.00000000000E+00 0.  1.
<mgrwt>
<rscale>  0 0.12031309E+03</rscale>
<asrwt>0</asrwt>
<pdfrwt beam="2">  1        1 0.20167162E+00 0.22609141E+03</pdfrwt>
<pdfrwt beam="1">  1       -3 0.67072679E-01 0.64023836E+02</pdfrwt>
<totfact> 0.11110618E+01</totfact>
</mgrwt>
</event>
<event>
 5    1  0.8891499E-003  0.1361794E+03  0.7546771E-02  0.1222837E+00
          1   -1    0    0  502    0  0.00000000000E+00  0.00000000000E+00  0.95907917683E+03  0.95907917683E+03  0.00000000000E+00 0. -1.
         -1   -1    0    0    0  501 -0.00000000000E+00 -0.00000000000E+00 -0.36303390191E+03  0.36303390191E+03  0.00000000000E+00 0.  1.
         25    1    1    2    0    0 -0.78082738001E+02  0.12426995056E+02  0.13352577961E+03  0.19926233463E+03  0.12500000000E+03 0.  0.
          2    1    1    2  502    0  0.43664815390E+02 -0.14418521858E+03  0.77103601018E+03  0.78561601457E+03  0.00000000000E+00 0. -1.
         -2    1    1    2    0  501  0.34417922612E+02  0.13175822352E+03 -0.30851651487E+03  0.33723472954E+03  0.00000000000E+00 0.  1.
<mgrwt>
<rscale>  0 0.13316276E+03</rscale>
<asrwt>0</asrwt>
<pdfrwt beam="1">  1        1 0.14755064E+00 0.13021296E+03</pdfrwt>
<pdfrwt beam="2">  1       -1 0.55851370E-01 0.13617938E+03</pdfrwt>
<totfact> 0.61306618E+01</totfact>
</mgrwt>
</event>
<event>
 5    1  0.8891499E-003  0.6628000E+02  0.7546771E-02  0.1384296E+00
          2   -1    0    0  502    0  0.00000000000E+00  0.00000000000E+00  0.98990251517E+02  0.98990251517E+02  0.00000000000E+00 0. -1.
         -2   -1    0    0    0  501 -0.00000000000E+00 -0.00000000000E+00 -0.24610095762E+03  0.24610095762E+03  0.00000000000E+00 0.  1.
         25    1    1    2    0    0 -0.36786972319E+02  0.23951565430E+01 -0.47293051466E+02  0.13863856182E+03  0.12500000000E+03 0.  0.
          1    1    1    2  502    0 -0.15044608142E+02 -0.58646591541E+02  0.20463642552E+02  0.63910277734E+02  0.00000000000E+00 0. -1.
         -1    1    1    2    0  501  0.51831580461E+02  0.56251434998E+02 -0.12028129719E+03  0.14254236958E+03  0.00000000000E+00 0.  1.
<mgrwt>
<rscale>  0 0.63347918E+02</rscale>
<asrwt>0</asrwt>
<pdfrwt beam="1">  1        2 0.15229269E-01 0.60545544E+02</pdfrwt>
<pdfrwt beam="2">  1       -2 0.37861686E-01 0.66280000E+02</pdfrwt>
<totfact> 0.23329494E+03</totfact>
</mgrwt>
</event>
<event>
 5    1  0.8891499E-003  0.5970813E+02  0.7546771E-02  0.1452322E+00
          2   -1    0    0  502    0  0.00000000000E+00  0.00000000000E+00  0.11072483465E+03  0.11072483465E+03  0.00000000000E+00 0. -1.
          1   -1    0    0  501    0 -0.00000000000E+00 -0.00000000000E+00 -0.45887105342E+03  0.45887105342E+03  0.00000000000E+00 0. -1.
         25    1    1    2    0    0 -0.96965317897E+02 -0.79729653349E+01 -0.90509592853E+02  0.18243581734E+03  0.12500000000E+03 0.  0.
          2    1    1    2  501    0  0.57240568813E+02  0.61131180099E+01 -0.31341424770E+03  0.31865709405E+03  0.00000000000E+00 0. -1.
          1    1    1    2  502    0  0.39724749084E+02  0.18598473250E+01  0.55777621780E+02  0.68502976675E+02  0.00000000000E+00 0. -1.
<mgrwt>
<rscale>  0 0.48728726E+02</rscale>
<asrwt>0</asrwt>
<pdfrwt beam="1">  1        2 0.17034590E-01 0.39768263E+02</pdfrwt>
<pdfrwt beam="2">  1        1 0.70595546E-01 0.59708133E+02</pdfrwt>
<totfact> 0.21763576E+03</totfact>
</mgrwt>
</event>
<event>
 5    1  0.8891499E-003  0.2096042E+03  0.7546771E-02  0.1192903E+00
          2   -1    0    0  502    0  0.00000000000E+00  0.00000000000E+00  0.28785176039E+04  0.28785176039E+04  0.00000000000E+00 0. -1.
          1   -1    0    0  501    0 -0.00000000000E+00 -0.00000000000E+00 -0.80207721639E+02  0.80207721639E+02  0.00000000000E+00 0. -1.
         25    1    1    2    0    0 -0.31363984202E+03 -0.54231484378E+01  0.13920505632E+04  0.14324207243E+04  0.12500000000E+03 0.  0.
          2    1    1    2  501    0  0.19704388359E+03  0.59259708396E+01  0.11184808635E+03  0.22665260557E+03  0.00000000000E+00 0. -1.
          1    1    1    2  502    0  0.11659595844E+03 -0.50282240175E+00  0.12944112327E+04  0.12996519957E+04  0.00000000000E+00 0. -1.
<mgrwt>
<rscale>  0 0.15633053E+03</rscale>
<asrwt>0</asrwt>
<pdfrwt beam="1">  1        2 0.44284878E+00 0.11659704E+03</pdfrwt>
<pdfrwt beam="2">  1        1 0.12339652E-01 0.20960423E+03</pdfrwt>
<totfact> 0.17997227E+02</totfact>
</mgrwt>
</event>
<event>
 5    1  0.8891499E-003  0.1344732E+03  0.7546771E-02  0.1385854E+00
         -1   -1    0    0    0  502 -0.00000000000E+00  0.00000000000E+00  0.74368841079E+02  0.74368841079E+02  0.00000000000E+00 0.  1.
         -2   -1    0    0    0  501  0.00000000000E+00 -0.00000000000E+00 -0.22334781220E+04  0.22334781220E+04  0.00000000000E+00 0.  1.
         25    1    1    2    0    0 -0.12581152340E+03  0.99699659988E+02 -0.19916714251E+04  0.20020361204E+04  0.12500000000E+03 0.  0.
         -2    1    1    2    0  502  0.97558825979E+02 -0.91323586995E+02  0.21816513848E+01  0.13365059547E+03  0.00000000000E+00 0.  1.
         -1    1    1    2    0  501  0.28252697426E+02 -0.83760729925E+01 -0.16961950723E+03  0.17216024728E+03  0.00000000000E+00 0.  1.
<mgrwt>
<rscale>  0 0.62949827E+02</rscale>
<asrwt>0</asrwt>
<pdfrwt beam="2">  1       -2 0.34361199E+00 0.29468178E+02</pdfrwt>
<pdfrwt beam="1">  1       -1 0.11441361E-01 0.13447322E+03</pdfrwt>
<totfact> 0.96007054E+00</totfact>
</mgrwt>
</event>
<event>
 5    1  0.8891499E-003  0.4657367E+02  0.7546771E-02  0.1466353E+00
          2   -1    0    0  502    0  0.00000000000E+00  0.00000000000E+00  0.39994797375E+03  0.39994797375E+03  0.00000000000E+00 0. -1.
         -2   -1    0    0    0  501 -0.00000000000E+00 -0.00000000000E+00 -0.51659489987E+02  0.51659489987E+02  0.00000000000E+00 0.  1.
         25    1    1    2    0    0 -0.22464663400E+02  0.55683863812E+01  0.21311364907E+03  0.24814934102E+03  0.12500000000E+03 0.  0.
          1    1    1    2  502    0  0.41136121251E+02  0.37098734744E+02  0.14555703689E+03  0.15574128412E+03  0.00000000000E+00 0. -1.
         -1    1    1    2    0  501 -0.18671457851E+02 -0.42667121125E+02 -0.10382202196E+02  0.47716838598E+02  0.00000000000E+00 0.  1.
<mgrwt>
<rscale>  0 0.46305445E+02</rscale>
<asrwt>0</asrwt>
<pdfrwt beam="1">  1        2 0.61530456E-01 0.46038767E+02</pdfrwt>
<pdfrwt beam="2">  1       -2 0.79476141E-02 0.46573668E+02</pdfrwt>
<totfact> 0.67011673E+03</totfact>
</mgrwt>
</event>
<event>
 5    1  0.8891499E-003  0.2108041E+03  0.7546771E-02  0.1174234E+00
          1   -1    0    0  501    0 -0.00000000000E+00  0.00000000000E+00  0.93134892560E+03  0.93134892560E+03  0.00000000000E+00 0. -1.
          2   -1    0    0  502    0  0.00000000000E+00 -0.00000000000E+00 -0.95805114402E+03  0.95805114402E+03  0.00000000000E+00 0. -1.
         25    1    1    2    0    0  0.58765439830E+02 -0.32482263439E+03  0.25923426997E+03  0.43793895403E+03  0.12500000000E+03 0.  0.
          2    1    1    2  501    0 -0.54939854565E+02  0.18205731265E+03  0.56111008509E+03  0.59245909589E+03  0.00000000000E+00 0. -1.
          1    1    1    2  502    0 -0.38255852648E+01  0.14276532173E+03 -0.84704657349E+03  0.85900201970E+03  0.00000000000E+00 0. -1.
<mgrwt>
<rscale>  0 0.17351173E+03</rscale>
<asrwt>0</asrwt>
<pdfrwt beam="2">  1        2 0.14739248E+00 0.14281657E+03</pdfrwt>
<pdfrwt beam="1">  1        1 0.14328445E+00 0.21080411E+03</pdfrwt>
<totfact> 0.72371753E+01</totfact>
</mgrwt>
</event>
<event>
 5    1  0.8891499E-003  0.1330728E+03  0.7546771E-02  0.1342175E+00
          1   -1    0    0  501    0 -0.00000000000E+00  0.00000000000E+00  0.63829329231E+03  0.63829329231E+03  0.00000000000E+00 0. -1.
          2   -1    0    0  502    0  0.00000000000E+00 -0.00000000000E+00 -0.18148352698E+04  0.18148352698E+04  0.00000000000E+00 0. -1.
         25    1    1    2    0    0  0.59370455052E+02  0.79893492968E+02 -0.20868212896E+03  0.26283274549E+03  0.12500000000E+03 0.  0.
          2    1    1    2  501    0  0.12398272150E+01  0.42874717444E+02  0.60749256922E+03  0.60900492628E+03  0.00000000000E+00 0. -1.
          1    1    1    2  502    0 -0.60610282267E+02 -0.12276821041E+03 -0.15753524177E+04  0.15812908903E+04  0.00000000000E+00 0. -1.
<mgrwt>
<rscale>  0 0.75550268E+02</rscale>
<asrwt>0</asrwt>
<pdfrwt beam="2">  1        2 0.27920543E+00 0.13307278E+03</pdfrwt>
<pdfrwt beam="1">  1        1 0.98198968E-01 0.42892640E+02</pdfrwt>
<totfact> 0.47053530E+01</totfact>
</mgrwt>
</event>
<event>
 5    1  0.8891499E-003  0.8731202E+02  0.7546771E-02  0.1318612E+00
         -1   -1    0    0    0  501 -0.00000000000E+00  0.00000000000E+00  0.72753076555E+03  0.72753076555E+03  0.00000000000E+00 0.  1.
          1   -1    0    0  502    0  0.00000000000E+00 -0.00000000000E+00 -0.15138653182E+04  0.15138653182E+04  0.00000000000E+00 0. -1.
         25    1    1    2    0    0 -0.36028685045E+02 -0.16677727521E+02 -0.91275932991E+02  0.15978895045E+03  0.12500000000E+03 0.  0.
          2    1    1    2  502    0  0.34524164780E+01  0.90205502118E+02 -0.13845258010E+04  0.13874655475E+04  0.00000000000E+00 0. -1.
         -2    1    1    2    0  501  0.32576268567E+02 -0.73527774597E+02  0.68946718139E+03  0.69414158579E+03  0.00000000000E+00 0.  1.
<mgrwt>
<rscale>  0 0.83795736E+02</rscale>
<asrwt>0</asrwt>
<pdfrwt beam="2">  1        1 0.23290235E+00 0.87312023E+02</pdfrwt>
<pdfrwt beam="1">  1       -1 0.11192781E+00 0.80421060E+02</pdfrwt>
<totfact> 0.65530919E+00</totfact>
</mgrwt>
</event>
<event>
 5    1  0.8891499E-003  0.2758149E+03  0.7546771E-02  0.1291469E+00
          1   -1    0    0  502    0  0.00000000000E+00  0.00000000000E+00  0.21392312337E+04  0.21392312337E+04  0.00000000000E+00 0. -1.
         -1   -1    0    0    0  501 -0.00000000000E+00 -0.00000000000E+00 -0.12478054314E+03  0.12478054314E+03  0.00000000000E+00 0.  1.
         25    1    1    2    0    0 -0.25150339400E+03 -0.13049895447E+02  0.59697321224E+03  0.65986837559E+03  0.12500000000E+03 0.  0.
          2    1    1    2  502    0 -0.31883519786E+02 -0.69481430328E+01  0.12939440505E+04  0.12943554540E+04  0.00000000000E+00 0. -1.
         -2    1    1    2    0  501  0.28338691379E+03  0.19998038480E+02  0.12353342780E+03  0.30978794721E+03  0.00000000000E+00 0.  1.
<mgrwt>
<rscale>  0 0.94870130E+02</rscale>
<asrwt>0</asrwt>
<pdfrwt beam="1">  1        1 0.32911247E+00 0.32631818E+02</pdfrwt>
<pdfrwt beam="2">  1       -1 0.19197008E-01 0.27581490E+03</pdfrwt>
<totfact> 0.78726181E+01</totfact>
</mgrwt>
</event>
<event>
 5    1  0.8891499E-003  0.9216275E+02  0.7546771E-02  0.1354355E+00
          2   -1    0    0  502    0  0.00000000000E+00  0.00000000000E+00  0.19813594993E+04  0.19813594993E+04  0.00000000000E+00 0. -1.
          1   -1    0    0  501    0 -0.00000000000E+00 -0.00000000000E+00 -0.90312835670E+03  0.90312835670E+03  0.00000000000E+00 0. -1.
         25    1    1    2    0    0  0.10074147941E+03  0.50658779330E+02 -0.67574935056E+02  0.18140156957E+03  0.12500000000E+03 0.  0.
          2    1    1    2  501    0 -0.91733568233E+02  0.44140770100E+01 -0.77552547428E+03  0.78094448770E+03  0.00000000000E+00 0. -1.
          1    1    1    2  502    0 -0.90079111743E+01 -0.55072856340E+02  0.19213315519E+04  0.19221417987E+04  0.00000000000E+00 0. -1.
<mgrwt>
<rscale>  0 0.71715495E+02</rscale>
<asrwt>0</asrwt>
<pdfrwt beam="1">  1        2 0.30482454E+00 0.55804677E+02</pdfrwt>
<pdfrwt beam="2">  1        1 0.13894282E+00 0.92162746E+02</pdfrwt>
<totfact> 0.24965705E+01</totfact>
</mgrwt>
</event>
<event>
 5    1  0.8891499E-003  0.7770699E+02  0.7546771E-02  0.1437251E+00
         -1   -1    0    0    0  501 -0.00000000000E+00  0.00000000000E+00  0.18986913006E+03  0.18986913006E+03  0.00000000000E+00 0.  1.
          1   -1    0    0  502    0  0.00000000000E+00 -0.00000000000E+00 -0.26054938630E+04  0.26054938630E+04  0.00000000000E+00 0. -1.
         25    1    1    2    0    0  0.88443172520E+02  0.64401323035E+02 -0.66063226434E+03  0.68119726501E+03  0.12500000000E+03 0.  0.
          2    1    1    2  502    0 -0.32260315323E+02 -0.11273748518E+02 -0.19260971460E+04  0.19264002806E+04  0.00000000000E+00 0. -1.
         -2    1    1    2    0  501 -0.56182857197E+02 -0.53127574518E+02  0.17110467740E+03  0.18776544742E+03  0.00000000000E+00 0.  1.
<mgrwt>
<rscale>  0 0.51531706E+02</rscale>
<asrwt>0</asrwt>
<pdfrwt beam="2">  1        1 0.40084521E+00 0.34173460E+02</pdfrwt>
<pdfrwt beam="1">  1       -1 0.29210636E-01 0.77706992E+02</pdfrwt>
<totfact> 0.19713606E+01</totfact>
</mgrwt>
</event>
<event>
 5    1  0.8891499E-003  0.6603888E+02  0.7546771E-02  0.1466123E+00
          2   -1    0    0  502    0  0.00000000000E+00  0.00000000000E+00  0.67960026462E+03  0.67960026462E+03  0.00000000000E+00 0. -1.
          1   -1    0    0  501    0 -0.00000000000E+00 -0.00000000000E+00 -0.67960766546E+03  0.67960766546E+03  0.00000000000E+00 0. -1.
         25    1    1    2    0    0  0.36498033293E+02  0.75777144963E+01  0.68773043385E+02  0.14745934927E+03  0.12500000000E+03 0.  0.
          2    1    1    2  501    0  0.31016935040E+02 -0.97806155071E+01 -0.63785260148E+03  0.63868118174E+03  0.00000000000E+00 0. -1.
          1    1    1    2  502    0 -0.67514968333E+02  0.22029010107E+01  0.56907215725E+03  0.57306739907E+03  0.00000000000E+00 0. -1.
<mgrwt>
<rscale>  0 0.46343791E+02</rscale>
<asrwt>0</asrwt>
<pdfrwt beam="1">  1        2 0.10455389E+00 0.66038876E+02</pdfrwt>
<pdfrwt beam="2">  1        1 0.10455503E+00 0.32522465E+02</pdfrwt>
<totfact> 0.19877775E+02</totfact>
</mgrwt>
</event>
<event>
 5    1  0.8891499E-003  0.1047644E+03  0.7546771E-02  0.1314486E+00
         -2   -1    0    0    0  501 -0.00000000000E+00  0.00000000000E+00  0.43142885482E+02  0.43142885482E+02  0.00000000000E+00 0.  1.
          2   -1    0    0  502    0  0.00000000000E+00 -0.00000000000E+00 -0.36398276237E+04  0.36398276237E+04  0.00000000000E+00 0. -1.
         25    1    1    2    0    0  0.41669081000E+02  0.68234868392E+02 -0.96006627405E+03  0.97146516157E+03  0.12500000000E+03 0.  0.
          3    1    1    2  502    0  0.11989158901E+02 -0.11249150834E+03 -0.26394690025E+04  0.26418922564E+04  0.00000000000E+00 0. -1.
         -1    1    1    2    0  501 -0.53658239901E+02  0.44256639951E+02  0.28505383827E+01  0.69613091140E+02  0.00000000000E+00 0.  1.
<mgrwt>
<rscale>  0 0.85363087E+02</rscale>
<asrwt>0</asrwt>
<pdfrwt beam="2">  1        2 0.55997335E+00 0.10476440E+03</pdfrwt>
<pdfrwt beam="1">  1       -2 0.66373685E-02 0.69554704E+02</pdfrwt>
<totfact> 0.11091308E+02</totfact>
</mgrwt>
</event>
<event>
 5    1  0.8891499E-003  0.2190922E+03  0.7546771E-02  0.1277564E+00
          1   -1    0    0  501    0 -0.00000000000E+00  0.00000000000E+00  0.63524608526E+03  0.63524608526E+03  0.00000000000E+00 0. -1.
          2   -1    0    0  502    0  0.00000000000E+00 -0.00000000000E+00 -0.71118257562E+03  0.71118257562E+03  0.00000000000E+00 0. -1.
         25    1    1    2    0    0  0.66619424145E+02  0.16290487767E+03 -0.30928665720E+03  0.37717288233E+03  0.12500000000E+03 0.  0.
          2    1    1    2  501    0 -0.72990573399E+02 -0.20931670008E+03  0.57923905759E+03  0.62020882820E+03  0.00000000000E+00 0. -1.
          1    1    1    2  502    0  0.63711492535E+01  0.46411822410E+02 -0.34588889075E+03  0.34904695035E+03  0.00000000000E+00 0. -1.
<mgrwt>
<rscale>  0 0.10131056E+03</rscale>
<asrwt>0</asrwt>
<pdfrwt beam="2">  1        2 0.10941270E+00 0.46847079E+02</pdfrwt>
<pdfrwt beam="1">  1        1 0.97730168E-01 0.21909219E+03</pdfrwt>
<totfact> 0.19459168E+02</totfact>
</mgrwt>
</event>
<event>
 5    1  0.8891499E-003  0.9069780E+02  0.7546771E-02  0.1417497E+00
          2   -1    0    0  502    0  0.00000000000E+00  0.00000000000E+00  0.39658473024E+03  0.39658473024E+03  0.00000000000E+00 0. -1.
         -2   -1    0    0    0  501 -0.00000000000E+00 -0.00000000000E+00 -0.11467006422E+03  0.11467006422E+03  0.00000000000E+00 0.  1.
         25    1    1    2    0    0  0.78892129882E+02 -0.75563583243E+02  0.24622385489E+03  0.29695961003E+03  0.12500000000E+03 0.  0.
          1    1    1    2  502    0 -0.69190331949E+02  0.42948185664E+02  0.10748143157E+03  0.13484845872E+03  0.00000000000E+00 0. -1.
         -1    1    1    2    0  501 -0.97017979325E+01  0.32615397579E+02 -0.71790620441E+02  0.79446725708E+02  0.00000000000E+00 0.  1.
<mgrwt>
<rscale>  0 0.55553970E+02</rscale>
<asrwt>0</asrwt>
<pdfrwt beam="1">  1        2 0.61013035E-01 0.90697796E+02</pdfrwt>
<pdfrwt beam="2">  1       -2 0.17641549E-01 0.34027769E+02</pdfrwt>
<totfact> 0.19208741E+03</totfact>
</mgrwt>
</event>
<event>
 5    1  0.8891499E-003  0.9428759E+02  0.7546771E-02  0.1371694E+00
          1   -1    0    0  502    0  0.00000000000E+00  0.00000000000E+00  0.48745998885E+03  0.48745998885E+03  0.00000000000E+00 0. -1.
         -1   -1    0    0    0  501 -0.00000000000E+00 -0.00000000000E+00 -0.10770855008E+03  0.10770855008E+03  0.00000000000E+00 0.  1.
         25    1    1    2    0    0 -0.43838000848E+02 -0.49469295487E+02  0.21936259219E+03  0.26098645246E+03  0.12500000000E+03 0.  0.
          2    1    1    2  502    0  0.64623968421E+02  0.91825957453E+02  0.22659118538E+03  0.25288698869E+03  0.00000000000E+00 0. -1.
         -2    1    1    2    0  501 -0.20785967573E+02 -0.42356661967E+02 -0.66202338797E+02  0.81295097780E+02  0.00000000000E+00 0.  1.
<mgrwt>
<rscale>  0 0.66698419E+02</rscale>
<asrwt>0</asrwt>
<pdfrwt beam="1">  1        1 0.74993843E-01 0.94287588E+02</pdfrwt>
<pdfrwt beam="2">  1       -1 0.16570546E-01 0.47182023E+02</pdfrwt>
<totfact> 0.12163306E+03</totfact>
</mgrwt>
</event>
<event>
 5    1  0.8891499E-003  0.1066343E+03  0.7546771E-02  0.1367354E+00
         -2   -1    0    0    0  501 -0.00000000000E+00  0.00000000000E+00  0.21357212031E+03  0.21357212031E+03  0.00000000000E+00 0.  1.
          2   -1    0    0  502    0  0.00000000000E+00 -0.00000000000E+00 -0.10293242186E+04  0.10293242186E+04  0.00000000000E+00 0. -1.
         25    1    1    2    0    0 -0.44172132282E+02  0.65237494883E+02  0.17871277704E+02  0.14883376826E+03  0.12500000000E+03 0.  0.
          3    1    1    2  502    0 -0.38467915064E+02  0.19760296455E+02 -0.93625867848E+03  0.93725693534E+03  0.00000000000E+00 0. -1.
         -1    1    1    2    0  501  0.82640047346E+02 -0.84997791338E+02  0.10263530247E+03  0.15680563533E+03  0.00000000000E+00 0.  1.
<mgrwt>
<rscale>  0 0.67908366E+02</rscale>
<asrwt>0</asrwt>
<pdfrwt beam="2">  1        2 0.15835757E+00 0.43246385E+02</pdfrwt>
<pdfrwt beam="1">  1       -2 0.32857249E-01 0.10663426E+03</pdfrwt>
<totfact> 0.23916594E+02</totfact>
</mgrwt>
</event>
<event>
 5    1  0.8891499E-003  0.1931926E+03  0.7546771E-02  0.1332328E+00
          1   -1    0    0  501    0 -0.00000000000E+00  0.00000000000E+00  0.11820071433E+04  0.11820071433E+04  0.00000000000E+00 0. -1.
          2   -1    0    0  502    0  0.00000000000E+00 -0.00000000000E+00 -0.14583645035E+03  0.14583645035E+03  0.00000000000E+00 0. -1.
         25    1    1    2    0    0  0.51231652243E+02  0.19652811247E+03  0.33873472977E+03  0.41426344074E+03  0.12500000000E+03 0.  0.
          2    1    1    2  501    0 -0.75364242261E+02 -0.17522906265E+03  0.79150053025E+03  0.81416096860E+03  0.00000000000E+00 0. -1.
          1    1    1    2  502    0  0.24132590018E+02 -0.21299049818E+02 -0.94064567080E+02  0.99419184286E+02  0.00000000000E+00 0. -1.
<mgrwt>
<rscale>  0 0.78856673E+02</rscale>
<asrwt>0</asrwt>
<pdfrwt beam="2">  1        2 0.22436378E-01 0.32187442E+02</pdfrwt>
<pdfrwt beam="1">  1        1 0.18184725E+00 0.19319258E+03</pdfrwt>
<totfact> 0.37211849E+02</totfact>
</mgrwt>
</event>
<event>
 5    1  0.8891499E-003  0.3797880E+02  0.7546771E-02  0.1556425E+00
         -1   -1    0    0    0  501 -0.00000000000E+00  0.00000000000E+00  0.33199632133E+02  0.33199632133E+02  0.00000000000E+00 0.  1.
          3   -1    0    0  502    0  0.00000000000E+00 -0.00000000000E+00 -0.83492321969E+03  0.83492321969E+03  0.00000000000E+00 0. -1.
         25    1    1    2    0    0 -0.19721093044E+02  0.37864688253E+02 -0.57879539670E+03  0.59367648376E+03  0.12500000000E+03 0.  0.
          2    1    1    2  502    0 -0.10955974405E+02 -0.37511088359E+02 -0.23735076003E+03  0.24054625004E+03  0.00000000000E+00 0. -1.
         -2    1    1    2    0  501  0.30677067449E+02 -0.35359989414E+00  0.14422569172E+02  0.33900118018E+02  0.00000000000E+00 0.  1.
<mgrwt>
<rscale>  0 0.34134377E+02</rscale>
<asrwt>0</asrwt>
<pdfrwt beam="2">  1        3 0.12844972E+00 0.37978804E+02</pdfrwt>
<pdfrwt beam="1">  1       -1 0.51076361E-02 0.30679105E+02</pdfrwt>
<totfact> 0.30892325E+02</totfact>
</mgrwt>
</event>
<event>
 5    1  0.8891499E-003  0.5883595E+02  0.7546771E-02  0.1406513E+00
          2   -1    0    0  502    0  0.00000000000E+00  0.00000000000E+00  0.11574931991E+04  0.11574931991E+04  0.00000000000E+00 0. -1.
          1   -1    0    0  501    0 -0.00000000000E+00 -0.00000000000E+00 -0.36718204981E+02  0.36718204981E+02  0.00000000000E+00 0. -1.
         25    1    1    2    0    0  0.19379111308E+02 -0.69117805252E+01  0.47218972637E+03  0.48888798344E+03  0.12500000000E+03 0.  0.
          2    1    1    2  501    0  0.32010575408E+02  0.49365897034E+02  0.58334601353E+01  0.59124427989E+02  0.00000000000E+00 0. -1.
          1    1    1    2  502    0 -0.51389686715E+02 -0.42454116509E+02  0.64275180764E+03  0.64619899267E+03  0.00000000000E+00 0. -1.
<mgrwt>
<rscale>  0 0.57979190E+02</rscale>
<asrwt>0</asrwt>
<pdfrwt beam="1">  1        2 0.17807585E+00 0.57134909E+02</pdfrwt>
<pdfrwt beam="2">  1        1 0.56489555E-02 0.58835948E+02</pdfrwt>
<totfact> 0.38931201E+03</totfact>
</mgrwt>
</event>
<event>
 5    1  0.8891499E-003  0.6166124E+02  0.7546771E-02  0.1475190E+00
          2   -1    0    0  502    0  0.00000000000E+00  0.00000000000E+00  0.20321572778E+04  0.20321572778E+04  0.00000000000E+00 0. -1.
          1   -1    0    0  501    0 -0.00000000000E+00 -0.00000000000E+00 -0.67798651359E+02  0.67798651359E+02  0.00000000000E+00 0. -1.
         25    1    1    2    0    0  0.51091791839E+02 -0.74999479897E+02  0.36033511202E+03  0.39204806610E+03  0.12500000000E+03 0.  0.
          2    1    1    2  501    0 -0.25543352863E+02  0.54680810278E+02 -0.34193235354E+02  0.69365922701E+02  0.00000000000E+00 0. -1.
          1    1    1    2  502    0 -0.25548438976E+02  0.20318669619E+02  0.16382167498E+04  0.16385419404E+04  0.00000000000E+00 0. -1.
<mgrwt>
<rscale>  0 0.44864388E+02</rscale>
<asrwt>0</asrwt>
<pdfrwt beam="1">  1        2 0.31263953E+00 0.32643086E+02</pdfrwt>
<pdfrwt beam="2">  1        1 0.10430563E-01 0.61661244E+02</pdfrwt>
<totfact> 0.68435039E+02</totfact>
</mgrwt>
</event>
<event>
 5    1  0.8891499E-003  0.1088867E+03  0.7546771E-02  0.1426458E+00
          1   -1    0    0  502    0  0.00000000000E+00  0.00000000000E+00  0.90716206464E+03  0.90716206464E+03  0.00000000000E+00 0. -1.
         -1   -1    0    0    0  501 -0.00000000000E+00 -0.00000000000E+00 -0.88926896698E+02  0.88926896698E+02  0.00000000000E+00 0.  1.
         25    1    1    2    0    0 -0.90938744161E+02  0.65628558421E+02  0.59841696470E+03  0.62153425208E+03  0.12500000000E+03 0.  0.
          2    1    1    2  502    0 -0.98813639366E+01 -0.24547020515E+02  0.25787269356E+03  0.25922678035E+03  0.00000000000E+00 0. -1.
         -2    1    1    2    0  501  0.10082010810E+03 -0.41081537906E+02 -0.38054490310E+02  0.11532792891E+03  0.00000000000E+00 0.  1.
<mgrwt>
<rscale>  0 0.53677547E+02</rscale>
<asrwt>0</asrwt>
<pdfrwt beam="1">  1        1 0.13956339E+00 0.26461247E+02</pdfrwt>
<pdfrwt beam="2">  1       -1 0.13681062E-01 0.10888675E+03</pdfrwt>
<totfact> 0.77431582E+02</totfact>
</mgrwt>
</event>
<event>
 5    1  0.8891499E-003  0.1072934E+03  0.7546771E-02  0.1339086E+00
         -2   -1    0    0    0  501 -0.00000000000E+00  0.00000000000E+00  0.98592653673E+01  0.98592653673E+01  0.00000000000E+00 0. -1.
          2   -1    0    0  502    0  0.00000000000E+00 -0.00000000000E+00 -0.30582491627E+04  0.30582491627E+04  0.00000000000E+00 0.  1.
         25    1    1    2    0    0 -0.92992893324E+02 -0.82170870566E+02 -0.15955667660E+04  0.16052594915E+04  0.12500000000E+03 0.  0.
          3    1    1    2  502    0  0.52919591455E+02 -0.13603736179E+02 -0.79581350090E+03  0.79768707713E+03  0.00000000000E+00 0. -1.
         -3    1    1    2    0  501  0.40073301869E+02  0.95774606745E+02 -0.65700963039E+03  0.66516185944E+03  0.00000000000E+00 0.  1.
<mgrwt>
<rscale>  0 0.76567130E+02</rscale>
<asrwt>0</asrwt>
<pdfrwt beam="2">  1        2 0.47049983E+00 0.54640139E+02</pdfrwt>
<pdfrwt beam="1">  1       -2 0.15168102E-02 0.10729338E+03</pdfrwt>
<totfact> 0.25720273E+03</totfact>
</mgrwt>
</event>
<event>
 5    1  0.8891499E-003  0.4502069E+02  0.7546771E-02  0.1531211E+00
          2   -1    0    0  502    0  0.00000000000E+00  0.00000000000E+00  0.15452007095E+04  0.15452007095E+04  0.00000000000E+00 0. -1.
         -2   -1    0    0    0  501 -0.00000000000E+00 -0.00000000000E+00 -0.19005750141E+03  0.19005750141E+03  0.00000000000E+00 0.  1.
         25    1    1    2    0    0  0.14743870707E+02 -0.40068827459E+00 -0.16030210521E+02  0.12688384422E+03  0.12500000000E+03 0.  0.
          1    1    1    2  502    0 -0.45123508415E+02 -0.19605025876E+01  0.14874682421E+04  0.14881538045E+04  0.00000000000E+00 0. -1.
         -1    1    1    2    0  501  0.30379637708E+02  0.23611908622E+01 -0.11629482348E+03  0.12022056221E+03  0.00000000000E+00 0.  1.
<mgrwt>
<rscale>  0 0.37038319E+02</rscale>
<asrwt>0</asrwt>
<pdfrwt beam="1">  1        2 0.23772318E+00 0.45020689E+02</pdfrwt>
<pdfrwt beam="2">  1       -2 0.29239617E-01 0.30471259E+02</pdfrwt>
<totfact> 0.15366046E+02</totfact>
</mgrwt>
</event>
<event>
 5    1  0.8891499E-003  0.1279026E+03  0.7546771E-02  0.1340913E+00
          1   -1    0    0  501    0 -0.00000000000E+00  0.00000000000E+00  0.18486069138E+03  0.18486069138E+03  0.00000000000E+00 0. -1.
          2   -1    0    0  502    0  0.00000000000E+00 -0.00000000000E+00 -0.13897990280E+04  0.13897990280E+04  0.00000000000E+00 0. -1.
         25    1    1    2    0    0 -0.16943291664E+03  0.15566835432E+01 -0.22997155498E+03  0.31180418952E+03  0.12500000000E+03 0.  0.
          2    1    1    2  501    0  0.45052207072E+02 -0.24001879104E+01  0.13685394895E+03  0.14409880502E+03  0.00000000000E+00 0. -1.
          1    1    1    2  502    0  0.12438070957E+03  0.84350436720E+00 -0.11118207306E+04  0.11187567249E+04  0.00000000000E+00 0. -1.
<mgrwt>
<rscale>  0 0.75963577E+02</rscale>
<asrwt>0</asrwt>
<pdfrwt beam="2">  1        2 0.21381523E+00 0.12790258E+03</pdfrwt>
<pdfrwt beam="1">  1        1 0.28440107E-01 0.45116098E+02</pdfrwt>
<totfact> 0.35253902E+02</totfact>
</mgrwt>
</event>
<event>
 5    1  0.8891499E-003  0.1815689E+03  0.7546771E-02  0.1255387E+00
          1   -1    0    0  502    0  0.00000000000E+00  0.00000000000E+00  0.15178023201E+04  0.15178023201E+04  0.00000000000E+00 0. -1.
         -3   -1    0    0    0  501 -0.00000000000E+00 -0.00000000000E+00 -0.10584045994E+03  0.10584045994E+03  0.00000000000E+00 0.  1.
         25    1    1    2    0    0  0.50065135187E+02  0.17406811151E+03  0.12609023964E+04  0.12799633114E+04  0.12500000000E+03 0.  0.
          2    1    1    2  502    0 -0.11743608970E+03 -0.15457071108E+03  0.18284707572E+03  0.26667657000E+03  0.00000000000E+00 0. -1.
         -2    1    1    2    0  501  0.67370954515E+02 -0.19497400420E+02 -0.31787611932E+02  0.77002898697E+02  0.00000000000E+00 0.  1.
<mgrwt>
<rscale>  0 0.11284696E+03</rscale>
<asrwt>0</asrwt>
<pdfrwt beam="1">  1        1 0.23350803E+00 0.18156895E+03</pdfrwt>
<pdfrwt beam="2">  1       -3 0.16283149E-01 0.70135541E+02</pdfrwt>
<totfact> 0.11475535E+02</totfact>
</mgrwt>
</event>
<event>
 5    1  0.8891499E-003  0.2048569E+03  0.7546771E-02  0.1359404E+00
          1   -1    0    0  501    0 -0.00000000000E+00  0.00000000000E+00  0.24030490248E+03  0.24030490248E+03  0.00000000000E+00 0. -1.
          2   -1    0    0  502    0  0.00000000000E+00 -0.00000000000E+00 -0.15487133698E+04  0.15487133698E+04  0.00000000000E+00 0. -1.
         25    1    1    2    0    0  0.14225251518E+03 -0.15538308341E+03 -0.14107454347E+03  0.28267774497E+03  0.12500000000E+03 0.  0.
          2    1    1    2  501    0 -0.15316474626E+03  0.13394215197E+03  0.10828832451E+03  0.23049143324E+03  0.00000000000E+00 0. -1.
          1    1    1    2  502    0  0.10912231079E+02  0.21440931436E+02 -0.12756222483E+04  0.12758490940E+04  0.00000000000E+00 0. -1.
<mgrwt>
<rscale>  0 0.70202991E+02</rscale>
<asrwt>0</asrwt>
<pdfrwt beam="2">  1        2 0.23826360E+00 0.24058062E+02</pdfrwt>
<pdfrwt beam="1">  1        1 0.36969984E-01 0.20485690E+03</pdfrwt>
<totfact> 0.25093087E+02</totfact>
</mgrwt>
</event>
<event>
 5    1  0.8891499E-003  0.6446335E+02  0.7546771E-02  0.1537376E+00
          1   -1    0    0  501    0 -0.00000000000E+00  0.00000000000E+00  0.68434338894E+02  0.68434338894E+02  0.00000000000E+00 0. -1.
          2   -1    0    0  502    0  0.00000000000E+00 -0.00000000000E+00 -0.25560515724E+04  0.25560515724E+04  0.00000000000E+00 0. -1.
         25    1    1    2    0    0 -0.78170610403E+02  0.22224819836E+02 -0.18211579832E+03  0.23536301949E+03  0.12500000000E+03 0.  0.
          2    1    1    2  501    0  0.19888887498E+02  0.47032562125E+01  0.38847229926E+02  0.43895281499E+02  0.00000000000E+00 0. -1.
          1    1    1    2  502    0  0.58281722905E+02 -0.26928076049E+02 -0.23443486651E+04  0.23452276103E+04  0.00000000000E+00 0. -1.
<mgrwt>
<rscale>  0 0.36296903E+02</rscale>
<asrwt>0</asrwt>
<pdfrwt beam="2">  1        2 0.39323863E+00 0.64463355E+02</pdfrwt>
<pdfrwt beam="1">  1        1 0.10528362E-01 0.20437428E+02</pdfrwt>
<totfact> 0.30886610E+02</totfact>
</mgrwt>
</event>
<event>
 5    1  0.8891499E-003  0.1108322E+03  0.7546771E-02  0.1393161E+00
          2   -1    0    0  502    0  0.00000000000E+00  0.00000000000E+00  0.48653413506E+03  0.48653413506E+03  0.00000000000E+00 0. -1.
          1   -1    0    0  501    0 -0.00000000000E+00 -0.00000000000E+00 -0.66610320677E+03  0.66610320677E+03  0.00000000000E+00 0. -1.
         25    1    1    2    0    0 -0.89110841973E+02  0.15875676110E+02  0.10516821528E+03  0.18675688141E+03  0.12500000000E+03 0.  0.
          2    1    1    2  501    0 -0.18373417121E+02  0.28266899612E+02 -0.61492281188E+03  0.61584629953E+03  0.00000000000E+00 0. -1.
          1    1    1    2  502    0  0.10748425909E+03 -0.44142575722E+02  0.33018552489E+03  0.35003416089E+03  0.00000000000E+00 0. -1.
<mgrwt>
<rscale>  0 0.61127264E+02</rscale>
<asrwt>0</asrwt>
<pdfrwt beam="1">  1        2 0.74851406E-01 0.11083223E+03</pdfrwt>
<pdfrwt beam="2">  1        1 0.10247742E+00 0.33713500E+02</pdfrwt>
<totfact> 0.29206460E+02</totfact>
</mgrwt>
</event>
<event>
 5    1  0.8891499E-003  0.9527056E+02  0.7546771E-02  0.1351942E+00
         -2   -1    0    0    0  501 -0.00000000000E+00  0.00000000000E+00  0.84014741233E+03  0.84014741233E+03  0.00000000000E+00 0.  1.
          2   -1    0    0  502    0  0.00000000000E+00 -0.00000000000E+00 -0.51616385430E+03  0.51616385430E+03  0.00000000000E+00 0. -1.
         25    1    1    2    0    0  0.25456756520E+02  0.36980325245E+02 -0.92410363486E+02  0.16180317113E+03  0.12500000000E+03 0.  0.
          1    1    1    2  502    0  0.36701835625E+01  0.54979164254E+02 -0.38419629853E+03  0.38812752357E+03  0.00000000000E+00 0. -1.
         -1    1    1    2    0  501 -0.29126940082E+02 -0.91959489498E+02  0.80059022005E+03  0.80638057193E+03  0.00000000000E+00 0.  1.
<mgrwt>
<rscale>  0 0.72453806E+02</rscale>
<asrwt>0</asrwt>
<pdfrwt beam="2">  1        2 0.79409824E-01 0.55101531E+02</pdfrwt>
<pdfrwt beam="1">  1       -2 0.12925345E+00 0.95270564E+02</pdfrwt>
<totfact> 0.30092929E+01</totfact>
</mgrwt>
</event>
<event>
 5    1  0.8891499E-003  0.2293986E+03  0.7546771E-02  0.1233008E+00
          1   -1    0    0  502    0  0.00000000000E+00  0.00000000000E+00  0.37576365842E+03  0.37576365842E+03  0.00000000000E+00 0. -1.
         -1   -1    0    0    0  501 -0.00000000000E+00 -0.00000000000E+00 -0.52363199528E+03  0.52363199528E+03  0.00000000000E+00 0.  1.
         25    1    1    2    0    0 -0.10747243848E+03  0.19180047214E+03 -0.11758310143E+03  0.27890595527E+03  0.12500000000E+03 0.  0.
          2    1    1    2  502    0  0.16964135081E+03 -0.16058015379E+03  0.24384182073E+03  0.33767292937E+03  0.00000000000E+00 0. -1.
         -2    1    1    2    0  501 -0.62168912325E+02 -0.31220318347E+02 -0.27412705616E+03  0.28281676905E+03  0.00000000000E+00 0.  1.
<mgrwt>
<rscale>  0 0.12632799E+03</rscale>
<asrwt>0</asrwt>
<pdfrwt beam="1">  1        1 0.57809794E-01 0.22939861E+03</pdfrwt>
<pdfrwt beam="2">  1       -1 0.80558768E-01 0.69567823E+02</pdfrwt>
<totfact> 0.11152944E+02</totfact>
</mgrwt>
</event>
<event>
 5    1  0.8891499E-003  0.1474535E+03  0.7546771E-02  0.1292064E+00
          2   -1    0    0  502    0  0.00000000000E+00  0.00000000000E+00  0.18722073411E+04  0.18722073411E+04  0.00000000000E+00 0. -1.
          1   -1    0    0  501    0 -0.00000000000E+00 -0.00000000000E+00 -0.25864593081E+04  0.25864593081E+04  0.00000000000E+00 0. -1.
         25    1    1    2    0    0  0.45733719585E+02  0.10372986830E+03 -0.27405881000E+03  0.32184575501E+03  0.12500000000E+03 0.  0.
          2    1    1    2  501    0 -0.10625825118E+03 -0.10834743844E+03 -0.22854916018E+04  0.22905243603E+04  0.00000000000E+00 0. -1.
          1    1    1    2  502    0  0.60524531594E+02  0.46175701438E+01  0.18452984448E+04  0.18462965339E+04  0.00000000000E+00 0. -1.
<mgrwt>
<rscale>  0 0.94607026E+02</rscale>
<asrwt>0</asrwt>
<pdfrwt beam="1">  1        2 0.28803190E+00 0.60700419E+02</pdfrwt>
<pdfrwt beam="2">  1        1 0.39791681E+00 0.14745350E+03</pdfrwt>
<totfact> 0.21010403E+00</totfact>
</mgrwt>
</event>
<event>
 5    1  0.8891499E-003  0.7301291E+02  0.7546771E-02  0.1354049E+00
         -2   -1    0    0    0  501  0.00000000000E+00  0.00000000000E+00  0.15894394982E+04  0.15894394982E+04  0.00000000000E+00 0.  1.
         -1   -1    0    0    0  502 -0.00000000000E+00 -0.00000000000E+00 -0.89763747270E+02  0.89763747270E+02  0.00000000000E+00 0.  1.
         25    1    1    2    0    0  0.75108623499E+02 -0.28180705443E+02  0.41945573587E+03  0.44497592276E+03  0.12500000000E+03 0.  0.
         -2    1    1    2    0  502 -0.54965726851E+02 -0.44344918300E+02 -0.59303552135E+02  0.92220465208E+02  0.00000000000E+00 0.  1.
         -1    1    1    2    0  501 -0.20142896648E+02  0.72525623743E+02  0.11395235672E+04  0.11420068575E+04  0.00000000000E+00 0.  1.
<mgrwt>
<rscale>  0 0.71808356E+02</rscale>
<asrwt>0</asrwt>
<pdfrwt beam="1">  1       -2 0.24452913E+00 0.73012915E+02</pdfrwt>
<pdfrwt beam="2">  1       -1 0.13809808E-01 0.70623671E+02</pdfrwt>
<totfact> 0.22075531E+01</totfact>
</mgrwt>
</event>
<event>
 5    1  0.8891499E-003  0.9326488E+02  0.7546771E-02  0.1318418E+00
          1   -1    0    0  501    0 -0.00000000000E+00  0.00000000000E+00  0.18970099485E+03  0.18970099485E+03  0.00000000000E+00 0. -1.
          2   -1    0    0  502    0  0.00000000000E+00 -0.00000000000E+00 -0.22930913748E+04  0.22930913748E+04  0.00000000000E+00 0. -1.
         25    1    1    2    0    0 -0.77667068364E+02 -0.49887287049E+02  0.14593039291E+03  0.21317034149E+03  0.12500000000E+03 0.  0.
          2    1    1    2  501    0  0.12736007295E+03 -0.68455338701E+01 -0.42458113003E+03  0.44332446977E+03  0.00000000000E+00 0. -1.
          1    1    1    2  502    0 -0.49693004588E+02  0.56732820920E+02 -0.18247396428E+04  0.18262975583E+04  0.00000000000E+00 0. -1.
<mgrwt>
<rscale>  0 0.83868543E+02</rscale>
<asrwt>0</asrwt>
<pdfrwt beam="2">  1        2 0.35278330E+00 0.75418881E+02</pdfrwt>
<pdfrwt beam="1">  1        1 0.29184768E-01 0.93264875E+02</pdfrwt>
<totfact> 0.12740796E+02</totfact>
</mgrwt>
</event>
<event>
 5    1  0.8891499E-003  0.5062900E+03  0.7546771E-02  0.1148327E+00
          1   -1    0    0  502    0  0.00000000000E+00  0.00000000000E+00  0.91244088174E+03  0.91244088174E+03  0.00000000000E+00 0. -1.
         -1   -1    0    0    0  501 -0.00000000000E+00 -0.00000000000E+00 -0.85206161450E+03  0.85206161450E+03  0.00000000000E+00 0.  1.
         25    1    1    2    0    0  0.29055696066E+02  0.44508440131E+03 -0.20713490061E+03  0.50741918057E+03  0.12500000000E+03 0.  0.
          2    1    1    2  502    0 -0.63450424372E+02 -0.51769041643E+03  0.66863329298E+03  0.84799752600E+03  0.00000000000E+00 0. -1.
         -2    1    1    2    0  501  0.34394728305E+02  0.72606015127E+02 -0.40111912513E+03  0.40908578967E+03  0.00000000000E+00 0.  1.
<mgrwt>
<rscale>  0 0.20168219E+03</rscale>
<asrwt>0</asrwt>
<pdfrwt beam="1">  1        1 0.14037552E+00 0.50629005E+03</pdfrwt>
<pdfrwt beam="2">  1       -1 0.13108640E+00 0.80340717E+02</pdfrwt>
<totfact> 0.10523109E+01</totfact>
</mgrwt>
</event>
<event>
 5    1  0.8891499E-003  0.1562561E+03  0.7546771E-02  0.1375665E+00
          1   -1    0    0  502    0  0.00000000000E+00  0.00000000000E+00  0.26139638181E+04  0.26139638181E+04  0.00000000000E+00 0. -1.
         -1   -1    0    0    0  501 -0.00000000000E+00 -0.00000000000E+00 -0.34920457181E+02  0.34920457181E+02  0.00000000000E+00 0.  1.
         25    1    1    2    0    0 -0.15198986819E+03 -0.74877541191E+02  0.13574782299E+04  0.13737101990E+04  0.12500000000E+03 0.  0.
          2    1    1    2  502    0  0.24646845209E+02 -0.12320756371E+02  0.10244758376E+04  0.10248463348E+04  0.00000000000E+00 0. -1.
         -2    1    1    2    0  501  0.12734302298E+03  0.87198297562E+02  0.19708929343E+03  0.25032774154E+03  0.00000000000E+00 0.  1.
<mgrwt>
<rscale>  0 0.65617127E+02</rscale>
<asrwt>0</asrwt>
<pdfrwt beam="1">  1        1 0.40214812E+00 0.27554818E+02</pdfrwt>
<pdfrwt beam="2">  1       -1 0.53723801E-02 0.15625606E+03</pdfrwt>
<totfact> 0.28935311E+02</totfact>
</mgrwt>
</event>
<event>
 5    1  0.8891499E-003  0.4450562E+02  0.7546771E-02  0.1550708E+00
          1   -1    0    0  501    0 -0.00000000000E+00  0.00000000000E+00  0.26056366888E+04  0.26056366888E+04  0.00000000000E+00 0. -1.
          2   -1    0    0  502    0  0.00000000000E+00 -0.00000000000E+00 -0.34038284807E+02  0.34038284807E+02  0.00000000000E+00 0. -1.
         25    1    1    2    0    0  0.69546301285E+02  0.58579719451E+01  0.10456799784E+04  0.10554348019E+04  0.12500000000E+03 0.  0.
          2    1    1    2  501    0 -0.42412324922E+02 -0.69118862417E+01  0.15483944115E+04  0.15489905852E+04  0.00000000000E+00 0. -1.
          1    1    1    2  502    0 -0.27133976364E+02  0.10539142966E+01 -0.22475985881E+02  0.35249586522E+02  0.00000000000E+00 0. -1.
<mgrwt>
<rscale>  0 0.34763848E+02</rscale>
<asrwt>0</asrwt>
<pdfrwt beam="2">  1        2 0.52366612E-02 0.27154436E+02</pdfrwt>
<pdfrwt beam="1">  1        1 0.40086703E+00 0.44505624E+02</pdfrwt>
<totfact> 0.28707425E+02</totfact>
</mgrwt>
</event>
<event>
 5    1  0.8891499E-003  0.8379035E+02  0.7546771E-02  0.1339005E+00
          2   -1    0    0  502    0  0.00000000000E+00  0.00000000000E+00  0.52620800491E+03  0.52620800491E+03  0.00000000000E+00 0. -1.
          1   -1    0    0  501    0 -0.00000000000E+00 -0.00000000000E+00 -0.41935563007E+03  0.41935563007E+03  0.00000000000E+00 0. -1.
         25    1    1    2    0    0 -0.35113055884E+02  0.76256757849E+02  0.48200774893E+01  0.15065275622E+03  0.12500000000E+03 0.  0.
          2    1    1    2  501    0 -0.46728933054E+02 -0.52140416388E+02 -0.33876872861E+03  0.34592841411E+03  0.00000000000E+00 0. -1.
          1    1    1    2  502    0  0.81841988939E+02 -0.24116341461E+02  0.44080102595E+03  0.44898246464E+03  0.00000000000E+00 0. -1.
<mgrwt>
<rscale>  0 0.76594064E+02</rscale>
<asrwt>0</asrwt>
<pdfrwt beam="1">  1        2 0.80955078E-01 0.83790349E+02</pdfrwt>
<pdfrwt beam="2">  1        1 0.64516251E-01 0.70015828E+02</pdfrwt>
<totfact> 0.47560847E+02</totfact>
</mgrwt>
</event>
<event>
 5    1  0.8891499E-003  0.1962394E+03  0.7546771E-02  0.1343855E+00
         -2   -1    0    0    0  501 -0.00000000000E+00  0.00000000000E+00  0.36399257614E+03  0.36399257614E+03  0.00000000000E+00 0.  1.
          2   -1    0    0  502    0  0.00000000000E+00 -0.00000000000E+00 -0.90681660036E+03  0.90681660036E+03  0.00000000000E+00 0. -1.
         25    1    1    2    0    0  0.15112212080E+03  0.91666947254E+02 -0.42719408810E+01  0.21652707473E+03  0.12500000000E+03 0.  0.
          1    1    1    2  502    0  0.28390520229E+02  0.39790315557E+01 -0.75599205863E+03  0.75653542352E+03  0.00000000000E+00 0. -1.
         -1    1    1    2    0  501 -0.17951264103E+03 -0.95645978810E+02  0.21743997529E+03  0.29774667825E+03  0.00000000000E+00 0.  1.
<mgrwt>
<rscale>  0 0.75005268E+02</rscale>
<asrwt>0</asrwt>
<pdfrwt beam="2">  1        2 0.13951024E+00 0.28668002E+02</pdfrwt>
<pdfrwt beam="1">  1       -2 0.55998858E-01 0.19623936E+03</pdfrwt>
<totfact> 0.10310229E+02</totfact>
</mgrwt>
</event>
<event>
 5    1  0.8891499E-003  0.1515105E+03  0.7546771E-02  0.1314071E+00
         -2   -1    0    0    0  501 -0.00000000000E+00  0.00000000000E+00  0.19075581474E+03  0.19075581474E+03  0.00000000000E+00 0.  1.
          2   -1    0    0  502    0  0.00000000000E+00 -0.00000000000E+00 -0.10542451326E+04  0.10542451326E+04  0.00000000000E+00 0. -1.
         25    1    1    2    0    0  0.94940769845E+02  0.97222710567E+02 -0.63056784367E+03  0.65704399449E+03  0.12500000000E+03 0.  0.
          1    1    1    2  502    0  0.40340016692E+02 -0.26516768931E+02 -0.37579335300E+03  0.37888138004E+03  0.00000000000E+00 0. -1.
         -1    1    1    2    0  501 -0.13528078654E+03 -0.70705941637E+02  0.14287187881E+03  0.20907557280E+03  0.00000000000E+00 0.  1.
<mgrwt>
<rscale>  0 0.85522736E+02</rscale>
<asrwt>0</asrwt>
<pdfrwt beam="2">  1        2 0.16219156E+00 0.48274797E+02</pdfrwt>
<pdfrwt beam="1">  1       -2 0.29347049E-01 0.15151050E+03</pdfrwt>
<totfact> 0.28410858E+02</totfact>
</mgrwt>
</event>
<event>
 5    1  0.8891499E-003  0.9573042E+02  0.7546771E-02  0.1452740E+00
         -1   -1    0    0    0  502 -0.00000000000E+00  0.00000000000E+00  0.70691520931E+03  0.70691520931E+03  0.00000000000E+00 0.  1.
         -2   -1    0    0    0  501  0.00000000000E+00 -0.00000000000E+00 -0.20505715527E+03  0.20505715527E+03  0.00000000000E+00 0.  1.
         25    1    1    2    0    0  0.25032118494E+02 -0.10114202950E+03 -0.22052471062E+02  0.16421823458E+03  0.12500000000E+03 0.  0.
         -2    1    1    2    0  502 -0.23656431763E+02  0.72002204172E+01  0.61582359242E+03  0.61631985764E+03  0.00000000000E+00 0.  1.
         -3    1    1    2    0  501 -0.13756867305E+01  0.93941809086E+02 -0.91913067317E+02  0.13143427236E+03  0.00000000000E+00 0.  1.
<mgrwt>
<rscale>  0 0.48654024E+02</rscale>
<asrwt>0</asrwt>
<pdfrwt beam="2">  1       -2 0.31547255E-01 0.95730421E+02</pdfrwt>
<pdfrwt beam="1">  1       -1 0.10875618E+00 0.24727918E+02</pdfrwt>
<totfact> 0.63761363E+01</totfact>
</mgrwt>
</event>
<event>
 5    1  0.8891499E-003  0.1482291E+03  0.7546771E-02  0.1293432E+00
          1   -1    0    0  502    0  0.00000000000E+00  0.00000000000E+00  0.81481969828E+03  0.81481969828E+03  0.00000000000E+00 0. -1.
         -1   -1    0    0    0  501 -0.00000000000E+00 -0.00000000000E+00 -0.10064331469E+04  0.10064331469E+04  0.00000000000E+00 0.  1.
         25    1    1    2    0    0  0.10266217316E+03  0.57297542949E+02  0.28286702909E+03  0.33084934089E+03  0.12500000000E+03 0.  0.
          2    1    1    2  502    0  0.45151947947E+02 -0.38929395727E+02  0.50053665976E+03  0.50407454213E+03  0.00000000000E+00 0. -1.
         -2    1    1    2    0  501 -0.14781412110E+03 -0.18368147223E+02 -0.97501713743E+03  0.98632896211E+03  0.00000000000E+00 0.  1.
<mgrwt>
<rscale>  0 0.94005253E+02</rscale>
<asrwt>0</asrwt>
<pdfrwt beam="1">  1        1 0.12535688E+00 0.59617080E+02</pdfrwt>
<pdfrwt beam="2">  1       -1 0.15483587E+00 0.14822912E+03</pdfrwt>
<totfact> 0.88969911E+00</totfact>
</mgrwt>
</event>
<event>
 5    1  0.8891499E-003  0.4198670E+02  0.7546771E-02  0.1523408E+00
          2   -1    0    0  502    0  0.00000000000E+00  0.00000000000E+00  0.12208716391E+03  0.12208716391E+03  0.00000000000E+00 0. -1.
          1   -1    0    0  501    0 -0.00000000000E+00 -0.00000000000E+00 -0.50955576311E+03  0.50955576311E+03  0.00000000000E+00 0. -1.
         25    1    1    2    0    0 -0.37099709715E+02 -0.49274629703E+02 -0.17865590263E+02  0.14052955884E+03  0.12500000000E+03 0.  0.
          2    1    1    2  501    0  0.35474959084E+01  0.41660571610E+02 -0.42437615404E+03  0.42643089484E+03  0.00000000000E+00 0. -1.
          1    1    1    2  502    0  0.33552213807E+02  0.76140580922E+01  0.54773145104E+02  0.64682473334E+02  0.00000000000E+00 0. -1.
<mgrwt>
<rscale>  0 0.38007436E+02</rscale>
<asrwt>0</asrwt>
<pdfrwt beam="1">  1        2 0.18782640E-01 0.34405304E+02</pdfrwt>
<pdfrwt beam="2">  1        1 0.78393197E-01 0.41986702E+02</pdfrwt>
<totfact> 0.17144550E+03</totfact>
</mgrwt>
</event>
<event>
 5    1  0.8891499E-003  0.1643063E+03  0.7546771E-02  0.1307431E+00
          2   -1    0    0  502    0  0.00000000000E+00  0.00000000000E+00  0.24024875467E+04  0.24024875467E+04  0.00000000000E+00 0. -1.
          1   -1    0    0  501    0 -0.00000000000E+00 -0.00000000000E+00 -0.18539786145E+04  0.18539786145E+04  0.00000000000E+00 0. -1.
         25    1    1    2    0    0  0.86482463931E+02  0.18921476894E+03 -0.96235741037E+03  0.99249092220E+03  0.12500000000E+03 0.  0.
          2    1    1    2  501    0 -0.43004970963E+01 -0.47080699430E+02 -0.87309145998E+03  0.87437050729E+03  0.00000000000E+00 0. -1.
          1    1    1    2  502    0 -0.82181966834E+02 -0.14213406951E+03  0.23839578026E+04  0.23896047317E+04  0.00000000000E+00 0. -1.
<mgrwt>
<rscale>  0 0.88135474E+02</rscale>
<asrwt>0</asrwt>
<pdfrwt beam="1">  1        2 0.36961347E+00 0.16430634E+03</pdfrwt>
<pdfrwt beam="2">  1        1 0.28522748E+00 0.47276702E+02</pdfrwt>
<totfact> 0.34061625E+00</totfact>
</mgrwt>
</event>
<event>
 5    1  0.8891499E-003  0.5111700E+02  0.7546771E-02  0.1446314E+00
          1   -1    0    0  502    0  0.00000000000E+00  0.00000000000E+00  0.76819445919E+03  0.76819445919E+03  0.00000000000E+00 0. -1.
         -1   -1    0    0    0  501 -0.00000000000E+00 -0.00000000000E+00 -0.29732316779E+02  0.29732316779E+02  0.00000000000E+00 0.  1.
         25    1    1    2    0    0 -0.13850042884E+02 -0.15869040791E+02  0.34272346676E+03  0.36541486671E+03  0.12500000000E+03 0.  0.
          2    1    1    2  502    0 -0.10859582421E+02  0.57667680603E+02  0.37524929531E+03  0.37980985446E+03  0.00000000000E+00 0. -1.
         -2    1    1    2    0  501  0.24709625305E+02 -0.41798639812E+02  0.20489380335E+02  0.52702054793E+02  0.00000000000E+00 0.  1.
<mgrwt>
<rscale>  0 0.49820082E+02</rscale>
<asrwt>0</asrwt>
<pdfrwt beam="1">  1        1 0.11818375E+00 0.51117000E+02</pdfrwt>
<pdfrwt beam="2">  1       -1 0.45742032E-02 0.48556069E+02</pdfrwt>
<totfact> 0.45160880E+03</totfact>
</mgrwt>
</event>
<event>
 5    1  0.8891499E-003  0.9261407E+02  0.7546771E-02  0.1402558E+00
          1   -1    0    0  501    0 -0.00000000000E+00  0.00000000000E+00  0.86771362617E+02  0.86771362617E+02  0.00000000000E+00 0. -1.
          2   -1    0    0  502    0  0.00000000000E+00 -0.00000000000E+00 -0.25687698516E+04  0.25687698516E+04  0.00000000000E+00 0. -1.
         25    1    1    2    0    0 -0.66389252882E+02  0.23225295461E+02 -0.12648229090E+04  0.12729292747E+04  0.12500000000E+03 0.  0.
          2    1    1    2  501    0  0.70952559285E+02 -0.60389684411E+02  0.56118161911E+02  0.10876776981E+03  0.00000000000E+00 0. -1.
          1    1    1    2  502    0 -0.45633064038E+01  0.37164388950E+02 -0.12732937418E+04  0.12738441696E+04  0.00000000000E+00 0. -1.
<mgrwt>
<rscale>  0 0.58887984E+02</rscale>
<asrwt>0</asrwt>
<pdfrwt beam="2">  1        2 0.39519533E+00 0.37443498E+02</pdfrwt>
<pdfrwt beam="1">  1        1 0.13349441E-01 0.92614066E+02</pdfrwt>
<totfact> 0.27296468E+02</totfact>
</mgrwt>
</event>
<event>
 5    1  0.8891499E-003  0.1229502E+03  0.7546771E-02  0.1379007E+00
          1   -1    0    0  501    0 -0.00000000000E+00  0.00000000000E+00  0.37636292531E+04  0.37636292531E+04  0.00000000000E+00 0. -1.
          2   -1    0    0  502    0  0.00000000000E+00 -0.00000000000E+00 -0.26820208708E+03  0.26820208708E+03  0.00000000000E+00 0. -1.
         25    1    1    2    0    0 -0.14978233955E+03 -0.44334793186E+02 -0.12389582036E+03  0.23531998944E+03  0.12500000000E+03 0.  0.
          2    1    1    2  501    0  0.11922511575E+03  0.29259074197E+02  0.37035858607E+04  0.37056199143E+04  0.00000000000E+00 0. -1.
          1    1    1    2  502    0  0.30557223792E+02  0.15075718989E+02 -0.84262874320E+02  0.90891436437E+02  0.00000000000E+00 0. -1.
<mgrwt>
<rscale>  0 0.64725388E+02</rscale>
<asrwt>0</asrwt>
<pdfrwt beam="2">  1        2 0.41261862E-01 0.34073762E+02</pdfrwt>
<pdfrwt beam="1">  1        1 0.57901985E+00 0.12295020E+03</pdfrwt>
<totfact> 0.37622507E+00</totfact>
</mgrwt>
</event>
<event>
 5    1  0.8891499E-003  0.1205167E+03  0.7546771E-02  0.1324727E+00
          2   -1    0    0  502    0  0.00000000000E+00  0.00000000000E+00  0.63313342676E+03  0.63313342676E+03  0.00000000000E+00 0. -1.
          1   -1    0    0  501    0 -0.00000000000E+00 -0.00000000000E+00 -0.54289349085E+03  0.54289349085E+03  0.00000000000E+00 0. -1.
         25    1    1    2    0    0  0.11015602338E+03 -0.36778526819E+02  0.39136735350E+03  0.42694310500E+03  0.12500000000E+03 0.  0.
          2    1    1    2  501    0 -0.84969625532E+02  0.85868055991E+02 -0.51460383861E+03  0.52859272698E+03  0.00000000000E+00 0. -1.
          3    1    1    2  502    0 -0.25186397848E+02 -0.49089529172E+02  0.21347642102E+03  0.22049108563E+03  0.00000000000E+00 0. -1.
<mgrwt>
<rscale>  0 0.81543541E+02</rscale>
<asrwt>0</asrwt>
<pdfrwt beam="1">  1        2 0.97405142E-01 0.55173694E+02</pdfrwt>
<pdfrwt beam="2">  1        1 0.83522076E-01 0.12051666E+03</pdfrwt>
<totfact> 0.27854930E+02</totfact>
</mgrwt>
</event>
<event>
 5    1  0.8891499E-003  0.8509948E+02  0.7546771E-02  0.1334219E+00
          1   -1    0    0  501    0 -0.00000000000E+00  0.00000000000E+00  0.12500342561E+04  0.12500342561E+04  0.00000000000E+00 0. -1.
          2   -1    0    0  502    0  0.00000000000E+00 -0.00000000000E+00 -0.16800281641E+03  0.16800281641E+03  0.00000000000E+00 0. -1.
         25    1    1    2    0    0 -0.65469002507E+01 -0.15179050551E+03  0.13341396061E+03  0.23771307147E+03  0.12500000000E+03 0.  0.
          2    1    1    2  501    0  0.36955101280E+01  0.71776958785E+02  0.10492602600E+04  0.10517189177E+04  0.00000000000E+00 0. -1.
          1    1    1    2  502    0  0.28513901226E+01  0.80013546722E+02 -0.10064278097E+03  0.12860508328E+03  0.00000000000E+00 0. -1.
<mgrwt>
<rscale>  0 0.78206599E+02</rscale>
<asrwt>0</asrwt>
<pdfrwt beam="2">  1        2 0.25846588E-01 0.85099478E+02</pdfrwt>
<pdfrwt beam="1">  1        1 0.19231296E+00 0.71872029E+02</pdfrwt>
<totfact> 0.32199646E+02</totfact>
</mgrwt>
</event>
<event>
 5    1  0.8891499E-003  0.1207414E+03  0.7546771E-02  0.1303754E+00
         -2   -1    0    0    0  501 -0.00000000000E+00  0.00000000000E+00  0.18921137544E+04  0.18921137544E+04  0.00000000000E+00 0.  1.
          2   -1    0    0  502    0  0.00000000000E+00 -0.00000000000E+00 -0.41641388378E+03  0.41641388378E+03  0.00000000000E+00 0. -1.
         25    1    1    2    0    0  0.25030600839E+02 -0.16598305986E+03  0.56198722891E+03  0.59969288189E+03  0.12500000000E+03 0.  0.
          1    1    1    2  502    0  0.24382338651E+02  0.61904235764E+02 -0.39222339583E+03  0.39782637554E+03  0.00000000000E+00 0. -1.
         -1    1    1    2    0  501 -0.49412939490E+02  0.10407882409E+03  0.13059360376E+04  0.13110083808E+04  0.00000000000E+00 0.  1.
<mgrwt>
<rscale>  0 0.89628568E+02</rscale>
<asrwt>0</asrwt>
<pdfrwt beam="2">  1        2 0.64063676E-01 0.66532946E+02</pdfrwt>
<pdfrwt beam="1">  1       -2 0.29109442E+00 0.12074139E+03</pdfrwt>
<totfact> 0.35031433E+00</totfact>
</mgrwt>
</event>
<event>
 5    1  0.8891499E-003  0.3125598E+02  0.7546771E-02  0.1599372E+00
          1   -1    0    0  501    0 -0.00000000000E+00  0.00000000000E+00  0.33001497956E+03  0.33001497956E+03  0.00000000000E+00 0. -1.
          2   -1    0    0  502    0  0.00000000000E+00 -0.00000000000E+00 -0.71821503631E+03  0.71821503631E+03  0.00000000000E+00 0. -1.
         25    1    1    2    0    0 -0.45449555525E+02 -0.35695866601E+02  0.17321074184E+03  0.22128447320E+03  0.12500000000E+03 0.  0.
          2    1    1    2  501    0  0.24713576779E+02  0.16038499744E+02  0.13083459928E+03  0.13411072560E+03  0.00000000000E+00 0. -1.
          3    1    1    2  502    0  0.20735978746E+02  0.19657366858E+02 -0.69224539787E+03  0.69283481708E+03  0.00000000000E+00 0. -1.
<mgrwt>
<rscale>  0 0.29884184E+02</rscale>
<asrwt>0</asrwt>
<pdfrwt beam="2">  1        2 0.11049462E+00 0.28572590E+02</pdfrwt>
<pdfrwt beam="1">  1        1 0.50771536E-01 0.31255985E+02</pdfrwt>
<totfact> 0.46472371E+02</totfact>
</mgrwt>
</event>
<event>
 5    1  0.8891499E-003  0.1240720E+03  0.7546771E-02  0.1344467E+00
          1   -1    0    0  501    0 -0.00000000000E+00  0.00000000000E+00  0.78619139349E+02  0.78619139349E+02  0.00000000000E+00 0. -1.
          2   -1    0    0  502    0  0.00000000000E+00 -0.00000000000E+00 -0.22287807604E+04  0.22287807604E+04  0.00000000000E+00 0. -1.
         25    1    1    2    0    0  0.50122977075E+02  0.10675215226E+03 -0.35583047105E+03  0.39515649934E+03  0.12500000000E+03 0.  0.
          2    1    1    2  501    0 -0.91009725514E+02 -0.87707547082E+02 -0.94004031329E+01  0.12674285594E+03  0.00000000000E+00 0. -1.
          1    1    1    2  502    0  0.40886748438E+02 -0.19044605174E+02 -0.17849307468E+04  0.17855005444E+04  0.00000000000E+00 0. -1.
<mgrwt>
<rscale>  0 0.74807863E+02</rscale>
<asrwt>0</asrwt>
<pdfrwt beam="2">  1        2 0.34288935E+00 0.45104581E+02</pdfrwt>
<pdfrwt beam="1">  1        1 0.12095252E-01 0.12407202E+03</pdfrwt>
<totfact> 0.45301481E+02</totfact>
</mgrwt>
</event>
<event>
 5    1  0.8891499E-003  0.1875104E+03  0.7546771E-02  0.1242147E+00
          2   -1    0    0  502    0  0.00000000000E+00  0.00000000000E+00  0.27728635236E+04  0.27728635236E+04  0.00000000000E+00 0. -1.
          1   -1    0    0  501    0 -0.00000000000E+00 -0.00000000000E+00 -0.39503574245E+03  0.39503574245E+03  0.00000000000E+00 0. -1.
         25    1    1    2    0    0  0.23019059010E+02 -0.19385716888E+03  0.24938947614E+03  0.34048581440E+03  0.12500000000E+03 0.  0.
          2    1    1    2  501    0  0.53337838982E+02  0.18038155797E+03 -0.32352006969E+03  0.37422943098E+03  0.00000000000E+00 0. -1.
          1    1    1    2  502    0 -0.76356897991E+02  0.13475610908E+02  0.24519583747E+04  0.24531840207E+04  0.00000000000E+00 0. -1.
<mgrwt>
<rscale>  0 0.12057766E+03</rscale>
<asrwt>0</asrwt>
<pdfrwt beam="1">  1        2 0.42659438E+00 0.77536881E+02</pdfrwt>
<pdfrwt beam="2">  1        1 0.60774731E-01 0.18751039E+03</pdfrwt>
<totfact> 0.28681750E+01</totfact>
</mgrwt>
</event>
<event>
 5    1  0.8891499E-003  0.2094119E+03  0.7546771E-02  0.1305134E+00
          2   -1    0    0  502    0  0.00000000000E+00  0.00000000000E+00  0.31778763464E+03  0.31778763464E+03  0.00000000000E+00 0. -1.
          1   -1    0    0  501    0 -0.00000000000E+00 -0.00000000000E+00 -0.45682855528E+03  0.45682855528E+03  0.00000000000E+00 0. -1.
         25    1    1    2    0    0  0.16648540761E+03 -0.83504611565E+02  0.20956103428E+02  0.22528774793E+03  0.12500000000E+03 0.  0.
          2    1    1    2  501    0  0.33592045071E+02 -0.17504928697E+02 -0.28849869632E+03  0.29097481987E+03  0.00000000000E+00 0. -1.
          1    1    1    2  502    0 -0.20007745268E+03  0.10100954026E+03  0.12850167225E+03  0.25835362212E+03  0.00000000000E+00 0. -1.
<mgrwt>
<rscale>  0 0.89064001E+02</rscale>
<asrwt>0</asrwt>
<pdfrwt beam="1">  1        2 0.48890405E-01 0.20941195E+03</pdfrwt>
<pdfrwt beam="2">  1        1 0.70281316E-01 0.37879388E+02</pdfrwt>
<totfact> 0.73784986E+02</totfact>
</mgrwt>
</event>
<event>
 5    1  0.8891499E-003  0.5921671E+02  0.7546771E-02  0.1527143E+00
          2   -1    0    0  502    0  0.00000000000E+00  0.00000000000E+00  0.55733415039E+03  0.55733415039E+03  0.00000000000E+00 0. -1.
          1   -1    0    0  501    0 -0.00000000000E+00 -0.00000000000E+00 -0.39026856775E+03  0.39026856775E+03  0.00000000000E+00 0. -1.
         25    1    1    2    0    0  0.11072204209E+02 -0.50797112244E+02  0.39502984808E+03  0.41758414864E+03  0.12500000000E+03 0.  0.
          2    1    1    2  501    0  0.11562333993E+02  0.58144214992E+02 -0.37571522701E+03  0.38036346974E+03  0.00000000000E+00 0. -1.
          1    1    1    2  502    0 -0.22634538202E+02 -0.73471027478E+01  0.14775096157E+03  0.14965509976E+03  0.00000000000E+00 0. -1.
<mgrwt>
<rscale>  0 0.37539132E+02</rscale>
<asrwt>0</asrwt>
<pdfrwt beam="1">  1        2 0.85743716E-01 0.23797106E+02</pdfrwt>
<pdfrwt beam="2">  1        1 0.60041318E-01 0.59216715E+02</pdfrwt>
<totfact> 0.49923462E+02</totfact>
</mgrwt>
</event>
<event>
 5    1  0.8891499E-003  0.8721578E+02  0.7546771E-02  0.1378250E+00
          2   -1    0    0  502    0  0.00000000000E+00  0.00000000000E+00  0.93429635680E+03  0.93429635680E+03  0.00000000000E+00 0. -1.
          1   -1    0    0  501    0 -0.00000000000E+00 -0.00000000000E+00 -0.10334127748E+03  0.10334127748E+03  0.00000000000E+00 0. -1.
         25    1    1    2    0    0 -0.54271793223E+02  0.38893149630E+02  0.42216754808E+03  0.44531847399E+03  0.12500000000E+03 0.  0.
          2    1    1    2  501    0 -0.42527486385E+02 -0.22967299054E+02 -0.80172764540E+02  0.93614935229E+02  0.00000000000E+00 0. -1.
          1    1    1    2  502    0  0.96799279607E+02 -0.15925850576E+02  0.48896029578E+03  0.49870422507E+03  0.00000000000E+00 0. -1.
<mgrwt>
<rscale>  0 0.64926151E+02</rscale>
<asrwt>0</asrwt>
<pdfrwt beam="1">  1        2 0.14373790E+00 0.87215784E+02</pdfrwt>
<pdfrwt beam="2">  1        1 0.15898659E-01 0.48333052E+02</pdfrwt>
<totfact> 0.13224213E+03</totfact>
</mgrwt>
</event>
<event>
 5    1  0.8891499E-003  0.6802129E+02  0.7546771E-02  0.1415791E+00
          1   -1    0    0  501    0 -0.00000000000E+00  0.00000000000E+00  0.94753071059E+02  0.94753071059E+02  0.00000000000E+00 0. -1.
          2   -1    0    0  502    0  0.00000000000E+00 -0.00000000000E+00 -0.27998603623E+03  0.27998603623E+03  0.00000000000E+00 0. -1.
         25    1    1    2    0    0  0.24054409626E+02  0.83863958538E+02 -0.37998176318E+02  0.15710073064E+03  0.12500000000E+03 0.  0.
          2    1    1    2  501    0 -0.41790928183E+02 -0.19160263545E+02  0.96805902247E+01  0.46982030657E+02  0.00000000000E+00 0. -1.
          1    1    1    2  502    0  0.17736518557E+02 -0.64703694992E+02 -0.15691537908E+03  0.17065634599E+03  0.00000000000E+00 0. -1.
<mgrwt>
<rscale>  0 0.55921396E+02</rscale>
<asrwt>0</asrwt>
<pdfrwt beam="2">  1        2 0.43074774E-01 0.68021291E+02</pdfrwt>
<pdfrwt beam="1">  1        1 0.14577396E-01 0.45973877E+02</pdfrwt>
<totfact> 0.55972723E+03</totfact>
</mgrwt>
</event>
<event>
 5    1  0.8891499E-003  0.1828602E+03  0.7546771E-02  0.1209900E+00
         -1   -1    0    0    0  501 -0.00000000000E+00  0.00000000000E+00  0.73620584708E+03  0.73620584708E+03  0.00000000000E+00 0.  1.
          1   -1    0    0  502    0  0.00000000000E+00 -0.00000000000E+00 -0.70095356533E+03  0.70095356533E+03  0.00000000000E+00 0. -1.
         25    1    1    2    0    0 -0.10934184646E+03 -0.44844237464E+02  0.63097172434E+02  0.18322908664E+03  0.12500000000E+03 0.  0.
          2    1    1    2  502    0  0.18982730794E+03 -0.31844855783E+02 -0.62115544200E+03  0.65029422941E+03  0.00000000000E+00 0. -1.
         -2    1    1    2    0  501 -0.80485461479E+02  0.76689093247E+02  0.59331055132E+03  0.60363609637E+03  0.00000000000E+00 0.  1.
<mgrwt>
<rscale>  0 0.14257930E+03</rscale>
<asrwt>0</asrwt>
<pdfrwt beam="2">  1        1 0.10783901E+00 0.18286015E+03</pdfrwt>
<pdfrwt beam="1">  1       -1 0.11326244E+00 0.11117161E+03</pdfrwt>
<totfact> 0.23006030E+01</totfact>
</mgrwt>
</event>
<event>
 5    1  0.8891499E-003  0.2257143E+03  0.7546771E-02  0.1286181E+00
          2   -1    0    0  502    0  0.00000000000E+00  0.00000000000E+00  0.35531365313E+04  0.35531365313E+04  0.00000000000E+00 0. -1.
         -2   -1    0    0    0  501 -0.00000000000E+00 -0.00000000000E+00 -0.10548043168E+03  0.10548043168E+03  0.00000000000E+00 0.  1.
         25    1    1    2    0    0  0.23849490814E+03 -0.95166901142E+02  0.96003783988E+03  0.10016158017E+04  0.12500000000E+03 0.  0.
          1    1    1    2  502    0 -0.41522453577E+02 -0.56362732191E+01  0.24272966954E+04  0.24276583634E+04  0.00000000000E+00 0. -1.
         -1    1    1    2    0  501 -0.19697245457E+03  0.10080317436E+03  0.60321564367E+02  0.22934279790E+03  0.00000000000E+00 0.  1.
<mgrwt>
<rscale>  0 0.97253069E+02</rscale>
<asrwt>0</asrwt>
<pdfrwt beam="1">  1        2 0.54663630E+00 0.41903242E+02</pdfrwt>
<pdfrwt beam="2">  1       -2 0.16227761E-01 0.22571426E+03</pdfrwt>
<totfact> 0.40016745E+01</totfact>
</mgrwt>
</event>
<event>
 5    1  0.8891499E-003  0.1705790E+03  0.7546771E-02  0.1206783E+00
          2   -1    0    0  502    0  0.00000000000E+00  0.00000000000E+00  0.24966224261E+04  0.24966224261E+04  0.00000000000E+00 0. -1.
          1   -1    0    0  501    0 -0.00000000000E+00 -0.00000000000E+00 -0.17369933330E+04  0.17369933330E+04  0.00000000000E+00 0. -1.
         25    1    1    2    0    0  0.28479277510E+03 -0.45442105050E+02 -0.12911387081E+04  0.13288476486E+04  0.12500000000E+03 0.  0.
          2    1    1    2  501    0 -0.12297763820E+03 -0.77159206363E+01 -0.41511158033E+03  0.43301346290E+03  0.00000000000E+00 0. -1.
          1    1    1    2  502    0 -0.16181513690E+03  0.53158025686E+02  0.24658793815E+04  0.24717546477E+04  0.00000000000E+00 0. -1.
<mgrwt>
<rscale>  0 0.14497812E+03</rscale>
<asrwt>0</asrwt>
<pdfrwt beam="1">  1        2 0.38409576E+00 0.17057903E+03</pdfrwt>
<pdfrwt beam="2">  1        1 0.26722974E+00 0.12321946E+03</pdfrwt>
<totfact> 0.31942368E+00</totfact>
</mgrwt>
</event>
<event>
 5    1  0.8891499E-003  0.6203565E+02  0.7546771E-02  0.1399642E+00
          2   -1    0    0  502    0  0.00000000000E+00  0.00000000000E+00  0.56645125505E+03  0.56645125505E+03  0.00000000000E+00 0. -1.
          1   -1    0    0  501    0 -0.00000000000E+00 -0.00000000000E+00 -0.50985624772E+03  0.50985624772E+03  0.00000000000E+00 0. -1.
         25    1    1    2    0    0  0.86660887813E+01 -0.89335780394E+01  0.16554025476E+03  0.20780636625E+03  0.12500000000E+03 0.  0.
          2    1    1    2  501    0  0.33812565155E+02 -0.46141141118E+02 -0.48383954035E+03  0.48720939572E+03  0.00000000000E+00 0. -1.
          1    1    1    2  502    0 -0.42478653937E+02  0.55074719158E+02  0.37489429293E+03  0.38129174080E+03  0.00000000000E+00 0. -1.
<mgrwt>
<rscale>  0 0.59570844E+02</rscale>
<asrwt>0</asrwt>
<pdfrwt beam="1">  1        2 0.87146347E-01 0.62035647E+02</pdfrwt>
<pdfrwt beam="2">  1        1 0.78439423E-01 0.57203972E+02</pdfrwt>
<totfact> 0.34701326E+02</totfact>
</mgrwt>
</event>
<event>
 5    1  0.8891499E-003  0.4394452E+02  0.7546771E-02  0.1484829E+00
          1   -1    0    0  501    0 -0.00000000000E+00  0.00000000000E+00  0.83435802359E+02  0.83435802359E+02  0.00000000000E+00 0. -1.
          2   -1    0    0  502    0  0.00000000000E+00 -0.00000000000E+00 -0.30014490272E+04  0.30014490272E+04  0.00000000000E+00 0. -1.
         25    1    1    2    0    0  0.12170445202E+02  0.37271210527E+01 -0.78016851829E+02  0.14789739801E+03  0.12500000000E+03 0.  0.
          2    1    1    2  501    0 -0.35399202440E+02  0.32207778190E+02  0.36490040210E+02  0.60182784448E+02  0.00000000000E+00 0. -1.
          1    1    1    2  502    0  0.23228757238E+02 -0.35934899242E+02 -0.28764864132E+04  0.28768046471E+04  0.00000000000E+00 0. -1.
<mgrwt>
<rscale>  0 0.43362872E+02</rscale>
<asrwt>0</asrwt>
<pdfrwt beam="2">  1        2 0.46176139E+00 0.42788926E+02</pdfrwt>
<pdfrwt beam="1">  1        1 0.12836277E-01 0.43944517E+02</pdfrwt>
<totfact> 0.15867015E+02</totfact>
</mgrwt>
</event>
<event>
 5    1  0.8891499E-003  0.4644165E+02  0.7546771E-02  0.1568175E+00
          1   -1    0    0  501    0 -0.00000000000E+00  0.00000000000E+00  0.22123376968E+03  0.22123376968E+03  0.00000000000E+00 0. -1.
          2   -1    0    0  502    0  0.00000000000E+00 -0.00000000000E+00 -0.28565423435E+04  0.28565423435E+04  0.00000000000E+00 0. -1.
         25    1    1    2    0    0  0.20714124695E+02 -0.26365409700E+02  0.30628647923E+02  0.13299369859E+03  0.12500000000E+03 0.  0.
          2    1    1    2  501    0  0.21926037613E+02  0.78627349994E+01  0.13825575339E+03  0.14020423344E+03  0.00000000000E+00 0. -1.
          1    1    1    2  502    0 -0.42640162308E+02  0.18502674700E+02 -0.28041929751E+04  0.28045781812E+04  0.00000000000E+00 0. -1.
<mgrwt>
<rscale>  0 0.32890352E+02</rscale>
<asrwt>0</asrwt>
<pdfrwt beam="2">  1        2 0.43946801E+00 0.46441652E+02</pdfrwt>
<pdfrwt beam="1">  1        1 0.34035968E-01 0.23293212E+02</pdfrwt>
<totfact> 0.56098324E+01</totfact>
</mgrwt>
</event>
<event>
 5    1  0.8891499E-003  0.4394250E+02  0.7546771E-02  0.1540699E+00
          1   -1    0    0  501    0 -0.00000000000E+00  0.00000000000E+00  0.11976271575E+04  0.11976271575E+04  0.00000000000E+00 0. -1.
          2   -1    0    0  502    0  0.00000000000E+00 -0.00000000000E+00 -0.90140875685E+03  0.90140875685E+03  0.00000000000E+00 0. -1.
         25    1    1    2    0    0  0.13439645781E+02 -0.26639441893E+02  0.21503189350E+03  0.25050748325E+03  0.12500000000E+03 0.  0.
          2    1    1    2  501    0  0.10750464035E+02  0.43241490877E+02  0.96409924267E+03  0.96512835868E+03  0.00000000000E+00 0. -1.
          1    1    1    2  502    0 -0.24190109815E+02 -0.16602048983E+02 -0.88291273551E+03  0.88340007243E+03  0.00000000000E+00 0. -1.
<mgrwt>
<rscale>  0 0.35905967E+02</rscale>
<asrwt>0</asrwt>
<pdfrwt beam="2">  1        2 0.13867827E+00 0.29339213E+02</pdfrwt>
<pdfrwt beam="1">  1        1 0.18425033E+00 0.43942503E+02</pdfrwt>
<totfact> 0.60935915E+01</totfact>
</mgrwt>
</event>
<event>
 5    1  0.8891499E-003  0.8074067E+02  0.7546771E-02  0.1469391E+00
          2   -1    0    0  502    0  0.00000000000E+00  0.00000000000E+00  0.13020652509E+04  0.13020652509E+04  0.00000000000E+00 0. -1.
         -2   -1    0    0    0  501 -0.00000000000E+00 -0.00000000000E+00 -0.26816422564E+02  0.26816422564E+02  0.00000000000E+00 0.  1.
         25    1    1    2    0    0  0.51191374323E+02 -0.35994766804E+02  0.44438445173E+03  0.46585268163E+03  0.12500000000E+03 0.  0.
          1    1    1    2  502    0  0.96418318994E+01 -0.24127981728E+02  0.73134237019E+03  0.73180378986E+03  0.00000000000E+00 0. -1.
         -1    1    1    2    0  501 -0.60833206222E+02  0.60122748532E+02  0.99522006409E+02  0.13122520196E+03  0.00000000000E+00 0.  1.
<mgrwt>
<rscale>  0 0.45802810E+02</rscale>
<asrwt>0</asrwt>
<pdfrwt beam="1">  1        2 0.20031768E+00 0.25983157E+02</pdfrwt>
<pdfrwt beam="2">  1       -2 0.41256045E-02 0.80740666E+02</pdfrwt>
<totfact> 0.48366612E+03</totfact>
</mgrwt>
</event>
<event>
 5    1  0.8891499E-003  0.2094752E+03  0.7546771E-02  0.1357045E+00
          1   -1    0    0  501    0 -0.00000000000E+00  0.00000000000E+00  0.54686513494E+03  0.54686513494E+03  0.00000000000E+00 0. -1.
          2   -1    0    0  502    0  0.00000000000E+00 -0.00000000000E+00 -0.29361096032E+03  0.29361096032E+03  0.00000000000E+00 0. -1.
         25    1    1    2    0    0  0.18580175721E+03 -0.42622418040E+02 -0.46539982097E+02  0.23265840504E+03  0.12500000000E+03 0.  0.
          2    1    1    2  501    0 -0.20940960012E+03  0.38301764898E+02  0.42766164439E+03  0.47771737241E+03  0.00000000000E+00 0. -1.
          1    1    1    2  502    0  0.23607842908E+02  0.43206531420E+01 -0.12786748767E+03  0.13010031781E+03  0.00000000000E+00 0. -1.
<mgrwt>
<rscale>  0 0.70904148E+02</rscale>
<asrwt>0</asrwt>
<pdfrwt beam="2">  1        2 0.45170917E-01 0.23999964E+02</pdfrwt>
<pdfrwt beam="1">  1        1 0.84133098E-01 0.20947524E+03</pdfrwt>
<totfact> 0.59971601E+02</totfact>
</mgrwt>
</event>
<event>
 5    1  0.8891499E-003  0.4663058E+02  0.7546771E-02  0.1526467E+00
          1   -1    0    0  502    0  0.00000000000E+00  0.00000000000E+00  0.43611303394E+03  0.43611303394E+03  0.00000000000E+00 0. -1.
         -1   -1    0    0    0  501 -0.00000000000E+00 -0.00000000000E+00 -0.52613814262E+03  0.52613814262E+03  0.00000000000E+00 0.  1.
         25    1    1    2    0    0 -0.19205205591E+02  0.75385439345E+00 -0.10822863443E+03  0.16645673771E+03  0.12500000000E+03 0.  0.
          2    1    1    2  502    0  0.43613291846E+02  0.17294034006E+02  0.40505031675E+03  0.40775846029E+03  0.00000000000E+00 0. -1.
         -2    1    1    2    0  501 -0.24408086255E+02 -0.18047888400E+02 -0.38684679099E+03  0.38803597855E+03  0.00000000000E+00 0.  1.
<mgrwt>
<rscale>  0 0.37623310E+02</rscale>
<asrwt>0</asrwt>
<pdfrwt beam="1">  1        1 0.67094313E-01 0.46630579E+02</pdfrwt>
<pdfrwt beam="2">  1       -1 0.80944330E-01 0.30355905E+02</pdfrwt>
<totfact> 0.95872129E+01</totfact>
</mgrwt>
</event>
<event>
 5    1  0.8891499E-003  0.6552500E+02  0.7546771E-02  0.1447563E+00
          1   -1    0    0  501    0 -0.00000000000E+00  0.00000000000E+00  0.33419961267E+03  0.33419961267E+03  0.00000000000E+00 0. -1.
          2   -1    0    0  502    0  0.00000000000E+00 -0.00000000000E+00 -0.95994897255E+02  0.95994897255E+02  0.00000000000E+00 0. -1.
         25    1    1    2    0    0  0.68483464319E+02 -0.22572114275E+02 -0.29463109049E+02  0.14728394353E+03  0.12500000000E+03 0.  0.
          2    1    1    2  501    0 -0.32920405748E+02  0.34565093129E+02  0.19911390216E+03  0.20475557334E+03  0.00000000000E+00 0. -1.
          1    1    1    2  502    0 -0.35563058572E+02 -0.11992978855E+02  0.68553922299E+02  0.78154993055E+02  0.00000000000E+00 0. -1.
<mgrwt>
<rscale>  0 0.49590394E+02</rscale>
<asrwt>0</asrwt>
<pdfrwt beam="2">  1        2 0.14768446E-01 0.65524999E+02</pdfrwt>
<pdfrwt beam="1">  1        1 0.51415324E-01 0.37530823E+02</pdfrwt>
<totfact> 0.38709501E+03</totfact>
</mgrwt>
</event>
<event>
 5    1  0.8891499E-003  0.5620536E+02  0.7546771E-02  0.1506961E+00
         -1   -1    0    0    0  501 -0.00000000000E+00  0.00000000000E+00  0.20567146337E+03  0.20567146337E+03  0.00000000000E+00 0.  1.
          1   -1    0    0  502    0  0.00000000000E+00 -0.00000000000E+00 -0.64657360091E+02  0.64657360091E+02  0.00000000000E+00 0. -1.
         25    1    1    2    0    0  0.31215766985E+02 -0.24453274449E+02  0.66011518681E+02  0.14681589607E+03  0.12500000000E+03 0.  0.
          2    1    1    2  502    0 -0.56291960014E+02  0.38433771098E+02  0.61421668851E+02  0.91752716186E+02  0.00000000000E+00 0. -1.
         -2    1    1    2    0  501  0.25076193029E+02 -0.13980496650E+02  0.13580915746E+02  0.31760211207E+02  0.00000000000E+00 0.  1.
<mgrwt>
<rscale>  0 0.40170404E+02</rscale>
<asrwt>0</asrwt>
<pdfrwt beam="2">  1        1 0.99472863E-02 0.56205357E+02</pdfrwt>
<pdfrwt beam="1">  1       -1 0.31641763E-01 0.28710098E+02</pdfrwt>
<totfact> 0.52368675E+03</totfact>
</mgrwt>
</event>
<event>
 5    1  0.8891499E-003  0.7990813E+02  0.7546771E-02  0.1397948E+00
          1   -1    0    0  501    0 -0.00000000000E+00  0.00000000000E+00  0.16347204958E+03  0.16347204958E+03  0.00000000000E+00 0. -1.
          2   -1    0    0  502    0  0.00000000000E+00 -0.00000000000E+00 -0.22030540720E+04  0.22030540720E+04  0.00000000000E+00 0. -1.
         25    1    1    2    0    0  0.46950218342E+02 -0.10893729402E+03 -0.13258902265E+04  0.13370420898E+04  0.12500000000E+03 0.  0.
          2    1    1    2  501    0 -0.13862768604E+02  0.78423003192E+02  0.14722873895E+03  0.16738770970E+03  0.00000000000E+00 0. -1.
          1    1    1    2  502    0 -0.33087449738E+02  0.30514290830E+02 -0.86092053487E+03  0.86209632214E+03  0.00000000000E+00 0. -1.
<mgrwt>
<rscale>  0 0.59972211E+02</rscale>
<asrwt>0</asrwt>
<pdfrwt beam="2">  1        2 0.33893137E+00 0.45010013E+02</pdfrwt>
<pdfrwt beam="1">  1        1 0.25149548E-01 0.79908134E+02</pdfrwt>
<totfact> 0.18094979E+02</totfact>
</mgrwt>
</event>
<event>
 5    1  0.8891499E-003  0.5858463E+02  0.7546771E-02  0.1408536E+00
          1   -1    0    0  501    0 -0.00000000000E+00  0.00000000000E+00  0.11311841217E+04  0.11311841217E+04  0.00000000000E+00 0. -1.
          2   -1    0    0  502    0  0.00000000000E+00 -0.00000000000E+00 -0.27450276995E+02  0.27450276995E+02  0.00000000000E+00 0. -1.
         25    1    1    2    0    0  0.41335463494E+01  0.79421287978E+02  0.45281075968E+03  0.47643195870E+03  0.12500000000E+03 0.  0.
          2    1    1    2  501    0 -0.43447239130E+02 -0.36084684893E+02  0.60550168435E+03  0.60812996705E+03  0.00000000000E+00 0. -1.
          1    1    1    2  502    0  0.39313692781E+02 -0.43336603085E+02  0.45421400641E+02  0.74072472911E+02  0.00000000000E+00 0. -1.
<mgrwt>
<rscale>  0 0.57521685E+02</rscale>
<asrwt>0</asrwt>
<pdfrwt beam="2">  1        2 0.42231204E-02 0.58584632E+02</pdfrwt>
<pdfrwt beam="1">  1        1 0.17402829E+00 0.56478023E+02</pdfrwt>
<totfact> 0.33246027E+03</totfact>
</mgrwt>
</event>
<event>
 5    1  0.8891499E-003  0.1112161E+03  0.7546771E-02  0.1356203E+00
          1   -1    0    0  501    0 -0.00000000000E+00  0.00000000000E+00  0.23773533760E+03  0.23773533760E+03  0.00000000000E+00 0. -1.
          2   -1    0    0  502    0  0.00000000000E+00 -0.00000000000E+00 -0.13872540339E+04  0.13872540339E+04  0.00000000000E+00 0. -1.
         25    1    1    2    0    0 -0.14463563209E+03  0.56026819326E+02 -0.10174370825E+04  0.10367553653E+04  0.12500000000E+03 0.  0.
          2    1    1    2  501    0  0.99904469268E+02 -0.47552994056E+02  0.21307390591E+03  0.24008889938E+03  0.00000000000E+00 0. -1.
          1    1    1    2  502    0  0.44731162824E+02 -0.84738252698E+01 -0.34515551964E+03  0.34814510679E+03  0.00000000000E+00 0. -1.
<mgrwt>
<rscale>  0 0.71156895E+02</rscale>
<asrwt>0</asrwt>
<pdfrwt beam="2">  1        2 0.21342370E+00 0.45526724E+02</pdfrwt>
<pdfrwt beam="1">  1        1 0.36574667E-01 0.11121608E+03</pdfrwt>
<totfact> 0.28660242E+02</totfact>
</mgrwt>
</event>
<event>
 5    1  0.8891499E-003  0.1449790E+03  0.7546771E-02  0.1264080E+00
          2   -1    0    0  502    0  0.00000000000E+00  0.00000000000E+00  0.85157397261E+03  0.85157397261E+03  0.00000000000E+00 0. -1.
         -2   -1    0    0    0  501 -0.00000000000E+00 -0.00000000000E+00 -0.20448449035E+04  0.20448449035E+04  0.00000000000E+00 0.  1.
         25    1    1    2    0    0 -0.27611063874E+02 -0.22133261133E+03 -0.11958566412E+03  0.28226977654E+03  0.12500000000E+03 0.  0.
          1    1    1    2  502    0  0.18699076670E+02  0.14118539456E+03  0.76275610172E+03  0.77593803993E+03  0.00000000000E+00 0. -1.
         -1    1    1    2    0  501  0.89119872046E+01  0.80147216770E+02 -0.18364413685E+04  0.18382110596E+04  0.00000000000E+00 0.  1.
<mgrwt>
<rscale>  0 0.10812620E+03</rscale>
<asrwt>0</asrwt>
<pdfrwt beam="1">  1        2 0.13101138E+00 0.14497898E+03</pdfrwt>
<pdfrwt beam="2">  1       -2 0.31459152E+00 0.80641180E+02</pdfrwt>
<totfact> 0.11788364E+00</totfact>
</mgrwt>
</event>
<event>
 5    1  0.8891499E-003  0.1284413E+03  0.7546771E-02  0.1375151E+00
          2   -1    0    0  502    0  0.00000000000E+00  0.00000000000E+00  0.19532761666E+04  0.19532761666E+04  0.00000000000E+00 0. -1.
          1   -1    0    0  501    0 -0.00000000000E+00 -0.00000000000E+00 -0.74314075085E+03  0.74314075085E+03  0.00000000000E+00 0. -1.
         25    1    1    2    0    0  0.12715916359E+03  0.24996584784E+02  0.41111861661E+03  0.44881822496E+03  0.12500000000E+03 0.  0.
          2    1    1    2  501    0 -0.11537857319E+03 -0.56531667401E+02 -0.71840479331E+03  0.72980373500E+03  0.00000000000E+00 0. -1.
          1    1    1    2  502    0 -0.11780590401E+02  0.31535082618E+02  0.15174215924E+04  0.15177949575E+04  0.00000000000E+00 0. -1.
<mgrwt>
<rscale>  0 0.65755656E+02</rscale>
<asrwt>0</asrwt>
<pdfrwt beam="1">  1        2 0.30050402E+00 0.33663686E+02</pdfrwt>
<pdfrwt beam="2">  1        1 0.11432935E+00 0.12844126E+03</pdfrwt>
<totfact> 0.36104130E+01</totfact>
</mgrwt>
</event>
<event>
 5    1  0.8891499E-003  0.8558557E+02  0.7546771E-02  0.1361999E+00
          1   -1    0    0  502    0  0.00000000000E+00  0.00000000000E+00  0.44525675431E+03  0.44525675431E+03  0.00000000000E+00 0. -1.
         -1   -1    0    0    0  501 -0.00000000000E+00 -0.00000000000E+00 -0.64577190909E+03  0.64577190909E+03  0.00000000000E+00 0.  1.
         25    1    1    2    0    0 -0.37686290985E+01 -0.13975696791E+03  0.84261092870E+02  0.20559947572E+03  0.12500000000E+03 0.  0.
          2    1    1    2  502    0  0.96644985837E+01  0.55509461764E+02  0.29459507280E+03  0.29993492594E+03  0.00000000000E+00 0. -1.
         -2    1    1    2    0  501 -0.58958694851E+01  0.84247506148E+02 -0.57937132045E+03  0.58549426174E+03  0.00000000000E+00 0.  1.
<mgrwt>
<rscale>  0 0.69442611E+02</rscale>
<asrwt>0</asrwt>
<pdfrwt beam="1">  1        1 0.68501039E-01 0.56344502E+02</pdfrwt>
<pdfrwt beam="2">  1       -1 0.99349525E-01 0.85585568E+02</pdfrwt>
<totfact> 0.58900886E+01</totfact>
</mgrwt>
</event>
<event>
 5    1  0.8891499E-003  0.1156461E+03  0.7546771E-02  0.1293629E+00
          2   -1    0    0  502    0  0.00000000000E+00  0.00000000000E+00  0.37955529665E+03  0.37955529665E+03  0.00000000000E+00 0. -1.
          1   -1    0    0  501    0 -0.00000000000E+00 -0.00000000000E+00 -0.27522922093E+03  0.27522922093E+03  0.00000000000E+00 0. -1.
         25    1    1    2    0    0 -0.92108210150E+02  0.24332040332E+02  0.61941986466E+02  0.16893128855E+03  0.12500000000E+03 0.  0.
          2    1    1    2  501    0  0.11091494098E+03  0.49587689221E+02 -0.19874990732E+03  0.23294331653E+03  0.00000000000E+00 0. -1.
          3    1    1    2  502    0 -0.18806730827E+02 -0.73919729553E+02  0.24113399657E+03  0.25290991251E+03  0.00000000000E+00 0. -1.
<mgrwt>
<rscale>  0 0.93919434E+02</rscale>
<asrwt>0</asrwt>
<pdfrwt beam="1">  1        2 0.58393122E-01 0.76274632E+02</pdfrwt>
<pdfrwt beam="2">  1        1 0.42342957E-01 0.11564605E+03</pdfrwt>
<totfact> 0.11264811E+03</totfact>
</mgrwt>
</event>
<event>
 5    1  0.8891499E-003  0.1454006E+03  0.7546771E-02  0.1381103E+00
          1   -1    0    0  501    0 -0.00000000000E+00  0.00000000000E+00  0.45956871037E+02  0.45956871037E+02  0.00000000000E+00 0. -1.
          2   -1    0    0  502    0  0.00000000000E+00 -0.00000000000E+00 -0.14118113823E+04  0.14118113823E+04  0.00000000000E+00 0. -1.
         25    1    1    2    0    0 -0.13180279222E+03  0.25662991205E+02 -0.35033796574E+03  0.39546460700E+03  0.12500000000E+03 0.  0.
          2    1    1    2  501    0  0.14498159838E+03 -0.50734925683E+02 -0.23178910678E+03  0.27806453671E+03  0.00000000000E+00 0. -1.
          1    1    1    2  502    0 -0.13178806158E+02  0.25071934478E+02 -0.78372743878E+03  0.78423910966E+03  0.00000000000E+00 0. -1.
<mgrwt>
<rscale>  0 0.64174858E+02</rscale>
<asrwt>0</asrwt>
<pdfrwt beam="2">  1        2 0.21720173E+00 0.28324598E+02</pdfrwt>
<pdfrwt beam="1">  1        1 0.70702884E-02 0.14540056E+03</pdfrwt>
<totfact> 0.24296245E+03</totfact>
</mgrwt>
</event>
<event>
 5    1  0.8891499E-003  0.6703054E+02  0.7546771E-02  0.1388688E+00
          2   -1    0    0  502    0  0.00000000000E+00  0.00000000000E+00  0.37486444977E+04  0.37486444977E+04  0.00000000000E+00 0. -1.
         -2   -1    0    0    0  501 -0.00000000000E+00 -0.00000000000E+00 -0.63464499310E+02  0.63464499310E+02  0.00000000000E+00 0.  1.
         25    1    1    2    0    0 -0.57593993261E+01  0.22013841433E+02  0.18785380012E+04  0.18828297325E+04  0.12500000000E+03 0.  0.
          1    1    1    2  502    0  0.49883265335E+02  0.29160163071E+02  0.18487566024E+04  0.18496593281E+04  0.00000000000E+00 0. -1.
         -1    1    1    2    0  501 -0.44123866009E+02 -0.51174004504E+02 -0.42114605191E+02  0.79619936315E+02  0.00000000000E+00 0.  1.
<mgrwt>
<rscale>  0 0.62234223E+02</rscale>
<asrwt>0</asrwt>
<pdfrwt beam="1">  1        2 0.57671437E+00 0.57781098E+02</pdfrwt>
<pdfrwt beam="2">  1       -2 0.97637720E-02 0.67030545E+02</pdfrwt>
<totfact> 0.58867810E+01</totfact>
</mgrwt>
</event>
<event>
 5    1  0.8891499E-003  0.8078674E+02  0.7546771E-02  0.1473922E+00
          1   -1    0    0  502    0  0.00000000000E+00  0.00000000000E+00  0.29735244687E+03  0.29735244687E+03  0.00000000000E+00 0. -1.
         -1   -1    0    0    0  501 -0.00000000000E+00 -0.00000000000E+00 -0.14845290795E+03  0.14845290795E+03  0.00000000000E+00 0.  1.
         25    1    1    2    0    0 -0.57796168208E+02 -0.36877320341E+02  0.16087890117E+03  0.21495896040E+03  0.12500000000E+03 0.  0.
          2    1    1    2  502    0  0.82816329093E+02  0.34415518388E+02  0.89260108342E+02  0.12653196913E+03  0.00000000000E+00 0. -1.
         -2    1    1    2    0  501 -0.25020160886E+02  0.24618019535E+01 -0.10123947059E+03  0.10431442530E+03  0.00000000000E+00 0.  1.
<mgrwt>
<rscale>  0 0.45067260E+02</rscale>
<asrwt>0</asrwt>
<pdfrwt beam="1">  1        1 0.45746530E-01 0.80786743E+02</pdfrwt>
<pdfrwt beam="2">  1       -1 0.22838909E-01 0.25140981E+02</pdfrwt>
<totfact> 0.13255311E+03</totfact>
</mgrwt>
</event>
<event>
 5    1  0.8891499E-003  0.1119268E+03  0.7546771E-02  0.1288466E+00
          1   -1    0    0  501    0 -0.00000000000E+00  0.00000000000E+00  0.23699190296E+04  0.23699190296E+04  0.00000000000E+00 0. -1.
          2   -1    0    0  502    0  0.00000000000E+00 -0.00000000000E+00 -0.22472215115E+03  0.22472215115E+03  0.00000000000E+00 0. -1.
         25    1    1    2    0    0  0.76748955406E+02 -0.22550851146E+02  0.57877636321E+02  0.15929144305E+03  0.12500000000E+03 0.  0.
          2    1    1    2  501    0 -0.13377404590E+02 -0.81617070888E+02  0.22391182719E+04  0.22406452055E+04  0.00000000000E+00 0. -1.
          1    1    1    2  502    0 -0.63371550816E+02  0.10416792203E+03 -0.15179902977E+03  0.19470453224E+03  0.00000000000E+00 0. -1.
<mgrwt>
<rscale>  0 0.96213474E+02</rscale>
<asrwt>0</asrwt>
<pdfrwt beam="2">  1        2 0.34572640E-01 0.11192682E+03</pdfrwt>
<pdfrwt beam="1">  1        1 0.36460291E+00 0.82706114E+02</pdfrwt>
<totfact> 0.45928051E+01</totfact>
</mgrwt>
</event>
<event>
 5    1  0.8891499E-003  0.8043355E+02  0.7546771E-02  0.1375266E+00
          1   -1    0    0  501    0 -0.00000000000E+00  0.00000000000E+00  0.42247494599E+02  0.42247494599E+02  0.00000000000E+00 0. -1.
          2   -1    0    0  502    0  0.00000000000E+00 -0.00000000000E+00 -0.11354164614E+04  0.11354164614E+04  0.00000000000E+00 0. -1.
         25    1    1    2    0    0  0.77308356435E+01  0.60392177919E+02 -0.20984712951E+03  0.25172961434E+03  0.12500000000E+03 0.  0.
          2    1    1    2  501    0 -0.52758696738E+02  0.10041664435E+02 -0.18085926027E+02  0.56669355267E+02  0.00000000000E+00 0. -1.
          1    1    1    2  502    0  0.45027861094E+02 -0.70433842354E+02 -0.86523591124E+03  0.86926498636E+03  0.00000000000E+00 0. -1.
<mgrwt>
<rscale>  0 0.65724804E+02</rscale>
<asrwt>0</asrwt>
<pdfrwt beam="2">  1        2 0.17467943E+00 0.80433552E+02</pdfrwt>
<pdfrwt beam="1">  1        1 0.64996154E-02 0.53705820E+02</pdfrwt>
<totfact> 0.32278572E+03</totfact>
</mgrwt>
</event>
<event>
 5    1  0.8891499E-003  0.1201041E+03  0.7546771E-02  0.1284405E+00
         -2   -1    0    0    0  501 -0.00000000000E+00  0.00000000000E+00  0.51249540364E+03  0.51249540364E+03  0.00000000000E+00 0.  1.
          2   -1    0    0  502    0  0.00000000000E+00 -0.00000000000E+00 -0.12500123909E+04  0.12500123909E+04  0.00000000000E+00 0. -1.
         25    1    1    2    0    0  0.13675898286E+03 -0.40836035596E+02 -0.55702940664E+03  0.58845336353E+03  0.12500000000E+03 0.  0.
          1    1    1    2  502    0 -0.74988160027E+02  0.91798406780E+02 -0.66879821973E+03  0.67922104675E+03  0.00000000000E+00 0. -1.
         -1    1    1    2    0  501 -0.61770822831E+02 -0.50962371184E+02  0.48831063914E+03  0.49483338421E+03  0.00000000000E+00 0.  1.
<mgrwt>
<rscale>  0 0.98071041E+02</rscale>
<asrwt>0</asrwt>
<pdfrwt beam="2">  1        2 0.19230960E+00 0.12010409E+03</pdfrwt>
<pdfrwt beam="1">  1       -2 0.78845448E-01 0.80079946E+02</pdfrwt>
<totfact> 0.30170890E+01</totfact>
</mgrwt>
</event>
<event>
 5    1  0.8891499E-003  0.1013239E+03  0.7546771E-02  0.1397846E+00
          2   -1    0    0  502    0  0.00000000000E+00  0.00000000000E+00  0.31981361687E+03  0.31981361687E+03  0.00000000000E+00 0. -1.
          1   -1    0    0  501    0 -0.00000000000E+00 -0.00000000000E+00 -0.15181953036E+04  0.15181953036E+04  0.00000000000E+00 0. -1.
         25    1    1    2    0    0 -0.57702117891E+02  0.79898595793E+02 -0.16669624494E+03  0.23049068983E+03  0.12500000000E+03 0.  0.
          2    1    1    2  501    0  0.30552488018E+02  0.18127669123E+02 -0.13103698493E+04  0.13108513298E+04  0.00000000000E+00 0. -1.
          1    1    1    2  502    0  0.27149629873E+02 -0.98026264916E+02  0.27868440755E+03  0.29666690080E+03  0.00000000000E+00 0. -1.
<mgrwt>
<rscale>  0 0.59996597E+02</rscale>
<asrwt>0</asrwt>
<pdfrwt beam="1">  1        2 0.49202094E-01 0.10132393E+03</pdfrwt>
<pdfrwt beam="2">  1        1 0.23356851E+00 0.35525581E+02</pdfrwt>
<totfact> 0.11821755E+02</totfact>
</mgrwt>
</event>
<event>
 5    1  0.8891499E-003  0.4404560E+02  0.7546771E-02  0.1561802E+00
         -2   -1    0    0    0  501 -0.00000000000E+00  0.00000000000E+00  0.40770806231E+01  0.40770806231E+01  0.00000000000E+00 0.  1.
          2   -1    0    0  502    0  0.00000000000E+00 -0.00000000000E+00 -0.30689246859E+04  0.30689246859E+04  0.00000000000E+00 0. -1.
         25    1    1    2    0    0 -0.10520220539E+02 -0.28782824052E+02 -0.18085315657E+04  0.18131052231E+04  0.12500000000E+03 0.  0.
          1    1    1    2  502    0  0.18279316394E+02 -0.17874048675E+02 -0.91074366018E+03  0.91110242541E+03  0.00000000000E+00 0. -1.
         -1    1    1    2    0  501 -0.77590958554E+01  0.46656872727E+02 -0.34557237936E+03  0.34879411796E+03  0.00000000000E+00 0.  1.
<mgrwt>
<rscale>  0 0.33556895E+02</rscale>
<asrwt>0</asrwt>
<pdfrwt beam="2">  1        2 0.47214334E+00 0.25565896E+02</pdfrwt>
<pdfrwt beam="1">  1       -2 0.62724173E-03 0.44045600E+02</pdfrwt>
<totfact> 0.86594184E+03</totfact>
</mgrwt>
</event>
<event>
 5    1  0.8891499E-003  0.4204404E+02  0.7546771E-02  0.1547705E+00
         -1   -1    0    0    0  501 -0.00000000000E+00  0.00000000000E+00  0.58149229004E+02  0.58149229004E+02  0.00000000000E+00 0.  1.
          1   -1    0    0  502    0  0.00000000000E+00 -0.00000000000E+00 -0.12848159069E+04  0.12848159069E+04  0.00000000000E+00 0. -1.
         25    1    1    2    0    0  0.42964201134E+02 -0.32460910725E+02 -0.85495048328E+03  0.86571644444E+03  0.12500000000E+03 0.  0.
          2    1    1    2  502    0 -0.14301287792E+02  0.38559758252E+02 -0.41932870136E+03  0.42134064791E+03  0.00000000000E+00 0. -1.
         -2    1    1    2    0  501 -0.28662913342E+02 -0.60988475273E+01  0.47612506719E+02  0.55908043594E+02  0.00000000000E+00 0.  1.
<mgrwt>
<rscale>  0 0.35101042E+02</rscale>
<asrwt>0</asrwt>
<pdfrwt beam="2">  1        1 0.19766398E+00 0.42044044E+02</pdfrwt>
<pdfrwt beam="1">  1       -1 0.89460356E-02 0.29304582E+02</pdfrwt>
<totfact> 0.71789570E+02</totfact>
</mgrwt>
</event>
<event>
 5    1  0.8891499E-003  0.8595559E+02  0.7546771E-02  0.1357332E+00
          1   -1    0    0  501    0 -0.00000000000E+00  0.00000000000E+00  0.81469119596E+03  0.81469119596E+03  0.00000000000E+00 0. -1.
          2   -1    0    0  502    0  0.00000000000E+00 -0.00000000000E+00 -0.37699680995E+03  0.37699680995E+03  0.00000000000E+00 0. -1.
         25    1    1    2    0    0 -0.57547181076E+02  0.12922924281E+03  0.28724630798E+02  0.19095020204E+03  0.12500000000E+03 0.  0.
          2    1    1    2  501    0  0.26031180822E+02 -0.80126268063E+02  0.69942466946E+03  0.70448045357E+03  0.00000000000E+00 0. -1.
          1    1    1    2  502    0  0.31516000254E+02 -0.49102974742E+02 -0.29045491425E+03  0.29625735031E+03  0.00000000000E+00 0. -1.
<mgrwt>
<rscale>  0 0.70818374E+02</rscale>
<asrwt>0</asrwt>
<pdfrwt beam="2">  1        2 0.57999509E-01 0.58346897E+02</pdfrwt>
<pdfrwt beam="1">  1        1 0.12533711E+00 0.85955593E+02</pdfrwt>
<totfact> 0.27737776E+02</totfact>
</mgrwt>
</event>
<event>
 5    1  0.8891499E-003  0.1344132E+03  0.7546771E-02  0.1331138E+00
          2   -1    0    0  502    0  0.00000000000E+00  0.00000000000E+00  0.96969732413E+03  0.96969732413E+03  0.00000000000E+00 0. -1.
         -2   -1    0    0    0  501 -0.00000000000E+00 -0.00000000000E+00 -0.13118105437E+03  0.13118105437E+03  0.00000000000E+00 0.  1.
         25    1    1    2    0    0 -0.18893273049E+02 -0.17482388919E+03  0.62079318536E+03  0.65721345619E+03  0.12500000000E+03 0.  0.
          3    1    1    2  502    0  0.18585598400E+02  0.42895097260E+02  0.28965292626E+03  0.29340114439E+03  0.00000000000E+00 0. -1.
         -1    1    1    2    0  501  0.30767464881E+00  0.13192879193E+03 -0.71929841869E+02  0.15026377792E+03  0.00000000000E+00 0.  1.
<mgrwt>
<rscale>  0 0.79269197E+02</rscale>
<asrwt>0</asrwt>
<pdfrwt beam="1">  1        2 0.14918420E+00 0.46748410E+02</pdfrwt>
<pdfrwt beam="2">  1       -2 0.20181701E-01 0.13441325E+03</pdfrwt>
<totfact> 0.60800158E+02</totfact>
</mgrwt>
</event>
<event>
 5    1  0.8891499E-003  0.6955211E+02  0.7546771E-02  0.1419272E+00
          1   -1    0    0  501    0 -0.00000000000E+00  0.00000000000E+00  0.11205151244E+04  0.11205151244E+04  0.00000000000E+00 0. -1.
          2   -1    0    0  502    0  0.00000000000E+00 -0.00000000000E+00 -0.58862679487E+02  0.58862679487E+02  0.00000000000E+00 0. -1.
         25    1    1    2    0    0 -0.22674208603E+02 -0.25011061651E+02  0.39729403979E+03  0.41786029602E+03  0.12500000000E+03 0.  0.
          2    1    1    2  501    0  0.43236115689E+02  0.63650928800E+02  0.70052512941E+03  0.70473843331E+03  0.00000000000E+00 0. -1.
          1    1    1    2  502    0 -0.20561907086E+02 -0.38639867149E+02 -0.36166724320E+02  0.56779074529E+02  0.00000000000E+00 0. -1.
<mgrwt>
<rscale>  0 0.55175273E+02</rscale>
<asrwt>0</asrwt>
<pdfrwt beam="2">  1        2 0.90557977E-02 0.43770211E+02</pdfrwt>
<pdfrwt beam="1">  1        1 0.17238693E+00 0.69552115E+02</pdfrwt>
<totfact> 0.12542544E+03</totfact>
</mgrwt>
</event>
<event>
 5    1  0.8891499E-003  0.2970963E+03  0.7546771E-02  0.1240721E+00
          1   -1    0    0  501    0 -0.00000000000E+00  0.00000000000E+00  0.72068393000E+03  0.72068393000E+03  0.00000000000E+00 0. -1.
          2   -1    0    0  502    0  0.00000000000E+00 -0.00000000000E+00 -0.12552455832E+04  0.12552455832E+04  0.00000000000E+00 0. -1.
         25    1    1    2    0    0 -0.10106230398E+03  0.25090416336E+03  0.23162699872E+03  0.37741562635E+03  0.12500000000E+03 0.  0.
          2    1    1    2  501    0  0.30121929417E+02  0.39467732377E+02  0.39569437380E+03  0.39879702856E+03  0.00000000000E+00 0. -1.
          1    1    1    2  502    0  0.70940374561E+02 -0.29037189574E+03 -0.11618830257E+04  0.11997168583E+04  0.00000000000E+00 0. -1.
<mgrwt>
<rscale>  0 0.12145189E+03</rscale>
<asrwt>0</asrwt>
<pdfrwt beam="2">  1        2 0.19311471E+00 0.29709629E+03</pdfrwt>
<pdfrwt beam="1">  1        1 0.11087445E+00 0.49649094E+02</pdfrwt>
<totfact> 0.73889322E+01</totfact>
</mgrwt>
</event>
<event>
 5    1  0.8891499E-003  0.1282581E+03  0.7546771E-02  0.1322344E+00
          1   -1    0    0  501    0 -0.00000000000E+00  0.00000000000E+00  0.31346925716E+03  0.31346925716E+03  0.00000000000E+00 0. -1.
          2   -1    0    0  502    0  0.00000000000E+00 -0.00000000000E+00 -0.29547769493E+04  0.29547769493E+04  0.00000000000E+00 0. -1.
         25    1    1    2    0    0 -0.48447782052E+02  0.60807876974E+02 -0.53355034415E+03  0.55348509937E+03  0.12500000000E+03 0.  0.
          2    1    1    2  501    0  0.69207973998E+02 -0.10952148613E+03  0.28937028757E+03  0.31704867594E+03  0.00000000000E+00 0. -1.
          1    1    1    2  502    0 -0.20760191947E+02  0.48713609151E+02 -0.23971276356E+04  0.23977124312E+04  0.00000000000E+00 0. -1.
<mgrwt>
<rscale>  0 0.82411326E+02</rscale>
<asrwt>0</asrwt>
<pdfrwt beam="2">  1        2 0.45458106E+00 0.52952821E+02</pdfrwt>
<pdfrwt beam="1">  1        1 0.48226041E-01 0.12825807E+03</pdfrwt>
<totfact> 0.32550835E+01</totfact>
</mgrwt>
</event>
<event>
 5    1  0.8891499E-003  0.3870225E+02  0.7546771E-02  0.1571323E+00
          2   -1    0    0  502    0  0.00000000000E+00  0.00000000000E+00  0.16035422337E+03  0.16035422337E+03  0.00000000000E+00 0. -1.
         -2   -1    0    0    0  501 -0.00000000000E+00 -0.00000000000E+00 -0.50159150220E+03  0.50159150220E+03  0.00000000000E+00 0.  1.
         25    1    1    2    0    0  0.22064565407E+02 -0.82168402924E+01 -0.21871875778E+03  0.25301631670E+03  0.12500000000E+03 0.  0.
          1    1    1    2  502    0  0.16002333004E+02  0.22248843784E+02  0.14032348376E+03  0.14297470338E+03  0.00000000000E+00 0. -1.
         -1    1    1    2    0  501 -0.38066898411E+02 -0.14032003491E+02 -0.26284200481E+03  0.26595470549E+03  0.00000000000E+00 0.  1.
<mgrwt>
<rscale>  0 0.32567953E+02</rscale>
<asrwt>0</asrwt>
<pdfrwt beam="1">  1        2 0.24669881E-01 0.27405943E+02</pdfrwt>
<pdfrwt beam="2">  1       -2 0.77167923E-01 0.38702247E+02</pdfrwt>
<totfact> 0.32440741E+02</totfact>
</mgrwt>
</event>
<event>
 5    1  0.8891499E-003  0.6828620E+02  0.7546771E-02  0.1486921E+00
          2   -1    0    0  502    0  0.00000000000E+00  0.00000000000E+00  0.60823279538E+03  0.60823279538E+03  0.00000000000E+00 0. -1.
          1   -1    0    0  501    0 -0.00000000000E+00 -0.00000000000E+00 -0.42524442169E+03  0.42524442169E+03  0.00000000000E+00 0. -1.
         25    1    1    2    0    0 -0.56851128955E+02 -0.69418593169E+02  0.35716388618E+03  0.38889848743E+03  0.12500000000E+03 0.  0.
          2    1    1    2  501    0  0.18249266325E+02  0.20082253284E+02 -0.40474366528E+03  0.40565227376E+03  0.00000000000E+00 0. -1.
          1    1    1    2  502    0  0.38601862631E+02  0.49336339885E+02  0.23056815280E+03  0.23892645587E+03  0.00000000000E+00 0. -1.
<mgrwt>
<rscale>  0 0.43046216E+02</rscale>
<asrwt>0</asrwt>
<pdfrwt beam="1">  1        2 0.93574276E-01 0.68286200E+02</pdfrwt>
<pdfrwt beam="2">  1        1 0.65422219E-01 0.27135449E+02</pdfrwt>
<totfact> 0.40512918E+02</totfact>
</mgrwt>
</event>
<event>
 5    1  0.8891499E-003  0.1296875E+03  0.7546771E-02  0.1317600E+00
          1   -1    0    0  501    0 -0.00000000000E+00  0.00000000000E+00  0.64238384140E+03  0.64238384140E+03  0.00000000000E+00 0. -1.
          2   -1    0    0  502    0  0.00000000000E+00 -0.00000000000E+00 -0.19973298714E+04  0.19973298714E+04  0.00000000000E+00 0. -1.
         25    1    1    2    0    0 -0.16892467140E+02  0.75464584078E+02 -0.13727468781E+02  0.14762690234E+03  0.12500000000E+03 0.  0.
          2    1    1    2  501    0 -0.21216708412E+02  0.50348792380E+02  0.57187647562E+03  0.57448050704E+03  0.00000000000E+00 0. -1.
          1    1    1    2  502    0  0.38109175552E+02 -0.12581337646E+03 -0.19130950368E+04  0.19176063034E+04  0.00000000000E+00 0. -1.
<mgrwt>
<rscale>  0 0.84176450E+02</rscale>
<asrwt>0</asrwt>
<pdfrwt beam="2">  1        2 0.30728151E+00 0.12968751E+03</pdfrwt>
<pdfrwt beam="1">  1        1 0.98828285E-01 0.54636523E+02</pdfrwt>
<totfact> 0.37418411E+01</totfact>
</mgrwt>
</event>
<event>
 5    1  0.8891499E-003  0.1651564E+03  0.7546771E-02  0.1281376E+00
          2   -1    0    0  502    0  0.00000000000E+00  0.00000000000E+00  0.91994141660E+03  0.91994141660E+03  0.00000000000E+00 0. -1.
          1   -1    0    0  501    0 -0.00000000000E+00 -0.00000000000E+00 -0.10643222743E+04  0.10643222743E+04  0.00000000000E+00 0. -1.
         25    1    1    2    0    0 -0.10896969567E+03  0.13157463343E+03  0.17616192345E+03  0.27539844228E+03  0.12500000000E+03 0.  0.
          2    1    1    2  501    0  0.54299170832E+02 -0.15612601419E+03 -0.10066571909E+04  0.10201384378E+04  0.00000000000E+00 0. -1.
          1    1    1    2  502    0  0.54670524839E+02  0.24551380755E+02  0.68611440979E+03  0.68872681079E+03  0.00000000000E+00 0. -1.
<mgrwt>
<rscale>  0 0.99488013E+02</rscale>
<asrwt>0</asrwt>
<pdfrwt beam="1">  1        2 0.14152945E+00 0.59930264E+02</pdfrwt>
<pdfrwt beam="2">  1        1 0.16374189E+00 0.16515637E+03</pdfrwt>
<totfact> 0.64277472E+01</totfact>
</mgrwt>
</event>
<event>
 5    1  0.8891499E-003  0.6705810E+02  0.7546771E-02  0.1526222E+00
          1   -1    0    0  501    0 -0.00000000000E+00  0.00000000000E+00  0.15973917970E+04  0.15973917970E+04  0.00000000000E+00 0. -1.
          2   -1    0    0  502    0  0.00000000000E+00 -0.00000000000E+00 -0.11403263351E+03  0.11403263351E+03  0.00000000000E+00 0. -1.
         25    1    1    2    0    0  0.69352388160E+02 -0.13742288627E+02  0.10410819614E+04  0.10509401765E+04  0.12500000000E+03 0.  0.
          2    1    1    2  501    0 -0.58388227407E+02  0.31820377181E+02  0.54832854859E+03  0.55234583252E+03  0.00000000000E+00 0. -1.
          1    1    1    2  502    0 -0.10964160753E+02 -0.18078088555E+02 -0.10605134650E+03  0.10813842148E+03  0.00000000000E+00 0. -1.
<mgrwt>
<rscale>  0 0.37653887E+02</rscale>
<asrwt>0</asrwt>
<pdfrwt beam="2">  1        2 0.17543483E-01 0.21143087E+02</pdfrwt>
<pdfrwt beam="1">  1        1 0.24575257E+00 0.67058099E+02</pdfrwt>
<totfact> 0.27668654E+02</totfact>
</mgrwt>
</event>
<event>
 5    1  0.8891499E-003  0.7344063E+02  0.7546771E-02  0.1417080E+00
          1   -1    0    0  501    0 -0.00000000000E+00  0.00000000000E+00  0.13398548440E+04  0.13398548440E+04  0.00000000000E+00 0. -1.
          2   -1    0    0  502    0  0.00000000000E+00 -0.00000000000E+00 -0.31262073932E+03  0.31262073932E+03  0.00000000000E+00 0. -1.
         25    1    1    2    0    0  0.57311714507E+02 -0.35764361436E+00  0.31679846833E+03  0.34535638124E+03  0.12500000000E+03 0.  0.
          2    1    1    2  501    0 -0.63198908256E+02  0.42103823284E+02  0.10058495506E+04  0.10087121256E+04  0.00000000000E+00 0. -1.
          1    1    1    2  502    0  0.58871937487E+01 -0.41746179670E+02 -0.29541391423E+03  0.29840707648E+03  0.00000000000E+00 0. -1.
<mgrwt>
<rscale>  0 0.55643525E+02</rscale>
<asrwt>0</asrwt>
<pdfrwt beam="2">  1        2 0.48095499E-01 0.42159252E+02</pdfrwt>
<pdfrwt beam="1">  1        1 0.20613151E+00 0.73440626E+02</pdfrwt>
<totfact> 0.14484754E+02</totfact>
</mgrwt>
</event>
<event>
 5    1  0.8891499E-003  0.7579555E+02  0.7546771E-02  0.1407313E+00
          1   -1    0    0  501    0 -0.00000000000E+00  0.00000000000E+00  0.13241456078E+04  0.13241456078E+04  0.00000000000E+00 0. -1.
          2   -1    0    0  502    0  0.00000000000E+00 -0.00000000000E+00 -0.10217257619E+03  0.10217257619E+03  0.00000000000E+00 0. -1.
         25    1    1    2    0    0  0.32647552735E+01  0.10969961477E+03  0.13415979158E+03  0.21370192742E+03  0.12500000000E+03 0.  0.
          2    1    1    2  501    0  0.19893392121E+02 -0.72200677526E+02  0.11410489235E+04  0.11435039706E+04  0.00000000000E+00 0. -1.
          1    1    1    2  502    0 -0.23158147394E+02 -0.37498937244E+02 -0.53235683457E+02  0.69112286015E+02  0.00000000000E+00 0. -1.
<mgrwt>
<rscale>  0 0.57797683E+02</rscale>
<asrwt>0</asrwt>
<pdfrwt beam="2">  1        2 0.15718859E-01 0.44073462E+02</pdfrwt>
<pdfrwt beam="1">  1        1 0.20371470E+00 0.75795545E+02</pdfrwt>
<totfact> 0.48202096E+02</totfact>
</mgrwt>
</event>
<event>
 5    1  0.8891499E-003  0.4151413E+02  0.7546771E-02  0.1504144E+00
          2   -1    0    0  502    0  0.00000000000E+00  0.00000000000E+00  0.47768487886E+03  0.47768487886E+03  0.00000000000E+00 0. -1.
          1   -1    0    0  501    0 -0.00000000000E+00 -0.00000000000E+00 -0.61097812346E+03  0.61097812346E+03  0.00000000000E+00 0. -1.
         25    1    1    2    0    0  0.53917240458E+02 -0.59246286686E+02 -0.17651135648E+03  0.23064789241E+03  0.12500000000E+03 0.  0.
          2    1    1    2  501    0 -0.30713152627E+02  0.25035447499E+02 -0.40548269629E+03  0.40741414847E+03  0.00000000000E+00 0. -1.
          1    1    1    2  502    0 -0.23204087831E+02  0.34210839187E+02  0.44870080817E+03  0.45060096145E+03  0.00000000000E+00 0. -1.
<mgrwt>
<rscale>  0 0.40558121E+02</rscale>
<asrwt>0</asrwt>
<pdfrwt beam="1">  1        2 0.73489981E-01 0.41514131E+02</pdfrwt>
<pdfrwt beam="2">  1        1 0.93996634E-01 0.39624126E+02</pdfrwt>
<totfact> 0.33510822E+02</totfact>
</mgrwt>
</event>
<event>
 5    1  0.8891499E-003  0.6312775E+02  0.7546771E-02  0.1482484E+00
         -1   -1    0    0    0  502 -0.00000000000E+00  0.00000000000E+00  0.92580391033E+03  0.92580391033E+03  0.00000000000E+00 0.  1.
         -2   -1    0    0    0  501  0.00000000000E+00 -0.00000000000E+00 -0.15506914821E+04  0.15506914821E+04  0.00000000000E+00 0.  1.
         25    1    1    2    0    0  0.35375547497E+02  0.44975373241E+01 -0.79616850757E+03  0.80670995385E+03  0.12500000000E+03 0.  0.
         -2    1    1    2    0  502 -0.62538507980E+02  0.88857526899E+01  0.91914281481E+03  0.92131077037E+03  0.00000000000E+00 0.  1.
         -1    1    1    2    0  501  0.27162960482E+02 -0.13383290014E+02 -0.74786187899E+03  0.74847466819E+03  0.00000000000E+00 0.  1.
<mgrwt>
<rscale>  0 0.43721520E+02</rscale>
<asrwt>0</asrwt>
<pdfrwt beam="2">  1       -2 0.23856792E+00 0.30280999E+02</pdfrwt>
<pdfrwt beam="1">  1       -1 0.14243137E+00 0.63127751E+02</pdfrwt>
<totfact> 0.35969429E-01</totfact>
</mgrwt>
</event>
<event>
 5    1  0.8891499E-003  0.6104720E+02  0.7546771E-02  0.1501121E+00
         -2   -1    0    0    0  501 -0.00000000000E+00  0.00000000000E+00  0.10369745165E+04  0.10369745165E+04  0.00000000000E+00 0.  1.
          2   -1    0    0  502    0  0.00000000000E+00 -0.00000000000E+00 -0.72536472993E+03  0.72536472993E+03  0.00000000000E+00 0. -1.
         25    1    1    2    0    0 -0.28348481814E+02 -0.34114815319E+02  0.57010453951E+03  0.58533037083E+03  0.12500000000E+03 0.  0.
          1    1    1    2  502    0 -0.27355495156E+02 -0.29035412680E+01 -0.71505085891E+03  0.71557982398E+03  0.00000000000E+00 0. -1.
         -1    1    1    2    0  501  0.55703976970E+02  0.37018356587E+02  0.45655610597E+03  0.46142905162E+03  0.00000000000E+00 0.  1.
<mgrwt>
<rscale>  0 0.40979959E+02</rscale>
<asrwt>0</asrwt>
<pdfrwt beam="2">  1        2 0.11159457E+00 0.27509156E+02</pdfrwt>
<pdfrwt beam="1">  1       -2 0.15953454E+00 0.61047204E+02</pdfrwt>
<totfact> 0.12772313E+01</totfact>
</mgrwt>
</event>
<event>
 5    1  0.8891499E-003  0.6778581E+02  0.7546771E-02  0.1520537E+00
          1   -1    0    0  501    0 -0.00000000000E+00  0.00000000000E+00  0.88747668407E+02  0.88747668407E+02  0.00000000000E+00 0. -1.
          2   -1    0    0  502    0  0.00000000000E+00 -0.00000000000E+00 -0.90306806086E+03  0.90306806086E+03  0.00000000000E+00 0. -1.
         25    1    1    2    0    0  0.48936853980E+02 -0.36452784067E+02 -0.14320870044E+03  0.19964306405E+03  0.12500000000E+03 0.  0.
          2    1    1    2  501    0 -0.65233000257E+02  0.22089145647E+02  0.40720590243E+02  0.80009006666E+02  0.00000000000E+00 0. -1.
          1    1    1    2  502    0  0.16296146277E+02  0.14363638420E+02 -0.71183228225E+03  0.71216365854E+03  0.00000000000E+00 0. -1.
<mgrwt>
<rscale>  0 0.38373104E+02</rscale>
<asrwt>0</asrwt>
<pdfrwt beam="2">  1        2 0.13893355E+00 0.21722764E+02</pdfrwt>
<pdfrwt beam="1">  1        1 0.13653488E-01 0.67785809E+02</pdfrwt>
<totfact> 0.18184495E+03</totfact>
</mgrwt>
</event>
<event>
 5    1  0.8891499E-003  0.8411507E+02  0.7546771E-02  0.1366005E+00
          1   -1    0    0  501    0 -0.00000000000E+00  0.00000000000E+00  0.22092481380E+03  0.22092481380E+03  0.00000000000E+00 0. -1.
          2   -1    0    0  502    0  0.00000000000E+00 -0.00000000000E+00 -0.19859308182E+03  0.19859308182E+03  0.00000000000E+00 0. -1.
         25    1    1    2    0    0  0.11729722058E+03 -0.23174256761E+02 -0.98910257153E+02  0.19925843295E+03  0.12500000000E+03 0.  0.
          2    1    1    2  501    0 -0.55403531463E+02 -0.20925943089E+01  0.14020529199E+03  0.15076953987E+03  0.00000000000E+00 0. -1.
          1    1    1    2  502    0 -0.61893689118E+02  0.25266851070E+02 -0.18963302855E+02  0.69489922801E+02  0.00000000000E+00 0. -1.
<mgrwt>
<rscale>  0 0.68290520E+02</rscale>
<asrwt>0</asrwt>
<pdfrwt beam="2">  1        2 0.30552782E-01 0.84115074E+02</pdfrwt>
<pdfrwt beam="1">  1        1 0.33988433E-01 0.55443036E+02</pdfrwt>
<totfact> 0.28793211E+03</totfact>
</mgrwt>
</event>
<event>
 5    1  0.8891499E-003  0.5075437E+02  0.7546771E-02  0.1493036E+00
          2   -1    0    0  502    0  0.00000000000E+00  0.00000000000E+00  0.43103911216E+03  0.43103911216E+03  0.00000000000E+00 0. -1.
         -2   -1    0    0    0  501 -0.00000000000E+00 -0.00000000000E+00 -0.57074048948E+03  0.57074048948E+03  0.00000000000E+00 0.  1.
         25    1    1    2    0    0 -0.16417744066E+02  0.16989314048E+01  0.25060625385E+03  0.28053684813E+03  0.12500000000E+03 0.  0.
          1    1    1    2  502    0 -0.34141137752E+02 -0.76418444235E+01  0.16243542567E+03  0.16616041221E+03  0.00000000000E+00 0. -1.
         -1    1    1    2    0  501  0.50558881817E+02  0.59429130188E+01 -0.55274305684E+03  0.55508234131E+03  0.00000000000E+00 0.  1.
<mgrwt>
<rscale>  0 0.42138921E+02</rscale>
<asrwt>0</asrwt>
<pdfrwt beam="1">  1        2 0.66313710E-01 0.34985927E+02</pdfrwt>
<pdfrwt beam="2">  1       -2 0.87806229E-01 0.50754369E+02</pdfrwt>
<totfact> 0.90462301E+01</totfact>
</mgrwt>
</event>
<event>
 5    1  0.8891499E-003  0.6543471E+02  0.7546771E-02  0.1463788E+00
          1   -1    0    0  501    0 -0.00000000000E+00  0.00000000000E+00  0.12285756436E+03  0.12285756436E+03  0.00000000000E+00 0. -1.
          2   -1    0    0  502    0  0.00000000000E+00 -0.00000000000E+00 -0.42357451178E+03  0.42357451178E+03  0.00000000000E+00 0. -1.
         25    1    1    2    0    0  0.84814983707E+02  0.56328142441E+01 -0.95942335533E+01  0.15146735416E+03  0.12500000000E+03 0.  0.
          2    1    1    2  501    0 -0.25812641855E+02  0.21164783104E+02  0.43101673779E+02  0.54516005043E+02  0.00000000000E+00 0. -1.
          3    1    1    2  502    0 -0.59002341852E+02 -0.26797597348E+02 -0.33422438765E+03  0.34044871694E+03  0.00000000000E+00 0. -1.
<mgrwt>
<rscale>  0 0.46735708E+02</rscale>
<asrwt>0</asrwt>
<pdfrwt beam="2">  1        2 0.65165310E-01 0.65434709E+02</pdfrwt>
<pdfrwt beam="1">  1        1 0.18901163E-01 0.33380242E+02</pdfrwt>
<totfact> 0.25987630E+03</totfact>
</mgrwt>
</event>
<event>
 5    1  0.8891499E-003  0.1006961E+03  0.7546771E-02  0.1358760E+00
          2   -1    0    0  502    0  0.00000000000E+00  0.00000000000E+00  0.23165926059E+04  0.23165926059E+04  0.00000000000E+00 0. -1.
         -2   -1    0    0    0  501 -0.00000000000E+00 -0.00000000000E+00 -0.37372202916E+02  0.37372202916E+02  0.00000000000E+00 0.  1.
         25    1    1    2    0    0  0.34581399169E+02  0.65148625075E+02  0.80359096873E+03  0.81659271461E+03  0.12500000000E+03 0.  0.
          1    1    1    2  502    0  0.49132329298E+02 -0.27635388833E+01  0.14165660817E+04  0.14174205751E+04  0.00000000000E+00 0. -1.
         -1    1    1    2    0  501 -0.83713728467E+02 -0.62385086192E+02  0.59063352500E+02  0.11995151905E+03  0.00000000000E+00 0.  1.
<mgrwt>
<rscale>  0 0.70393548E+02</rscale>
<asrwt>0</asrwt>
<pdfrwt beam="1">  1        2 0.35639875E+00 0.49209988E+02</pdfrwt>
<pdfrwt beam="2">  1       -2 0.57495715E-02 0.10069605E+03</pdfrwt>
<totfact> 0.91144329E+02</totfact>
</mgrwt>
</event>
<event>
 5    1  0.8891499E-003  0.4274806E+02  0.7546771E-02  0.1533818E+00
         -2   -1    0    0    0  501  0.00000000000E+00  0.00000000000E+00  0.51656645687E+03  0.51656645687E+03  0.00000000000E+00 0.  1.
         -1   -1    0    0    0  502 -0.00000000000E+00 -0.00000000000E+00 -0.92102370992E+02  0.92102370992E+02  0.00000000000E+00 0.  1.
         25    1    1    2    0    0 -0.71036201135E+02  0.12231571986E+02  0.11454104246E+03  0.18422921493E+03  0.12500000000E+03 0.  0.
         -2    1    1    2    0  502  0.31519453476E+02  0.12886372733E+01 -0.51617948424E+02  0.60494207433E+02  0.00000000000E+00 0.  1.
         -1    1    1    2    0  501  0.39516747659E+02 -0.13520209259E+02  0.36154099184E+03  0.36394540550E+03  0.00000000000E+00 0.  1.
<mgrwt>
<rscale>  0 0.36722214E+02</rscale>
<asrwt>0</asrwt>
<pdfrwt beam="1">  1       -2 0.79471761E-01 0.42748058E+02</pdfrwt>
<pdfrwt beam="2">  1       -1 0.14169596E-01 0.31545785E+02</pdfrwt>
<totfact> 0.34693910E+02</totfact>
</mgrwt>
</event>
<event>
 5    1  0.8891499E-003  0.7779822E+02  0.7546771E-02  0.1370880E+00
          1   -1    0    0  501    0 -0.00000000000E+00  0.00000000000E+00  0.65720681160E+03  0.65720681160E+03  0.00000000000E+00 0. -1.
          2   -1    0    0  502    0  0.00000000000E+00 -0.00000000000E+00 -0.20649178390E+03  0.20649178390E+03  0.00000000000E+00 0. -1.
         25    1    1    2    0    0  0.71252589380E+02 -0.91668945059E+02  0.21437800907E+03  0.27397638174E+03  0.12500000000E+03 0.  0.
          2    1    1    2  501    0 -0.24048646916E+01  0.57518058249E+02  0.40252699360E+03  0.40662278709E+03  0.00000000000E+00 0. -1.
          1    1    1    2  502    0 -0.68847724689E+02  0.34150886810E+02 -0.16618997497E+03  0.18309942666E+03  0.00000000000E+00 0. -1.
<mgrwt>
<rscale>  0 0.66923179E+02</rscale>
<asrwt>0</asrwt>
<pdfrwt beam="2">  1        2 0.31767967E-01 0.77798217E+02</pdfrwt>
<pdfrwt beam="1">  1        1 0.10110874E+00 0.57568311E+02</pdfrwt>
<totfact> 0.71759579E+02</totfact>
</mgrwt>
</event>
<event>
 5    1  0.8891499E-003  0.4335904E+02  0.7546771E-02  0.1603340E+00
          1   -1    0    0  501    0 -0.00000000000E+00  0.00000000000E+00  0.27821736334E+04  0.27821736334E+04  0.00000000000E+00 0. -1.
          2   -1    0    0  502    0  0.00000000000E+00 -0.00000000000E+00 -0.75654504926E+01  0.75654504926E+01  0.00000000000E+00 0. -1.
         25    1    1    2    0    0 -0.36420264040E+02  0.88765119671E+01  0.19647805961E+04  0.19691097021E+04  0.12500000000E+03 0.  0.
          2    1    1    2  501    0  0.45126197318E+02  0.92534710779E+01  0.79319323816E+03  0.79452974360E+03  0.00000000000E+00 0. -1.
          1    1    1    2  502    0 -0.87059332782E+01 -0.18129983045E+02  0.16634348698E+02  0.26099638236E+02  0.00000000000E+00 0. -1.
<mgrwt>
<rscale>  0 0.29530217E+02</rscale>
<asrwt>0</asrwt>
<pdfrwt beam="2">  1        2 0.11639177E-02 0.20111926E+02</pdfrwt>
<pdfrwt beam="1">  1        1 0.42802590E+00 0.43359037E+02</pdfrwt>
<totfact> 0.14211283E+03</totfact>
</mgrwt>
</event>
<event>
 5    1  0.8891499E-003  0.2707439E+03  0.7546771E-02  0.1133728E+00
          1   -1    0    0  501    0 -0.00000000000E+00  0.00000000000E+00  0.14636926155E+04  0.14636926155E+04  0.00000000000E+00 0. -1.
          2   -1    0    0  502    0  0.00000000000E+00 -0.00000000000E+00 -0.23659836605E+04  0.23659836605E+04  0.00000000000E+00 0. -1.
         25    1    1    2    0    0 -0.13427690384E+03 -0.35961164430E+03  0.22140723218E+02  0.40430932866E+03  0.12500000000E+03 0.  0.
          2    1    1    2  501    0 -0.17247137100E+02  0.26411721378E+03  0.12327087115E+04  0.12608037649E+04  0.00000000000E+00 0. -1.
          1    1    1    2  502    0  0.15152404094E+03  0.95494430516E+02 -0.21571404797E+04  0.21645631823E+04  0.00000000000E+00 0. -1.
<mgrwt>
<rscale>  0 0.22020826E+03</rscale>
<asrwt>0</asrwt>
<pdfrwt beam="2">  1        2 0.36399749E+00 0.17910534E+03</pdfrwt>
<pdfrwt beam="1">  1        1 0.22518348E+00 0.27074391E+03</pdfrwt>
<totfact> 0.52091513E+00</totfact>
</mgrwt>
</event>
<event>
 5    1  0.8891499E-003  0.7614890E+02  0.7546771E-02  0.1403265E+00
          1   -1    0    0  501    0 -0.00000000000E+00  0.00000000000E+00  0.36966950135E+03  0.36966950135E+03  0.00000000000E+00 0. -1.
          2   -1    0    0  502    0  0.00000000000E+00 -0.00000000000E+00 -0.12251360954E+04  0.12251360954E+04  0.00000000000E+00 0. -1.
         25    1    1    2    0    0 -0.30744471473E+01  0.60395358016E+02  0.14871792582E+03  0.20346762139E+03  0.12500000000E+03 0.  0.
          2    1    1    2  501    0 -0.45267795557E+02 -0.13139882216E+01  0.18969218912E+03  0.19502314348E+03  0.00000000000E+00 0. -1.
          1    1    1    2  502    0  0.48342242704E+02 -0.59081369794E+02 -0.11938767090E+04  0.11963148319E+04  0.00000000000E+00 0. -1.
<mgrwt>
<rscale>  0 0.58724310E+02</rscale>
<asrwt>0</asrwt>
<pdfrwt beam="2">  1        2 0.18848248E+00 0.76148896E+02</pdfrwt>
<pdfrwt beam="1">  1        1 0.56872231E-01 0.45286862E+02</pdfrwt>
<totfact> 0.19563552E+02</totfact>
</mgrwt>
</event>
<event>
 5    1  0.8891499E-003  0.1335857E+03  0.7546771E-02  0.1234327E+00
          2   -1    0    0  502    0  0.00000000000E+00  0.00000000000E+00  0.89460709225E+03  0.89460709225E+03  0.00000000000E+00 0. -1.
          1   -1    0    0  501    0 -0.00000000000E+00 -0.00000000000E+00 -0.31830321490E+03  0.31830321490E+03  0.00000000000E+00 0. -1.
         25    1    1    2    0    0 -0.13709952846E+03  0.16750666781E+03  0.28463727300E+03  0.37881148563E+03  0.12500000000E+03 0.  0.
          2    1    1    2  501    0  0.26034740549E+02 -0.12806766593E+03 -0.24874408572E+03  0.28098532871E+03  0.00000000000E+00 0. -1.
          1    1    1    2  502    0  0.11106478791E+03 -0.39439001881E+02  0.54041069007E+03  0.55311349280E+03  0.00000000000E+00 0. -1.
<mgrwt>
<rscale>  0 0.12547638E+03</rscale>
<asrwt>0</asrwt>
<pdfrwt beam="1">  1        2 0.13763186E+00 0.11785933E+03</pdfrwt>
<pdfrwt beam="2">  1        1 0.48969726E-01 0.13358570E+03</pdfrwt>
<totfact> 0.35343358E+02</totfact>
</mgrwt>
</event>
<event>
 5    1  0.8891499E-003  0.1081721E+03  0.7546771E-02  0.1345849E+00
          2   -1    0    0  502    0  0.00000000000E+00  0.00000000000E+00  0.10575039527E+04  0.10575039527E+04  0.00000000000E+00 0. -1.
          1   -1    0    0  501    0 -0.00000000000E+00 -0.00000000000E+00 -0.10466589055E+03  0.10466589055E+03  0.00000000000E+00 0. -1.
         25    1    1    2    0    0  0.49866931602E+02 -0.13910039007E+03  0.11875774159E+03  0.22707714674E+03  0.12500000000E+03 0.  0.
          2    1    1    2  501    0 -0.26377726597E+02  0.93692311495E+02 -0.20938137529E+01  0.97357165888E+02  0.00000000000E+00 0. -1.
          1    1    1    2  502    0 -0.23489205006E+02  0.45408078578E+02  0.83617413428E+03  0.83773553058E+03  0.00000000000E+00 0. -1.
<mgrwt>
<rscale>  0 0.74365041E+02</rscale>
<asrwt>0</asrwt>
<pdfrwt beam="1">  1        2 0.16269291E+00 0.51123736E+02</pdfrwt>
<pdfrwt beam="2">  1        1 0.16102445E-01 0.10817205E+03</pdfrwt>
<totfact> 0.11796247E+03</totfact>
</mgrwt>
</event>
<event>
 5    1  0.8891499E-003  0.5056602E+02  0.7546771E-02  0.1550309E+00
          1   -1    0    0  501    0 -0.00000000000E+00  0.00000000000E+00  0.32975799444E+03  0.32975799444E+03  0.00000000000E+00 0. -1.
          2   -1    0    0  502    0  0.00000000000E+00 -0.00000000000E+00 -0.15432681698E+04  0.15432681698E+04  0.00000000000E+00 0. -1.
         25    1    1    2    0    0 -0.65909137317E-01 -0.70237455946E+02 -0.31842325106E+03  0.34921579486E+03  0.12500000000E+03 0.  0.
          2    1    1    2  501    0 -0.11342138084E+02  0.49166273078E+02  0.31221736886E+03  0.31626832267E+03  0.00000000000E+00 0. -1.
          1    1    1    2  502    0  0.11408047221E+02  0.21071182868E+02 -0.12073042932E+04  0.12075420467E+04  0.00000000000E+00 0. -1.
<mgrwt>
<rscale>  0 0.34808357E+02</rscale>
<asrwt>0</asrwt>
<pdfrwt beam="2">  1        2 0.23742588E+00 0.23961183E+02</pdfrwt>
<pdfrwt beam="1">  1        1 0.50731998E-01 0.50566024E+02</pdfrwt>
<totfact> 0.17080155E+02</totfact>
</mgrwt>
</event>
<event>
 5    1  0.8891499E-003  0.3856402E+02  0.7546771E-02  0.1559980E+00
         -1   -1    0    0    0  501 -0.00000000000E+00  0.00000000000E+00  0.14385641524E+03  0.14385641524E+03  0.00000000000E+00 0.  1.
          1   -1    0    0  502    0  0.00000000000E+00 -0.00000000000E+00 -0.13783162144E+03  0.13783162144E+03  0.00000000000E+00 0. -1.
         25    1    1    2    0    0  0.20311635053E+02  0.52628438990E+02  0.78947441204E+02  0.15824036647E+03  0.12500000000E+03 0.  0.
          2    1    1    2  502    0 -0.22839189521E+02 -0.18732483918E+02 -0.82914816473E+02  0.88019323574E+02  0.00000000000E+00 0. -1.
         -2    1    1    2    0  501  0.25275544683E+01 -0.33895955072E+02  0.99921690686E+01  0.35428346625E+02  0.00000000000E+00 0.  1.
<mgrwt>
<rscale>  0 0.33751012E+02</rscale>
<asrwt>0</asrwt>
<pdfrwt beam="2">  1        1 0.21204865E-01 0.29538695E+02</pdfrwt>
<pdfrwt beam="1">  1       -1 0.22131756E-01 0.38564020E+02</pdfrwt>
<totfact> 0.34978306E+03</totfact>
</mgrwt>
</event>
<event>
 5    1  0.8891499E-003  0.1265799E+03  0.7546771E-02  0.1322325E+00
          1   -1    0    0  501    0 -0.00000000000E+00  0.00000000000E+00  0.95210027729E+03  0.95210027729E+03  0.00000000000E+00 0. -1.
          2   -1    0    0  502    0  0.00000000000E+00 -0.00000000000E+00 -0.39832228279E+02  0.39832228279E+02  0.00000000000E+00 0. -1.
         25    1    1    2    0    0 -0.98403704800E+02 -0.54059082403E+02  0.47968887340E+03  0.50826379841E+03  0.12500000000E+03 0.  0.
          2    1    1    2  501    0 -0.35906038889E+02  0.39882447326E+02  0.25489717494E+03  0.26048497658E+03  0.00000000000E+00 0. -1.
          1    1    1    2  502    0  0.13430974369E+03  0.14176635077E+02  0.17768200068E+03  0.22318373058E+03  0.00000000000E+00 0. -1.
<mgrwt>
<rscale>  0 0.82418548E+02</rscale>
<asrwt>0</asrwt>
<pdfrwt beam="2">  1        2 0.61280358E-02 0.12657990E+03</pdfrwt>
<pdfrwt beam="1">  1        1 0.14647695E+00 0.53664264E+02</pdfrwt>
<totfact> 0.29541043E+03</totfact>
</mgrwt>
</event>
<event>
 5    1  0.8891499E-003  0.5117398E+02  0.7546771E-02  0.1522454E+00
         -1   -1    0    0    0  501 -0.00000000000E+00  0.00000000000E+00  0.43685275836E+03  0.43685275836E+03  0.00000000000E+00 0.  1.
          1   -1    0    0  502    0  0.00000000000E+00 -0.00000000000E+00 -0.39233656742E+03  0.39233656742E+03  0.00000000000E+00 0. -1.
         25    1    1    2    0    0  0.74140225548E+02 -0.21053874012E+02 -0.78612072934E+02  0.16656799412E+03  0.12500000000E+03 0.  0.
          2    1    1    2  502    0 -0.23564221885E+02  0.15867226672E+02 -0.26734599665E+03  0.26885111746E+03  0.00000000000E+00 0. -1.
         -2    1    1    2    0  501 -0.50576003664E+02  0.51866473394E+01  0.39047426053E+03  0.39377021420E+03  0.00000000000E+00 0.  1.
<mgrwt>
<rscale>  0 0.38128397E+02</rscale>
<asrwt>0</asrwt>
<pdfrwt beam="2">  1        1 0.60359472E-01 0.28408475E+02</pdfrwt>
<pdfrwt beam="1">  1       -1 0.67208116E-01 0.51173978E+02</pdfrwt>
<totfact> 0.15494192E+02</totfact>
</mgrwt>
</event>
<event>
 5    1  0.8891499E-003  0.4329959E+02  0.7546771E-02  0.1549687E+00
          1   -1    0    0  501    0 -0.00000000000E+00  0.00000000000E+00  0.62210990648E+02  0.62210990648E+02  0.00000000000E+00 0. -1.
          2   -1    0    0  502    0  0.00000000000E+00 -0.00000000000E+00 -0.23039321289E+04  0.23039321289E+04  0.00000000000E+00 0. -1.
         25    1    1    2    0    0 -0.80530824475E+01  0.55388689894E+02 -0.83423605451E+03  0.84540378148E+03  0.12500000000E+03 0.  0.
          2    1    1    2  501    0  0.26485235323E+02 -0.34186153916E+02  0.48215307824E+02  0.64767867946E+02  0.00000000000E+00 0. -1.
          1    1    1    2  502    0 -0.18432152875E+02 -0.21202535978E+02 -0.14557003916E+04  0.14559714701E+04  0.00000000000E+00 0. -1.
<mgrwt>
<rscale>  0 0.34877979E+02</rscale>
<asrwt>0</asrwt>
<pdfrwt beam="2">  1        2 0.35445102E+00 0.28094337E+02</pdfrwt>
<pdfrwt beam="1">  1        1 0.95709238E-02 0.43299594E+02</pdfrwt>
<totfact> 0.56292723E+02</totfact>
</mgrwt>
</event>
<event>
 5    1  0.8891499E-003  0.9447830E+02  0.7546771E-02  0.1357651E+00
         -2   -1    0    0    0  501 -0.00000000000E+00  0.00000000000E+00  0.38142823833E+03  0.38142823833E+03  0.00000000000E+00 0.  1.
          2   -1    0    0  502    0  0.00000000000E+00 -0.00000000000E+00 -0.29005583681E+04  0.29005583681E+04  0.00000000000E+00 0. -1.
         25    1    1    2    0    0 -0.89570824836E+01 -0.42221326062E+02 -0.19125268964E+03  0.23251980775E+03  0.12500000000E+03 0.  0.
          1    1    1    2  502    0 -0.15021588833E+02 -0.50764859696E+02 -0.26820166138E+04  0.26825390651E+04  0.00000000000E+00 0. -1.
         -1    1    1    2    0  501  0.23978671317E+02  0.92986185758E+02  0.35413917362E+03  0.36692773363E+03  0.00000000000E+00 0.  1.
<mgrwt>
<rscale>  0 0.70723043E+02</rscale>
<asrwt>0</asrwt>
<pdfrwt beam="2">  1        2 0.44623973E+00 0.52940713E+02</pdfrwt>
<pdfrwt beam="1">  1       -2 0.58681269E-01 0.94478305E+02</pdfrwt>
<totfact> 0.86936729E+00</totfact>
</mgrwt>
</event>
<event>
 5    1  0.8891499E-003  0.5204726E+02  0.7546771E-02  0.1567026E+00
          1   -1    0    0  501    0 -0.00000000000E+00  0.00000000000E+00  0.12539826677E+03  0.12539826677E+03  0.00000000000E+00 0. -1.
          2   -1    0    0  502    0  0.00000000000E+00 -0.00000000000E+00 -0.18106755817E+04  0.18106755817E+04  0.00000000000E+00 0. -1.
         25    1    1    2    0    0 -0.18315552483E+02 -0.30506084654E+02 -0.72701202068E+02  0.14891791513E+03  0.12500000000E+03 0.  0.
          2    1    1    2  501    0  0.56233486118E+01 -0.20165417588E+02  0.85627297911E+02  0.88149306655E+02  0.00000000000E+00 0. -1.
          1    1    1    2  502    0  0.12692203871E+02  0.50671502242E+02 -0.16982034107E+04  0.16990066267E+04  0.00000000000E+00 0. -1.
<mgrwt>
<rscale>  0 0.33009079E+02</rscale>
<asrwt>0</asrwt>
<pdfrwt beam="2">  1        2 0.27856546E+00 0.52047259E+02</pdfrwt>
<pdfrwt beam="1">  1        1 0.19292042E-01 0.20934806E+02</pdfrwt>
<totfact> 0.35969258E+02</totfact>
</mgrwt>
</event>
<event>
 5    1  0.8891499E-003  0.1165565E+03  0.7546771E-02  0.1269950E+00
         -1   -1    0    0    0  501 -0.00000000000E+00  0.00000000000E+00  0.10568334558E+04  0.10568334558E+04  0.00000000000E+00 0.  1.
          1   -1    0    0  502    0  0.00000000000E+00 -0.00000000000E+00 -0.17600659902E+03  0.17600659902E+03  0.00000000000E+00 0. -1.
         25    1    1    2    0    0 -0.53377083277E+02  0.15970030148E+02  0.45726190330E+02  0.14429150829E+03  0.12500000000E+03 0.  0.
          2    1    1    2  502    0  0.14464640482E+03  0.94543031422E+01 -0.82017305902E+02  0.16654970652E+03  0.00000000000E+00 0. -1.
         -2    1    1    2    0  501 -0.91269321542E+02 -0.25424333290E+02  0.91711797230E+03  0.92199883996E+03  0.00000000000E+00 0.  1.
<mgrwt>
<rscale>  0 0.10508597E+03</rscale>
<asrwt>0</asrwt>
<pdfrwt beam="2">  1        1 0.27077939E-01 0.11655645E+03</pdfrwt>
<pdfrwt beam="1">  1       -1 0.16258976E+00 0.94744318E+02</pdfrwt>
<totfact> 0.56185667E+01</totfact>
</mgrwt>
</event>
<event>
 5    1  0.8891499E-003  0.1918745E+03  0.7546771E-02  0.1272171E+00
          1   -1    0    0  501    0 -0.00000000000E+00  0.00000000000E+00  0.93133139267E+03  0.93133139267E+03  0.00000000000E+00 0. -1.
          2   -1    0    0  502    0  0.00000000000E+00 -0.00000000000E+00 -0.21624693880E+04  0.21624693880E+04  0.00000000000E+00 0. -1.
         25    1    1    2    0    0 -0.13568357451E+03  0.19313406306E+03 -0.16847048609E+03  0.31578173379E+03  0.12500000000E+03 0.  0.
          2    1    1    2  501    0  0.13181441627E+03 -0.13693413587E+03  0.84672505514E+03  0.86779566542E+03  0.00000000000E+00 0. -1.
          1    1    1    2  502    0  0.38691582404E+01 -0.56199927190E+02 -0.19093925644E+04  0.19102233815E+04  0.00000000000E+00 0. -1.
<mgrwt>
<rscale>  0 0.10396566E+03</rscale>
<asrwt>0</asrwt>
<pdfrwt beam="2">  1        2 0.33268759E+00 0.56332958E+02</pdfrwt>
<pdfrwt beam="1">  1        1 0.14328175E+00 0.19187451E+03</pdfrwt>
<totfact> 0.18540729E+01</totfact>
</mgrwt>
</event>
<event>
 5    1  0.8891499E-003  0.5516975E+02  0.7546771E-02  0.1471261E+00
          2   -1    0    0  502    0  0.00000000000E+00  0.00000000000E+00  0.12671105283E+04  0.12671105283E+04  0.00000000000E+00 0. -1.
          1   -1    0    0  501    0 -0.00000000000E+00 -0.00000000000E+00 -0.61704686542E+02  0.61704686542E+02  0.00000000000E+00 0. -1.
         25    1    1    2    0    0  0.31093554864E+02 -0.73148961999E+01  0.28968652509E+03  0.31711764328E+03  0.12500000000E+03 0.  0.
          2    1    1    2  501    0 -0.35237898562E+02  0.44605886465E+02 -0.30651965526E+02  0.64582796416E+02  0.00000000000E+00 0. -1.
          1    1    1    2  502    0  0.41443436981E+01 -0.37290990265E+02  0.94637128217E+03  0.94711477512E+03  0.00000000000E+00 0. -1.
<mgrwt>
<rscale>  0 0.45497260E+02</rscale>
<asrwt>0</asrwt>
<pdfrwt beam="1">  1        2 0.19494006E+00 0.37520575E+02</pdfrwt>
<pdfrwt beam="2">  1        1 0.94930296E-02 0.55169749E+02</pdfrwt>
<totfact> 0.17700040E+03</totfact>
</mgrwt>
</event>
<event>
 5    1  0.8891499E-003  0.6586624E+02  0.7546771E-02  0.1509689E+00
          1   -1    0    0  502    0  0.00000000000E+00  0.00000000000E+00  0.12888270169E+04  0.12888270169E+04  0.00000000000E+00 0. -1.
         -1   -1    0    0    0  501 -0.00000000000E+00 -0.00000000000E+00 -0.12958085181E+03  0.12958085181E+03  0.00000000000E+00 0.  1.
         25    1    1    2    0    0 -0.13137621244E+02  0.76432926860E+02  0.10085726819E+04  0.10192440552E+04  0.12500000000E+03 0.  0.
          2    1    1    2  502    0  0.21309078891E+02 -0.11148372659E+02  0.26562688081E+03  0.26671333462E+03  0.00000000000E+00 0. -1.
         -2    1    1    2    0  501 -0.81714576472E+01 -0.65284554201E+02 -0.11495339761E+03  0.13245047889E+03  0.00000000000E+00 0.  1.
<mgrwt>
<rscale>  0 0.39799862E+02</rscale>
<asrwt>0</asrwt>
<pdfrwt beam="1">  1        1 0.19828107E+00 0.24049180E+02</pdfrwt>
<pdfrwt beam="2">  1       -1 0.19935516E-01 0.65866239E+02</pdfrwt>
<totfact> 0.23826531E+02</totfact>
</mgrwt>
</event>
<event>
 5    1  0.8891499E-003  0.8223141E+02  0.7546771E-02  0.1482422E+00
          1   -1    0    0  501    0 -0.00000000000E+00  0.00000000000E+00  0.15665999452E+04  0.15665999452E+04  0.00000000000E+00 0. -1.
          2   -1    0    0  502    0  0.00000000000E+00 -0.00000000000E+00 -0.33437485227E+03  0.33437485227E+03  0.00000000000E+00 0. -1.
         25    1    1    2    0    0  0.85739463300E+01  0.10208818088E+03  0.28011738277E+02  0.16402794491E+03  0.12500000000E+03 0.  0.
          2    1    1    2  501    0 -0.97119054391E+01 -0.21131517959E+02  0.14643331456E+04  0.14645178126E+04  0.00000000000E+00 0. -1.
          1    1    1    2  502    0  0.11379591091E+01 -0.80956662916E+02 -0.26011979089E+03  0.27242904000E+03  0.00000000000E+00 0. -1.
<mgrwt>
<rscale>  0 0.43731111E+02</rscale>
<asrwt>0</asrwt>
<pdfrwt beam="2">  1        2 0.51442286E-01 0.82231409E+02</pdfrwt>
<pdfrwt beam="1">  1        1 0.24101537E+00 0.23256443E+02</pdfrwt>
<totfact> 0.11068407E+02</totfact>
</mgrwt>
</event>
<event>
 5    1  0.8891499E-003  0.7473475E+02  0.7546771E-02  0.1402133E+00
          2   -1    0    0  502    0  0.00000000000E+00  0.00000000000E+00  0.19668546485E+04  0.19668546485E+04  0.00000000000E+00 0. -1.
          1   -1    0    0  501    0 -0.00000000000E+00 -0.00000000000E+00 -0.47892838496E+03  0.47892838496E+03  0.00000000000E+00 0. -1.
         25    1    1    2    0    0  0.19757770049E+02 -0.23816262428E+02 -0.36697383185E+02  0.13390026798E+03  0.12500000000E+03 0.  0.
          2    1    1    2  501    0  0.85767019599E+01 -0.45760449746E+02 -0.39151425567E+03  0.39427273678E+03  0.00000000000E+00 0. -1.
          1    1    1    2  502    0 -0.28334472009E+02  0.69576712174E+02  0.19161379024E+04  0.19176100287E+04  0.00000000000E+00 0. -1.
<mgrwt>
<rscale>  0 0.58986824E+02</rscale>
<asrwt>0</asrwt>
<pdfrwt beam="1">  1        2 0.30259302E+00 0.74734752E+02</pdfrwt>
<pdfrwt beam="2">  1        1 0.73681291E-01 0.46557261E+02</pdfrwt>
<totfact> 0.60231024E+01</totfact>
</mgrwt>
</event>
<event>
 5    1  0.8891499E-003  0.1022043E+03  0.7546771E-02  0.1332755E+00
          2   -1    0    0  502    0  0.00000000000E+00  0.00000000000E+00  0.29765738878E+04  0.29765738878E+04  0.00000000000E+00 0. -1.
          1   -1    0    0  501    0 -0.00000000000E+00 -0.00000000000E+00 -0.15587491479E+03  0.15587491479E+03  0.00000000000E+00 0. -1.
         25    1    1    2    0    0 -0.13545219875E+03  0.41568367431E+02  0.55280396335E+03  0.58420240432E+03  0.12500000000E+03 0.  0.
          2    1    1    2  501    0  0.78914026350E+02 -0.63423826687E+02 -0.12146041458E+03  0.15812222379E+03  0.00000000000E+00 0. -1.
          1    1    1    2  502    0  0.56538172398E+02  0.21855459255E+02  0.23893554242E+04  0.23901241745E+04  0.00000000000E+00 0. -1.
<mgrwt>
<rscale>  0 0.78709319E+02</rscale>
<asrwt>0</asrwt>
<pdfrwt beam="1">  1        2 0.45793440E+00 0.60615394E+02</pdfrwt>
<pdfrwt beam="2">  1        1 0.23980758E-01 0.10220435E+03</pdfrwt>
<totfact> 0.73132002E+01</totfact>
</mgrwt>
</event>
<event>
 5    1  0.8891499E-003  0.8535648E+02  0.7546771E-02  0.1392748E+00
          1   -1    0    0  501    0 -0.00000000000E+00  0.00000000000E+00  0.14892978461E+04  0.14892978461E+04  0.00000000000E+00 0. -1.
          2   -1    0    0  502    0  0.00000000000E+00 -0.00000000000E+00 -0.93417990987E+03  0.93417990987E+03  0.00000000000E+00 0. -1.
         25    1    1    2    0    0  0.52826832927E+02 -0.49260393018E+02  0.38793984863E+03  0.41393186245E+03  0.12500000000E+03 0.  0.
          2    1    1    2  501    0 -0.85953980091E+02  0.20422834356E+02  0.10860437173E+04  0.10896311921E+04  0.00000000000E+00 0. -1.
          1    1    1    2  502    0  0.33127147164E+02  0.28837558663E+02 -0.91886562965E+03  0.91991470149E+03  0.00000000000E+00 0. -1.
<mgrwt>
<rscale>  0 0.61228275E+02</rscale>
<asrwt>0</asrwt>
<pdfrwt beam="2">  1        2 0.14371999E+00 0.43920527E+02</pdfrwt>
<pdfrwt beam="1">  1        1 0.22912275E+00 0.85356481E+02</pdfrwt>
<totfact> 0.34984938E+01</totfact>
</mgrwt>
</event>
<event>
 5    1  0.8891499E-003  0.1051887E+03  0.7546771E-02  0.1308758E+00
          1   -1    0    0  501    0 -0.00000000000E+00  0.00000000000E+00  0.11493311998E+04  0.11493311998E+04  0.00000000000E+00 0. -1.
          2   -1    0    0  502    0  0.00000000000E+00 -0.00000000000E+00 -0.72716452349E+03  0.72716452349E+03  0.00000000000E+00 0. -1.
         25    1    1    2    0    0 -0.10356780836E+03  0.16972411248E+02  0.69001082392E+03  0.70905168415E+03  0.12500000000E+03 0.  0.
          2    1    1    2  501    0  0.10158577717E+03  0.55960862480E+02  0.44041840292E+03  0.45543348349E+03  0.00000000000E+00 0. -1.
          1    1    1    2  502    0  0.19820311917E+01 -0.72933273727E+02 -0.70826255053E+03  0.71201055564E+03  0.00000000000E+00 0. -1.
<mgrwt>
<rscale>  0 0.87604716E+02</rscale>
<asrwt>0</asrwt>
<pdfrwt beam="2">  1        2 0.11187147E+00 0.72960201E+02</pdfrwt>
<pdfrwt beam="1">  1        1 0.17682018E+00 0.10518867E+03</pdfrwt>
<totfact> 0.76326029E+01</totfact>
</mgrwt>
</event>
<event>
 5    1  0.8891499E-003  0.2276581E+03  0.7546771E-02  0.1316532E+00
          1   -1    0    0  501    0 -0.00000000000E+00  0.00000000000E+00  0.27415831520E+04  0.27415831520E+04  0.00000000000E+00 0. -1.
          2   -1    0    0  502    0  0.00000000000E+00 -0.00000000000E+00 -0.24935963446E+04  0.24935963446E+04  0.00000000000E+00 0. -1.
         25    1    1    2    0    0  0.21952281308E+03 -0.52350081723E+02 -0.61885089992E+02  0.26530277210E+03  0.12500000000E+03 0.  0.
          2    1    1    2  501    0 -0.21215961594E+03  0.82899176907E+02  0.26348544492E+04  0.26446818230E+04  0.00000000000E+00 0. -1.
          1    1    1    2  502    0 -0.73631971374E+01 -0.30549095185E+02 -0.23249825518E+04  0.23251949015E+04  0.00000000000E+00 0. -1.
<mgrwt>
<rscale>  0 0.84580820E+02</rscale>
<asrwt>0</asrwt>
<pdfrwt beam="2">  1        2 0.38363021E+00 0.31423938E+02</pdfrwt>
<pdfrwt beam="1">  1        1 0.42178202E+00 0.22765814E+03</pdfrwt>
<totfact> 0.83969162E-01</totfact>
</mgrwt>
</event>
<event>
 5    1  0.8891499E-003  0.7262466E+02  0.7546771E-02  0.1404936E+00
          1   -1    0    0  501    0 -0.00000000000E+00  0.00000000000E+00  0.72153444218E+01  0.72153444218E+01  0.00000000000E+00 0. -1.
          2   -1    0    0  502    0  0.00000000000E+00 -0.00000000000E+00 -0.26389791302E+04  0.26389791302E+04  0.00000000000E+00 0. -1.
         25    1    1    2    0    0 -0.37446560118E+02 -0.24227878397E+02 -0.12935982322E+04  0.13003886424E+04  0.12500000000E+03 0.  0.
          2    1    1    2  501    0 -0.21643785224E+02 -0.41566681173E+02 -0.27462433797E+03  0.27859427386E+03  0.00000000000E+00 0. -1.
          1    1    1    2  502    0  0.59090345342E+02  0.65794559570E+02 -0.10635412156E+04  0.10672115584E+04  0.00000000000E+00 0. -1.
<mgrwt>
<rscale>  0 0.58339422E+02</rscale>
<asrwt>0</asrwt>
<pdfrwt beam="2">  1        2 0.40599693E+00 0.72624659E+02</pdfrwt>
<pdfrwt beam="1">  1        1 0.11100526E-02 0.46864085E+02</pdfrwt>
<totfact> 0.58559090E+03</totfact>
</mgrwt>
</event>
<event>
 5    1  0.8891499E-003  0.5968274E+02  0.7546771E-02  0.1466389E+00
          1   -1    0    0  501    0 -0.00000000000E+00  0.00000000000E+00  0.14064865918E+03  0.14064865918E+03  0.00000000000E+00 0. -1.
          2   -1    0    0  502    0  0.00000000000E+00 -0.00000000000E+00 -0.18660830598E+04  0.18660830598E+04  0.00000000000E+00 0. -1.
         25    1    1    2    0    0  0.46740739244E+02  0.46688915964E+02 -0.12013886234E+03  0.18553408803E+03  0.12500000000E+03 0.  0.
          2    1    1    2  501    0 -0.58500715546E+02 -0.12751567466E+02  0.99445082838E+02  0.11607868320E+03  0.00000000000E+00 0. -1.
          1    1    1    2  502    0  0.11759976303E+02 -0.33937348497E+02 -0.17047406211E+04  0.17051189477E+04  0.00000000000E+00 0. -1.
<mgrwt>
<rscale>  0 0.46299387E+02</rscale>
<asrwt>0</asrwt>
<pdfrwt beam="2">  1        2 0.28708967E+00 0.35917136E+02</pdfrwt>
<pdfrwt beam="1">  1        1 0.21638257E-01 0.59682745E+02</pdfrwt>
<totfact> 0.32279536E+02</totfact>
</mgrwt>
</event>
<event>
 5    1  0.8891499E-003  0.6796844E+02  0.7546771E-02  0.1508853E+00
         -1   -1    0    0    0  502 -0.00000000000E+00  0.00000000000E+00  0.11649291773E+03  0.11649291773E+03  0.00000000000E+00 0.  1.
         -2   -1    0    0    0  501  0.00000000000E+00 -0.00000000000E+00 -0.91005625517E+03  0.91005625517E+03  0.00000000000E+00 0.  1.
         25    1    1    2    0    0 -0.24554308578E+02  0.83087736143E+02 -0.14320852952E+03  0.20890229509E+03  0.12500000000E+03 0.  0.
         -2    1    1    2    0  502  0.16750861025E+02 -0.16393467117E+02  0.80434128920E+02  0.83779390093E+02  0.00000000000E+00 0.  1.
         -1    1    1    2    0  501  0.78034475527E+01 -0.66694269026E+02 -0.73078893684E+03  0.73386748771E+03  0.00000000000E+00 0.  1.
<mgrwt>
<rscale>  0 0.39912910E+02</rscale>
<asrwt>0</asrwt>
<pdfrwt beam="2">  1       -2 0.14000865E+00 0.67968442E+02</pdfrwt>
<pdfrwt beam="1">  1       -1 0.17921988E-01 0.23437942E+02</pdfrwt>
<totfact> 0.64447172E+01</totfact>
</mgrwt>
</event>
<event>
 5    1  0.8891499E-003  0.1053967E+03  0.7546771E-02  0.1305836E+00
          2   -1    0    0  502    0  0.00000000000E+00  0.00000000000E+00  0.90332166083E+03  0.90332166083E+03  0.00000000000E+00 0. -1.
          1   -1    0    0  501    0 -0.00000000000E+00 -0.00000000000E+00 -0.21675195215E+04  0.21675195215E+04  0.00000000000E+00 0. -1.
         25    1    1    2    0    0  0.75261377907E+02 -0.15184570108E+03 -0.18418311672E+03  0.27976742560E+03  0.12500000000E+03 0.  0.
          2    1    1    2  501    0 -0.56550622157E+02  0.48930649761E+02 -0.19316207290E+04  0.19330677230E+04  0.00000000000E+00 0. -1.
          1    1    1    2  502    0 -0.18710755749E+02  0.10291505132E+03  0.85160598500E+03  0.85800603370E+03  0.00000000000E+00 0. -1.
<mgrwt>
<rscale>  0 0.88778723E+02</rscale>
<asrwt>0</asrwt>
<pdfrwt beam="1">  1        2 0.13897256E+00 0.10539674E+03</pdfrwt>
<pdfrwt beam="2">  1        1 0.33346454E+00 0.74780889E+02</pdfrwt>
<totfact> 0.13395879E+01</totfact>
</mgrwt>
</event>
<event>
 5    1  0.8891499E-003  0.2503661E+03  0.7546771E-02  0.1241414E+00
          2   -1    0    0  502    0  0.00000000000E+00  0.00000000000E+00  0.21529132316E+03  0.21529132316E+03  0.00000000000E+00 0. -1.
          1   -1    0    0  501    0 -0.00000000000E+00 -0.00000000000E+00 -0.55199859722E+03  0.55199859722E+03  0.00000000000E+00 0. -1.
         25    1    1    2    0    0 -0.69787899130E+02 -0.27386556182E+03 -0.12276871488E+03  0.33252045677E+03  0.12500000000E+03 0.  0.
          2    1    1    2  501    0  0.39808063992E+02  0.42871318090E+02 -0.19210625669E+03  0.20081694583E+03  0.00000000000E+00 0. -1.
          1    1    1    2  502    0  0.29979835139E+02  0.23099424373E+03 -0.21832302491E+02  0.23395251779E+03  0.00000000000E+00 0. -1.
<mgrwt>
<rscale>  0 0.12102575E+03</rscale>
<asrwt>0</asrwt>
<pdfrwt beam="1">  1        2 0.33121743E-01 0.25036606E+03</pdfrwt>
<pdfrwt beam="2">  1        1 0.84922860E-01 0.58503264E+02</pdfrwt>
<totfact> 0.87977844E+02</totfact>
</mgrwt>
</event>
<event>
 5    1  0.8891499E-003  0.1345654E+03  0.7546771E-02  0.1387901E+00
          2   -1    0    0  502    0  0.00000000000E+00  0.00000000000E+00  0.14989830127E+04  0.14989830127E+04  0.00000000000E+00 0. -1.
          1   -1    0    0  501    0 -0.00000000000E+00 -0.00000000000E+00 -0.55443518867E+02  0.55443518867E+02  0.00000000000E+00 0. -1.
         25    1    1    2    0    0  0.13222090480E+03 -0.39263750607E+02  0.33740795755E+03  0.38534807589E+03  0.12500000000E+03 0.  0.
          2    1    1    2  501    0  0.18228053060E+01  0.28907790083E+02 -0.19840266131E+02  0.35108675663E+02  0.00000000000E+00 0. -1.
          1    1    1    2  502    0 -0.13404371011E+03  0.10355960525E+02  0.11259718024E+04  0.11339697800E+04  0.00000000000E+00 0. -1.
<mgrwt>
<rscale>  0 0.62431678E+02</rscale>
<asrwt>0</asrwt>
<pdfrwt beam="1">  1        2 0.23061274E+00 0.13456541E+03</pdfrwt>
<pdfrwt beam="2">  1        1 0.85297733E-02 0.28965202E+02</pdfrwt>
<totfact> 0.13233119E+03</totfact>
</mgrwt>
</event>
<event>
 5    1  0.8891499E-003  0.1281295E+03  0.7546771E-02  0.1392087E+00
          2   -1    0    0  502    0  0.00000000000E+00  0.00000000000E+00  0.30918867949E+03  0.30918867949E+03  0.00000000000E+00 0. -1.
          1   -1    0    0  501    0 -0.00000000000E+00 -0.00000000000E+00 -0.15633053440E+03  0.15633053440E+03  0.00000000000E+00 0. -1.
         25    1    1    2    0    0 -0.91613121621E+02 -0.10764846108E+03  0.17180725384E+03  0.25519382378E+03  0.12500000000E+03 0.  0.
          2    1    1    2  501    0  0.50868504314E+01  0.28970904711E+02 -0.75056416689E+02  0.80614236046E+02  0.00000000000E+00 0. -1.
          1    1    1    2  502    0  0.86526271190E+02  0.78677556371E+02  0.56107307941E+02  0.12971115406E+03  0.00000000000E+00 0. -1.
<mgrwt>
<rscale>  0 0.61390675E+02</rscale>
<asrwt>0</asrwt>
<pdfrwt beam="1">  1        2 0.47567489E-01 0.12812953E+03</pdfrwt>
<pdfrwt beam="2">  1        1 0.24050852E-01 0.29414102E+02</pdfrwt>
<totfact> 0.26890103E+03</totfact>
</mgrwt>
</event>
<event>
 5    1  0.8891499E-003  0.8017154E+02  0.7546771E-02  0.1443425E+00
          2   -1    0    0  502    0  0.00000000000E+00  0.00000000000E+00  0.31157083178E+03  0.31157083178E+03  0.00000000000E+00 0. -1.
         -2   -1    0    0    0  501 -0.00000000000E+00 -0.00000000000E+00 -0.20862952794E+03  0.20862952794E+03  0.00000000000E+00 0.  1.
         25    1    1    2    0    0  0.74446193896E+02  0.53704636992E+02  0.10539911247E+03  0.18751105762E+03  0.12500000000E+03 0.  0.
          1    1    1    2  502    0 -0.29266029465E+02  0.11998606481E+02  0.15393013505E+03  0.15714628063E+03  0.00000000000E+00 0. -1.
         -1    1    1    2    0  501 -0.45180164431E+02 -0.65703243473E+02 -0.15638794368E+03  0.17554302147E+03  0.00000000000E+00 0.  1.
<mgrwt>
<rscale>  0 0.50357111E+02</rscale>
<asrwt>0</asrwt>
<pdfrwt beam="1">  1        2 0.47933974E-01 0.31630160E+02</pdfrwt>
<pdfrwt beam="2">  1       -2 0.32096851E-01 0.80171540E+02</pdfrwt>
<totfact> 0.91933654E+02</totfact>
</mgrwt>
</event>
<event>
 5    1  0.8891499E-003  0.1904711E+03  0.7546771E-02  0.1335007E+00
          2   -1    0    0  502    0  0.00000000000E+00  0.00000000000E+00  0.23369479278E+04  0.23369479278E+04  0.00000000000E+00 0. -1.
         -2   -1    0    0    0  501 -0.00000000000E+00 -0.00000000000E+00 -0.36369422498E+03  0.36369422498E+03  0.00000000000E+00 0.  1.
         25    1    1    2    0    0 -0.73550660220E+02  0.20088451752E+03  0.59770037213E+03  0.64702011084E+03  0.12500000000E+03 0.  0.
          1    1    1    2  502    0  0.76810538483E+02 -0.16916051604E+03  0.17087916219E+04  0.17188612352E+04  0.00000000000E+00 0. -1.
         -1    1    1    2    0  501 -0.32598782629E+01 -0.31724001480E+02 -0.33323829111E+03  0.33476080676E+03  0.00000000000E+00 0.  1.
<mgrwt>
<rscale>  0 0.77937955E+02</rscale>
<asrwt>0</asrwt>
<pdfrwt beam="1">  1        2 0.35953044E+00 0.19047114E+03</pdfrwt>
<pdfrwt beam="2">  1       -2 0.55952959E-01 0.31891050E+02</pdfrwt>
<totfact> 0.15977013E+01</totfact>
</mgrwt>
</event>
<event>
 5    1  0.8891499E-003  0.1231914E+03  0.7546771E-02  0.1259294E+00
          2   -1    0    0  502    0  0.00000000000E+00  0.00000000000E+00  0.23206395682E+04  0.23206395682E+04  0.00000000000E+00 0. -1.
          1   -1    0    0  501    0 -0.00000000000E+00 -0.00000000000E+00 -0.26575823724E+04  0.26575823724E+04  0.00000000000E+00 0. -1.
         25    1    1    2    0    0  0.67664319666E+01 -0.25630575043E+02 -0.74380546570E+03  0.75470145209E+03  0.12500000000E+03 0.  0.
          2    1    1    2  501    0 -0.12751696671E+03  0.50031961045E+02 -0.19042281591E+04  0.19091486730E+04  0.00000000000E+00 0. -1.
          1    1    1    2  502    0  0.12075053475E+03 -0.24401386002E+02  0.23110908206E+04  0.23143718155E+04  0.00000000000E+00 0. -1.
<mgrwt>
<rscale>  0 0.11069206E+03</rscale>
<asrwt>0</asrwt>
<pdfrwt beam="1">  1        2 0.35702147E+00 0.12319139E+03</pdfrwt>
<pdfrwt beam="2">  1        1 0.40885883E+00 0.99460942E+02</pdfrwt>
<totfact> 0.10954782E+00</totfact>
</mgrwt>
</event>
<event>
 5    1  0.8891499E-003  0.1376568E+03  0.7546771E-02  0.1324296E+00
         -2   -1    0    0    0  501 -0.00000000000E+00  0.00000000000E+00  0.33191301300E+03  0.33191301300E+03  0.00000000000E+00 0.  1.
          2   -1    0    0  502    0  0.00000000000E+00 -0.00000000000E+00 -0.92580469047E+03  0.92580469047E+03  0.00000000000E+00 0. -1.
         25    1    1    2    0    0 -0.18463550344E+03  0.11914221125E+01  0.22778282537E+03  0.31875022220E+03  0.12500000000E+03 0.  0.
          1    1    1    2  502    0  0.13653875148E+03 -0.73474113957E+01 -0.86390949285E+03  0.87466360788E+03  0.00000000000E+00 0. -1.
         -1    1    1    2    0  501  0.48096751954E+02  0.61559892832E+01  0.42234990005E+02  0.64303873393E+02  0.00000000000E+00 0.  1.
<mgrwt>
<rscale>  0 0.81699793E+02</rscale>
<asrwt>0</asrwt>
<pdfrwt beam="2">  1        2 0.14243149E+00 0.13765681E+03</pdfrwt>
<pdfrwt beam="1">  1       -2 0.51063540E-01 0.48489110E+02</pdfrwt>
<totfact> 0.11239440E+02</totfact>
</mgrwt>
</event>
<event>
 5    1  0.8891499E-003  0.7885947E+02  0.7546771E-02  0.1405050E+00
          2   -1    0    0  502    0  0.00000000000E+00  0.00000000000E+00  0.50360958067E+02  0.50360958067E+02  0.00000000000E+00 0. -1.
          1   -1    0    0  501    0 -0.00000000000E+00 -0.00000000000E+00 -0.22716250158E+04  0.22716250158E+04  0.00000000000E+00 0. -1.
         25    1    1    2    0    0 -0.29682772321E+02 -0.48036739325E+02 -0.93672233880E+03  0.94671132628E+03  0.12500000000E+03 0.  0.
          2    1    1    2  501    0  0.72786184944E+02  0.46837828256E+02 -0.13179113875E+04  0.13207505579E+04  0.00000000000E+00 0. -1.
          1    1    1    2  502    0 -0.43103412624E+02  0.11989110682E+01  0.33369668619E+02  0.54524089642E+02  0.00000000000E+00 0. -1.
<mgrwt>
<rscale>  0 0.58313178E+02</rscale>
<asrwt>0</asrwt>
<pdfrwt beam="1">  1        2 0.77478410E-02 0.43120083E+02</pdfrwt>
<pdfrwt beam="2">  1        1 0.34948071E+00 0.78859467E+02</pdfrwt>
<totfact> 0.27785176E+02</totfact>
</mgrwt>
</event>
<event>
 5    1  0.8891499E-003  0.7916625E+02  0.7546771E-02  0.1360448E+00
          2   -1    0    0  502    0  0.00000000000E+00  0.00000000000E+00  0.24013411488E+04  0.24013411488E+04  0.00000000000E+00 0. -1.
          1   -1    0    0  501    0 -0.00000000000E+00 -0.00000000000E+00 -0.12581292221E+03  0.12581292221E+03  0.00000000000E+00 0. -1.
         25    1    1    2    0    0 -0.48811301064E+02 -0.13835260748E+02  0.10841031193E+03  0.17306574844E+03  0.12500000000E+03 0.  0.
          2    1    1    2  501    0 -0.17293659936E+02  0.59237922546E+02 -0.82508324403E+02  0.10303312932E+03  0.00000000000E+00 0. -1.
          1    1    1    2  502    0  0.66104961001E+02 -0.45402661798E+02  0.22496262390E+04  0.22510551932E+04  0.00000000000E+00 0. -1.
<mgrwt>
<rscale>  0 0.69895633E+02</rscale>
<asrwt>0</asrwt>
<pdfrwt beam="1">  1        2 0.36943707E+00 0.79166252E+02</pdfrwt>
<pdfrwt beam="2">  1        1 0.19355836E-01 0.61710632E+02</pdfrwt>
<totfact> 0.18282341E+02</totfact>
</mgrwt>
</event>
<event>
 5    1  0.8891499E-003  0.9190189E+02  0.7546771E-02  0.1365180E+00
          2   -1    0    0  502    0  0.00000000000E+00  0.00000000000E+00  0.62061920823E+03  0.62061920823E+03  0.00000000000E+00 0. -1.
          1   -1    0    0  501    0 -0.00000000000E+00 -0.00000000000E+00 -0.27886250654E+03  0.27886250654E+03  0.00000000000E+00 0. -1.
         25    1    1    2    0    0  0.82468752212E+02 -0.59200639839E+02  0.32333523168E+03  0.36121528608E+03  0.12500000000E+03 0.  0.
          2    1    1    2  501    0 -0.91558406529E+02  0.89202708941E+01 -0.24929044467E+03  0.26572210830E+03  0.00000000000E+00 0. -1.
          1    1    1    2  502    0  0.90896543167E+01  0.50280368945E+02  0.26771191468E+03  0.27254432039E+03  0.00000000000E+00 0. -1.
<mgrwt>
<rscale>  0 0.68525628E+02</rscale>
<asrwt>0</asrwt>
<pdfrwt beam="1">  1        2 0.95479878E-01 0.51095375E+02</pdfrwt>
<pdfrwt beam="2">  1        1 0.42901924E-01 0.91901894E+02</pdfrwt>
<totfact> 0.66006862E+02</totfact>
</mgrwt>
</event>
<event>
 5    1  0.8891499E-003  0.1881501E+03  0.7546771E-02  0.1314203E+00
         -2   -1    0    0    0  501 -0.00000000000E+00  0.00000000000E+00  0.24466329977E+03  0.24466329977E+03  0.00000000000E+00 0.  1.
          2   -1    0    0  502    0  0.00000000000E+00 -0.00000000000E+00 -0.24427301024E+04  0.24427301024E+04  0.00000000000E+00 0. -1.
         25    1    1    2    0    0 -0.79126615349E+02 -0.17431586721E+03 -0.31815756167E+02  0.23083389083E+03  0.12500000000E+03 0.  0.
          1    1    1    2  502    0  0.41414430457E+02  0.18355705901E+03 -0.23049041015E+04  0.23125724348E+04  0.00000000000E+00 0. -1.
         -1    1    1    2    0  501  0.37712184892E+02 -0.92411918055E+01  0.13865305509E+03  0.14398707651E+03  0.00000000000E+00 0.  1.
<mgrwt>
<rscale>  0 0.85472092E+02</rscale>
<asrwt>0</asrwt>
<pdfrwt beam="2">  1        2 0.37580463E+00 0.18815007E+03</pdfrwt>
<pdfrwt beam="1">  1       -2 0.37640508E-01 0.38827935E+02</pdfrwt>
<totfact> 0.29786238E+01</totfact>
</mgrwt>
</event>
<event>
 5    1  0.8891499E-003  0.6432839E+02  0.7546771E-02  0.1474214E+00
          3   -1    0    0  502    0  0.00000000000E+00  0.00000000000E+00  0.14990743451E+04  0.14990743451E+04  0.00000000000E+00 0. -1.
         -1   -1    0    0    0  501 -0.00000000000E+00 -0.00000000000E+00 -0.30472309081E+02  0.30472309081E+02  0.00000000000E+00 0.  1.
         25    1    1    2    0    0 -0.45764154585E+02 -0.36325888818E+02  0.28245135417E+03  0.31435282011E+03  0.12500000000E+03 0.  0.
          2    1    1    2  502    0  0.18687213042E+02 -0.25367919934E+02  0.11210941032E+04  0.11215367722E+04  0.00000000000E+00 0. -1.
         -2    1    1    2    0  501  0.27076941543E+02  0.61693808753E+02  0.65056578663E+02  0.93657061822E+02  0.00000000000E+00 0.  1.
<mgrwt>
<rscale>  0 0.45020528E+02</rscale>
<asrwt>0</asrwt>
<pdfrwt beam="1">  1        3 0.23062677E+00 0.31507829E+02</pdfrwt>
<pdfrwt beam="2">  1       -1 0.46880487E-02 0.64328390E+02</pdfrwt>
<totfact> 0.88788117E+01</totfact>
</mgrwt>
</event>
<event>
 5    1  0.8891499E-003  0.2314320E+03  0.7546771E-02  0.1229688E+00
          1   -1    0    0  501    0 -0.00000000000E+00  0.00000000000E+00  0.74343926767E+03  0.74343926767E+03  0.00000000000E+00 0. -1.
          2   -1    0    0  502    0  0.00000000000E+00 -0.00000000000E+00 -0.13603624964E+04  0.13603624964E+04  0.00000000000E+00 0. -1.
         25    1    1    2    0    0  0.18558430357E+03 -0.27736389195E+02 -0.65768835348E+01  0.22556395194E+03  0.12500000000E+03 0.  0.
          2    1    1    2  501    0  0.49728396389E+02  0.51174012595E+02  0.62064743386E+03  0.62473588830E+03  0.00000000000E+00 0. -1.
          1    1    1    2  502    0 -0.23531269996E+03 -0.23437623400E+02 -0.12309937791E+04  0.12535019239E+04  0.00000000000E+00 0. -1.
<mgrwt>
<rscale>  0 0.12850714E+03</rscale>
<asrwt>0</asrwt>
<pdfrwt beam="2">  1        2 0.20928653E+00 0.23143199E+03</pdfrwt>
<pdfrwt beam="1">  1        1 0.11437527E+00 0.71356100E+02</pdfrwt>
<totfact> 0.61845885E+01</totfact>
</mgrwt>
</event>
<event>
 5    1  0.8891499E-003  0.7570511E+02  0.7546771E-02  0.1347162E+00
          2   -1    0    0  502    0  0.00000000000E+00  0.00000000000E+00  0.16804573039E+04  0.16804573039E+04  0.00000000000E+00 0. -1.
          1   -1    0    0  501    0 -0.00000000000E+00 -0.00000000000E+00 -0.14172264200E+03  0.14172264200E+03  0.00000000000E+00 0. -1.
         25    1    1    2    0    0  0.11156854520E+02  0.79681295878E+00  0.84268295546E+00  0.12550227260E+03  0.12500000000E+03 0.  0.
          2    1    1    2  501    0  0.19571696795E+02  0.69528438961E+02 -0.61851741210E+02  0.95094127214E+02  0.00000000000E+00 0. -1.
          1    1    1    2  502    0 -0.30728551315E+02 -0.70325251920E+02  0.15997437202E+04  0.16015835461E+04  0.00000000000E+00 0. -1.
<mgrwt>
<rscale>  0 0.73947437E+02</rscale>
<asrwt>0</asrwt>
<pdfrwt beam="1">  1        2 0.25853188E+00 0.75705114E+02</pdfrwt>
<pdfrwt beam="2">  1        1 0.21803485E-01 0.72230569E+02</pdfrwt>
<totfact> 0.36697649E+02</totfact>
</mgrwt>
</event>
<event>
 5    1  0.8891499E-003  0.6841110E+02  0.7546771E-02  0.1410386E+00
          2   -1    0    0  502    0  0.00000000000E+00  0.00000000000E+00  0.55618013287E+03  0.55618013287E+03  0.00000000000E+00 0. -1.
          1   -1    0    0  501    0 -0.00000000000E+00 -0.00000000000E+00 -0.27798487512E+03  0.27798487512E+03  0.00000000000E+00 0. -1.
         25    1    1    2    0    0  0.84655919849E+02 -0.27500622777E+02  0.24482220365E+03  0.28893912926E+03  0.12500000000E+03 0.  0.
          2    1    1    2  501    0 -0.19855841452E+02  0.43340237823E+02 -0.24979662715E+03  0.25430490674E+03  0.00000000000E+00 0. -1.
          1    1    1    2  502    0 -0.64800078398E+02 -0.15839615046E+02  0.28316968124E+03  0.29092097198E+03  0.00000000000E+00 0. -1.
<mgrwt>
<rscale>  0 0.57107809E+02</rscale>
<asrwt>0</asrwt>
<pdfrwt beam="1">  1        2 0.85566174E-01 0.68411099E+02</pdfrwt>
<pdfrwt beam="2">  1        1 0.42766904E-01 0.47672116E+02</pdfrwt>
<totfact> 0.73947105E+02</totfact>
</mgrwt>
</event>
<event>
 5    1  0.8891499E-003  0.2209281E+03  0.7546771E-02  0.1266726E+00
          1   -1    0    0  501    0 -0.00000000000E+00  0.00000000000E+00  0.90320748451E+03  0.90320748451E+03  0.00000000000E+00 0. -1.
          2   -1    0    0  502    0  0.00000000000E+00 -0.00000000000E+00 -0.80845567069E+03  0.80845567069E+03  0.00000000000E+00 0. -1.
         25    1    1    2    0    0 -0.81910493771E+02  0.15202346482E+03  0.22279070368E+03  0.30835233174E+03  0.12500000000E+03 0.  0.
          2    1    1    2  501    0 -0.30241137066E+02  0.41775298475E+02  0.62017288140E+03  0.62231351002E+03  0.00000000000E+00 0. -1.
          1    1    1    2  502    0  0.11215163084E+03 -0.19379876329E+03 -0.74821177126E+03  0.78099731344E+03  0.00000000000E+00 0. -1.
<mgrwt>
<rscale>  0 0.10674160E+03</rscale>
<asrwt>0</asrwt>
<pdfrwt beam="2">  1        2 0.12437779E+00 0.22092807E+03</pdfrwt>
<pdfrwt beam="1">  1        1 0.13895500E+00 0.51572298E+02</pdfrwt>
<totfact> 0.10109756E+02</totfact>
</mgrwt>
</event>
<event>
 5    1  0.8891499E-003  0.1015869E+03  0.7546771E-02  0.1411608E+00
         -1   -1    0    0    0  501 -0.00000000000E+00  0.00000000000E+00  0.26010230290E+03  0.26010230290E+03  0.00000000000E+00 0.  1.
          1   -1    0    0  502    0  0.00000000000E+00 -0.00000000000E+00 -0.60530451274E+03  0.60530451274E+03  0.00000000000E+00 0. -1.
         25    1    1    2    0    0  0.63207059076E+02 -0.40545777216E+02 -0.42301666697E+02  0.15183386767E+03  0.12500000000E+03 0.  0.
          2    1    1    2  502    0  0.31185489483E+02 -0.62184184545E+01 -0.49418143304E+03  0.49520348569E+03  0.00000000000E+00 0. -1.
         -2    1    1    2    0  501 -0.94392548559E+02  0.46764195670E+02  0.19128088989E+03  0.21836946228E+03  0.00000000000E+00 0.  1.
<mgrwt>
<rscale>  0 0.56836642E+02</rscale>
<asrwt>0</asrwt>
<pdfrwt beam="2">  1        1 0.93123769E-01 0.31799426E+02</pdfrwt>
<pdfrwt beam="1">  1       -1 0.40015740E-01 0.10158686E+03</pdfrwt>
<totfact> 0.23208023E+02</totfact>
</mgrwt>
</event>
<event>
 5    1  0.8891499E-003  0.6803697E+02  0.7546771E-02  0.1441940E+00
          1   -1    0    0  501    0 -0.00000000000E+00  0.00000000000E+00  0.68503507417E+03  0.68503507417E+03  0.00000000000E+00 0. -1.
          2   -1    0    0  502    0  0.00000000000E+00 -0.00000000000E+00 -0.17858735900E+04  0.17858735900E+04  0.00000000000E+00 0. -1.
         25    1    1    2    0    0  0.91235515369E+02  0.50544155388E+02  0.77672389387E+02  0.18037913123E+03  0.12500000000E+03 0.  0.
          2    1    1    2  501    0 -0.57906902796E+02 -0.32954132695E+02  0.55380764221E+03  0.55780111941E+03  0.00000000000E+00 0. -1.
          1    1    1    2  502    0 -0.33328612573E+02 -0.17590022693E+02 -0.17323185474E+04  0.17327284135E+04  0.00000000000E+00 0. -1.
<mgrwt>
<rscale>  0 0.50636102E+02</rscale>
<asrwt>0</asrwt>
<pdfrwt beam="2">  1        2 0.27474979E+00 0.37685612E+02</pdfrwt>
<pdfrwt beam="1">  1        1 0.10539001E+00 0.68036969E+02</pdfrwt>
<totfact> 0.49387400E+01</totfact>
</mgrwt>
</event>
<event>
 5    1  0.8891499E-003  0.9656082E+02  0.7546771E-02  0.1299096E+00
          3   -1    0    0  501    0 -0.00000000000E+00  0.00000000000E+00  0.75614236464E+02  0.75614236464E+02  0.00000000000E+00 0. -1.
          2   -1    0    0  502    0  0.00000000000E+00 -0.00000000000E+00 -0.52646076371E+03  0.52646076371E+03  0.00000000000E+00 0. -1.
         25    1    1    2    0    0  0.57115432112E+02  0.48337759804E+02 -0.26873516609E+03  0.30568333468E+03  0.12500000000E+03 0.  0.
          2    1    1    2  501    0  0.66018207654E+00  0.86832626453E+02 -0.68930306450E+02  0.11086806576E+03  0.00000000000E+00 0. -1.
          3    1    1    2  502    0 -0.57775614189E+02 -0.13517038626E+03 -0.11318105471E+03  0.18552359974E+03  0.00000000000E+00 0. -1.
<mgrwt>
<rscale>  0 0.91568948E+02</rscale>
<asrwt>0</asrwt>
<pdfrwt beam="2">  1        2 0.80993966E-01 0.96560824E+02</pdfrwt>
<pdfrwt beam="1">  1        3 0.11632959E-01 0.86835136E+02</pdfrwt>
<totfact> 0.19329636E+03</totfact>
</mgrwt>
</event>
<event>
 5    1  0.8891499E-003  0.9231713E+02  0.7546771E-02  0.1387624E+00
          2   -1    0    0  502    0  0.00000000000E+00  0.00000000000E+00  0.10982666663E+04  0.10982666663E+04  0.00000000000E+00 0. -1.
          1   -1    0    0  501    0 -0.00000000000E+00 -0.00000000000E+00 -0.20919324812E+03  0.20919324812E+03  0.00000000000E+00 0. -1.
         25    1    1    2    0    0 -0.24337196305E+02  0.77042879054E+02  0.43508299061E+03  0.45983705055E+03  0.12500000000E+03 0.  0.
          2    1    1    2  501    0  0.65200879591E+02 -0.66054046060E+02 -0.18513549059E+03  0.20709766193E+03  0.00000000000E+00 0. -1.
          1    1    1    2  502    0 -0.40863683286E+02 -0.10988832994E+02  0.63912591816E+03  0.64052520195E+03  0.00000000000E+00 0. -1.
<mgrwt>
<rscale>  0 0.62501509E+02</rscale>
<asrwt>0</asrwt>
<pdfrwt beam="1">  1        2 0.16896410E+00 0.42315423E+02</pdfrwt>
<pdfrwt beam="2">  1        1 0.32183577E-01 0.92317134E+02</pdfrwt>
<totfact> 0.47447426E+02</totfact>
</mgrwt>
</event>
<event>
 5    1  0.8891499E-003  0.1324901E+03  0.7546771E-02  0.1246974E+00
          1   -1    0    0  501    0 -0.00000000000E+00  0.00000000000E+00  0.72385488726E+03  0.72385488726E+03  0.00000000000E+00 0. -1.
          2   -1    0    0  502    0  0.00000000000E+00 -0.00000000000E+00 -0.21626173727E+04  0.21626173727E+04  0.00000000000E+00 0. -1.
         25    1    1    2    0    0 -0.12769904504E+03 -0.18427305356E+03  0.22003836318E+03  0.33809094285E+03  0.12500000000E+03 0.  0.
          2    1    1    2  501    0  0.72574323550E+02  0.95465043182E+02  0.43538020588E+03  0.45159332433E+03  0.00000000000E+00 0. -1.
          1    1    1    2  502    0  0.55124721486E+02  0.88808010376E+02 -0.20941810545E+04  0.20967879928E+04  0.00000000000E+00 0. -1.
<mgrwt>
<rscale>  0 0.11768009E+03</rscale>
<asrwt>0</asrwt>
<pdfrwt beam="2">  1        2 0.33271036E+00 0.10452558E+03</pdfrwt>
<pdfrwt beam="1">  1        1 0.11136229E+00 0.13249009E+03</pdfrwt>
<totfact> 0.25801447E+01</totfact>
</mgrwt>
</event>
<event>
 5    1  0.8891499E-003  0.6866686E+02  0.7546771E-02  0.1470627E+00
         -1   -1    0    0    0  502 -0.00000000000E+00  0.00000000000E+00  0.15462818535E+03  0.15462818535E+03  0.00000000000E+00 0.  1.
         -2   -1    0    0    0  501  0.00000000000E+00 -0.00000000000E+00 -0.14259850624E+03  0.14259850624E+03  0.00000000000E+00 0.  1.
         25    1    1    2    0    0  0.99505325198E+01  0.60020971350E+02 -0.46563401437E+02  0.14661064236E+03  0.12500000000E+03 0.  0.
         -2    1    1    2    0  502  0.29930183849E+02  0.46068557681E+01  0.67666543174E+02  0.74133663678E+02  0.00000000000E+00 0.  1.
         -1    1    1    2    0  501 -0.39880716369E+02 -0.64627827118E+02 -0.90734626320E+01  0.76482385555E+02  0.00000000000E+00 0.  1.
<mgrwt>
<rscale>  0 0.45600599E+02</rscale>
<asrwt>0</asrwt>
<pdfrwt beam="2">  1       -2 0.21938232E-01 0.68666858E+02</pdfrwt>
<pdfrwt beam="1">  1       -1 0.23788952E-01 0.30282652E+02</pdfrwt>
<totfact> 0.17877292E+03</totfact>
</mgrwt>
</event>
<event>
 5    1  0.8891499E-003  0.5874229E+02  0.7546771E-02  0.1461275E+00
          1   -1    0    0  501    0 -0.00000000000E+00  0.00000000000E+00  0.82691352011E+03  0.82691352011E+03  0.00000000000E+00 0. -1.
          2   -1    0    0  502    0  0.00000000000E+00 -0.00000000000E+00 -0.18731019726E+03  0.18731019726E+03  0.00000000000E+00 0. -1.
         25    1    1    2    0    0  0.44934625894E+02 -0.78619098696E+02 -0.60824971838E+02  0.16590587839E+03  0.12500000000E+03 0.  0.
          2    1    1    2  501    0 -0.21854774408E+02  0.30922016517E+02  0.76435131718E+03  0.76528866341E+03  0.00000000000E+00 0. -1.
          1    1    1    2  502    0 -0.23079851486E+02  0.47697082179E+02 -0.63923022488E+02  0.83029175577E+02  0.00000000000E+00 0. -1.
<mgrwt>
<rscale>  0 0.47162603E+02</rscale>
<asrwt>0</asrwt>
<pdfrwt beam="2">  1        2 0.28816954E-01 0.58742294E+02</pdfrwt>
<pdfrwt beam="1">  1        1 0.12721746E+00 0.37865582E+02</pdfrwt>
<totfact> 0.58475189E+02</totfact>
</mgrwt>
</event>
<event>
 5    1  0.1272411E-002  0.4047520E+02  0.7546771E-02  0.1514852E+00
          2   -1    0    0  502    0  0.00000000000E+00  0.00000000000E+00  0.22208920751E+04  0.22208920751E+04  0.00000000000E+00 0. -1.
         -2   -1    0    0    0  501 -0.00000000000E+00 -0.00000000000E+00 -0.10091793983E+02  0.10091793983E+02  0.00000000000E+00 0.  1.
         25    1    1    2    0    0  0.46601954863E+01 -0.40229250918E+02  0.19111466436E+04  0.19156582689E+04  0.12500000000E+03 0.  0.
          3    1    1    2  502    0 -0.40039521487E+02  0.20568496096E+02  0.23328885891E+03  0.23759191486E+03  0.00000000000E+00 0. -1.
         -3    1    1    2    0  501  0.35379326001E+02  0.19660754822E+02  0.66364778643E+02  0.77733685315E+02  0.00000000000E+00 0.  1.
<mgrwt>
<rscale>  0 0.39111760E+02</rscale>
<asrwt>0</asrwt>
<pdfrwt beam="1">  1        2 0.34167532E+00 0.37794246E+02</pdfrwt>
<pdfrwt beam="2">  1       -2 0.15525855E-02 0.40475202E+02</pdfrwt>
<totfact> 0.61739286E+03</totfact>
</mgrwt>
</event>
<event>
 5    1  0.8891499E-003  0.5729407E+02  0.7546771E-02  0.1451676E+00
          1   -1    0    0  501    0 -0.00000000000E+00  0.00000000000E+00  0.79834563577E+02  0.79834563577E+02  0.00000000000E+00 0. -1.
          2   -1    0    0  502    0  0.00000000000E+00 -0.00000000000E+00 -0.45260748228E+03  0.45260748228E+03  0.00000000000E+00 0. -1.
         25    1    1    2    0    0  0.20851992195E+01 -0.24612408714E+02 -0.14120528961E+03  0.19019477525E+03  0.12500000000E+03 0.  0.
          2    1    1    2  501    0 -0.25023910818E+02 -0.33283338669E+02  0.43500122000E+02  0.60218247729E+02  0.00000000000E+00 0. -1.
          1    1    1    2  502    0  0.22938711599E+02  0.57895747383E+02 -0.27506775109E+03  0.28202902288E+03  0.00000000000E+00 0. -1.
<mgrwt>
<rscale>  0 0.48844499E+02</rscale>
<asrwt>0</asrwt>
<pdfrwt beam="2">  1        2 0.69631920E-01 0.57294072E+02</pdfrwt>
<pdfrwt beam="1">  1        1 0.12282241E-01 0.41641046E+02</pdfrwt>
<totfact> 0.41942734E+03</totfact>
</mgrwt>
</event>
<event>
 5    1  0.8891499E-003  0.4195100E+02  0.7546771E-02  0.1522866E+00
          1   -1    0    0  501    0 -0.00000000000E+00  0.00000000000E+00  0.14821727068E+04  0.14821727068E+04  0.00000000000E+00 0. -1.
          2   -1    0    0  502    0  0.00000000000E+00 -0.00000000000E+00 -0.11175134914E+02  0.11175134914E+02  0.00000000000E+00 0. -1.
         25    1    1    2    0    0 -0.18185330191E+02 -0.18135990907E+02  0.63199634414E+03  0.64475111431E+03  0.12500000000E+03 0.  0.
          2    1    1    2  501    0  0.44259680678E+02 -0.45458539289E+01  0.77132519141E+03  0.77260736149E+03  0.00000000000E+00 0. -1.
          1    1    1    2  502    0 -0.26074350487E+02  0.22681844836E+02  0.67676036373E+02  0.75989365951E+02  0.00000000000E+00 0. -1.
<mgrwt>
<rscale>  0 0.38076143E+02</rscale>
<asrwt>0</asrwt>
<pdfrwt beam="2">  1        2 0.17192527E-02 0.34559193E+02</pdfrwt>
<pdfrwt beam="1">  1        1 0.22802641E+00 0.41950999E+02</pdfrwt>
<totfact> 0.60786735E+03</totfact>
</mgrwt>
</event>
<event>
 5    1  0.8891499E-003  0.6665988E+02  0.7546771E-02  0.1413378E+00
          1   -1    0    0  501    0 -0.00000000000E+00  0.00000000000E+00  0.23483989870E+03  0.23483989870E+03  0.00000000000E+00 0. -1.
          2   -1    0    0  502    0  0.00000000000E+00 -0.00000000000E+00 -0.10555827887E+04  0.10555827887E+04  0.00000000000E+00 0. -1.
         25    1    1    2    0    0  0.19325438941E+02  0.58731576636E+01  0.11331534987E+03  0.16992155569E+03  0.12500000000E+03 0.  0.
          2    1    1    2  501    0  0.47662320914E+02 -0.36076847524E+01  0.85921240736E+02  0.98321777007E+02  0.00000000000E+00 0. -1.
          1    1    1    2  502    0 -0.66987759855E+02 -0.22654729112E+01 -0.10199794806E+04  0.10221793547E+04  0.00000000000E+00 0. -1.
<mgrwt>
<rscale>  0 0.56446907E+02</rscale>
<asrwt>0</asrwt>
<pdfrwt beam="2">  1        2 0.16239735E+00 0.66659883E+02</pdfrwt>
<pdfrwt beam="1">  1        1 0.36129215E-01 0.47798663E+02</pdfrwt>
<totfact> 0.41963734E+02</totfact>
</mgrwt>
</event>
<event>
 5    1  0.8891499E-003  0.7583483E+02  0.7546771E-02  0.1466872E+00
          2   -1    0    0  502    0  0.00000000000E+00  0.00000000000E+00  0.89761889441E+03  0.89761889441E+03  0.00000000000E+00 0. -1.
         -2   -1    0    0    0  501 -0.00000000000E+00 -0.00000000000E+00 -0.40130705376E+03  0.40130705376E+03  0.00000000000E+00 0.  1.
         25    1    1    2    0    0  0.63190551036E+02  0.38142269434E+02 -0.16754804441E+03  0.22168722481E+03  0.12500000000E+03 0.  0.
          1    1    1    2  502    0  0.13133368527E+02 -0.24920064238E+02  0.86305396888E+03  0.86351354834E+03  0.00000000000E+00 0. -1.
         -3    1    1    2    0  501 -0.76323919563E+02 -0.13222205196E+02 -0.19919408382E+03  0.21372517502E+03  0.00000000000E+00 0.  1.
<mgrwt>
<rscale>  0 0.46218984E+02</rscale>
<asrwt>0</asrwt>
<pdfrwt beam="1">  1        2 0.13809521E+00 0.28169043E+02</pdfrwt>
<pdfrwt beam="2">  1       -2 0.61739547E-01 0.75834828E+02</pdfrwt>
<totfact> 0.86147659E+01</totfact>
</mgrwt>
</event>
<event>
 5    1  0.8891499E-003  0.7733515E+02  0.7546771E-02  0.1399793E+00
          2   -1    0    0  502    0  0.00000000000E+00  0.00000000000E+00  0.29393890854E+03  0.29393890854E+03  0.00000000000E+00 0. -1.
          1   -1    0    0  501    0 -0.00000000000E+00 -0.00000000000E+00 -0.21933375791E+03  0.21933375791E+03  0.00000000000E+00 0. -1.
         25    1    1    2    0    0 -0.22345119447E+02 -0.49661616854E+02  0.11602595014E+03  0.17903240393E+03  0.12500000000E+03 0.  0.
          2    1    1    2  501    0 -0.44982562091E+02 -0.87839120989E+01 -0.17095319133E+03  0.17699034332E+03  0.00000000000E+00 0. -1.
          1    1    1    2  502    0  0.67327681538E+02  0.58445528953E+02  0.12953239183E+03  0.15724991920E+03  0.00000000000E+00 0. -1.
<mgrwt>
<rscale>  0 0.59535183E+02</rscale>
<asrwt>0</asrwt>
<pdfrwt beam="1">  1        2 0.45221371E-01 0.77335153E+02</pdfrwt>
<pdfrwt beam="2">  1        1 0.33743655E-01 0.45832172E+02</pdfrwt>
<totfact> 0.19149517E+03</totfact>
</mgrwt>
</event>
<event>
 5    1  0.8891499E-003  0.7144266E+02  0.7546771E-02  0.1412516E+00
          2   -1    0    0  502    0  0.00000000000E+00  0.00000000000E+00  0.26948998872E+04  0.26948998872E+04  0.00000000000E+00 0. -1.
         -2   -1    0    0    0  501 -0.00000000000E+00 -0.00000000000E+00 -0.53687151022E+02  0.53687151022E+02  0.00000000000E+00 0.  1.
         25    1    1    2    0    0 -0.76572302325E+02 -0.11334521989E+02  0.89353899192E+03  0.90555437107E+03  0.12500000000E+03 0.  0.
          1    1    1    2  502    0  0.52705504037E+02  0.49363769407E+02  0.17838884556E+04  0.17853494543E+04  0.00000000000E+00 0. -1.
         -1    1    1    2    0  501  0.23866798288E+02 -0.38029247418E+02 -0.36214711397E+02  0.57683212820E+02  0.00000000000E+00 0.  1.
<mgrwt>
<rscale>  0 0.56636086E+02</rscale>
<asrwt>0</asrwt>
<pdfrwt beam="1">  1        2 0.41459988E+00 0.71442659E+02</pdfrwt>
<pdfrwt beam="2">  1       -2 0.82595638E-02 0.44898193E+02</pdfrwt>
<totfact> 0.29730809E+02</totfact>
</mgrwt>
</event>
<event>
 5    1  0.8891499E-003  0.1343786E+03  0.7546771E-02  0.1333110E+00
          2   -1    0    0  502    0  0.00000000000E+00  0.00000000000E+00  0.12061687546E+04  0.12061687546E+04  0.00000000000E+00 0. -1.
         -2   -1    0    0    0  501 -0.00000000000E+00 -0.00000000000E+00 -0.32111983945E+02  0.32111983945E+02  0.00000000000E+00 0.  1.
         25    1    1    2    0    0 -0.11270747038E+03  0.12008861352E+03  0.67180283792E+03  0.70289992318E+03  0.12500000000E+03 0.  0.
          1    1    1    2  502    0  0.86081130914E+02 -0.82628227585E+02  0.45109712918E+03  0.46661119259E+03  0.00000000000E+00 0. -1.
         -1    1    1    2    0  501  0.26626339468E+02 -0.37460385934E+02  0.51156803601E+02  0.68769622817E+02  0.00000000000E+00 0.  1.
<mgrwt>
<rscale>  0 0.78587056E+02</rscale>
<asrwt>0</asrwt>
<pdfrwt beam="1">  1        2 0.18556439E+00 0.13437861E+03</pdfrwt>
<pdfrwt beam="2">  1       -2 0.49403062E-02 0.45959139E+02</pdfrwt>
<totfact> 0.34893008E+03</totfact>
</mgrwt>
</event>
<event>
 5    1  0.8891499E-003  0.3494711E+02  0.7546771E-02  0.1623115E+00
          2   -1    0    0  502    0  0.00000000000E+00  0.00000000000E+00  0.12485633771E+04  0.12485633771E+04  0.00000000000E+00 0. -1.
          1   -1    0    0  501    0 -0.00000000000E+00 -0.00000000000E+00 -0.49143472416E+02  0.49143472416E+02  0.00000000000E+00 0. -1.
         25    1    1    2    0    0  0.36413175881E+02  0.35049092529E+02  0.27513546745E+03  0.30639661178E+03  0.12500000000E+03 0.  0.
          2    1    1    2  501    0 -0.14521786141E+02 -0.31370421478E+02 -0.24434027823E+02  0.42332107579E+02  0.00000000000E+00 0. -1.
          1    1    1    2  502    0 -0.21891389740E+02 -0.36786710504E+01  0.94871846506E+03  0.94897813015E+03  0.00000000000E+00 0. -1.
<mgrwt>
<rscale>  0 0.27852599E+02</rscale>
<asrwt>0</asrwt>
<pdfrwt beam="1">  1        2 0.19208665E+00 0.22198323E+02</pdfrwt>
<pdfrwt beam="2">  1        1 0.75605352E-02 0.34947110E+02</pdfrwt>
<totfact> 0.24235739E+03</totfact>
</mgrwt>
</event>
<event>
 5    1  0.8891499E-003  0.4556606E+02  0.7546771E-02  0.1522768E+00
          2   -1    0    0  502    0  0.00000000000E+00  0.00000000000E+00  0.11064902886E+04  0.11064902886E+04  0.00000000000E+00 0. -1.
         -2   -1    0    0    0  501 -0.00000000000E+00 -0.00000000000E+00 -0.14332419849E+02  0.14332419849E+02  0.00000000000E+00 0.  1.
         25    1    1    2    0    0  0.12368969623E+01 -0.48019911627E+02  0.57605731475E+03  0.59141734140E+03  0.12500000000E+03 0.  0.
          1    1    1    2  502    0  0.29204741734E+02  0.12678443636E+02  0.43251860656E+03  0.43368883418E+03  0.00000000000E+00 0. -1.
         -1    1    1    2    0  501 -0.30441638697E+02  0.35341467991E+02  0.83581947419E+02  0.95716532850E+02  0.00000000000E+00 0.  1.
<mgrwt>
<rscale>  0 0.38088494E+02</rscale>
<asrwt>0</asrwt>
<pdfrwt beam="1">  1        2 0.17022921E+00 0.31838026E+02</pdfrwt>
<pdfrwt beam="2">  1       -2 0.22049885E-02 0.45566060E+02</pdfrwt>
<totfact> 0.13690282E+04</totfact>
</mgrwt>
</event>
<event>
 5    1  0.8891499E-003  0.7025719E+02  0.7546771E-02  0.1457931E+00
         -2   -1    0    0    0  501 -0.00000000000E+00  0.00000000000E+00  0.65622499273E+02  0.65622499273E+02  0.00000000000E+00 0.  1.
          2   -1    0    0  502    0  0.00000000000E+00 -0.00000000000E+00 -0.46239104970E+03  0.46239104970E+03  0.00000000000E+00 0. -1.
         25    1    1    2    0    0 -0.41546827422E+02  0.91089906942E+02 -0.89403051033E+02  0.18341596318E+03  0.12500000000E+03 0.  0.
          3    1    1    2  502    0  0.25376895768E+02 -0.62968937747E+02 -0.30456332712E+03  0.31203828962E+03  0.00000000000E+00 0. -1.
         -1    1    1    2    0  501  0.16169931654E+02 -0.28120969196E+02 -0.28021722761E+01  0.32559296179E+02  0.00000000000E+00 0.  1.
<mgrwt>
<rscale>  0 0.47739263E+02</rscale>
<asrwt>0</asrwt>
<pdfrwt beam="2">  1        2 0.71137085E-01 0.70257194E+02</pdfrwt>
<pdfrwt beam="1">  1       -2 0.10095769E-01 0.32438489E+02</pdfrwt>
<totfact> 0.38791045E+03</totfact>
</mgrwt>
</event>
<event>
 5    1  0.8891499E-003  0.4714050E+02  0.7546771E-02  0.1480079E+00
          1   -1    0    0  501    0 -0.00000000000E+00  0.00000000000E+00  0.12934887923E+04  0.12934887923E+04  0.00000000000E+00 0. -1.
          2   -1    0    0  502    0  0.00000000000E+00 -0.00000000000E+00 -0.22238875573E+03  0.22238875573E+03  0.00000000000E+00 0. -1.
         25    1    1    2    0    0  0.23185138581E+02 -0.62963525151E+02  0.20544819307E+03  0.24967161670E+03  0.12500000000E+03 0.  0.
          2    1    1    2  501    0 -0.39681274387E+02  0.25162088602E+02  0.10632811427E+04  0.10643188069E+04  0.00000000000E+00 0. -1.
          1    1    1    2  502    0  0.16496135806E+02  0.37801436549E+02 -0.19762929922E+03  0.20188712444E+03  0.00000000000E+00 0. -1.
<mgrwt>
<rscale>  0 0.44093820E+02</rscale>
<asrwt>0</asrwt>
<pdfrwt beam="2">  1        2 0.34213656E-01 0.41244043E+02</pdfrwt>
<pdfrwt beam="1">  1        1 0.19899827E+00 0.47140503E+02</pdfrwt>
<totfact> 0.22824947E+02</totfact>
</mgrwt>
</event>
<event>
 5    1  0.8891499E-003  0.6460940E+02  0.7546771E-02  0.1429196E+00
          2   -1    0    0  502    0  0.00000000000E+00  0.00000000000E+00  0.90195669429E+03  0.90195669429E+03  0.00000000000E+00 0. -1.
          1   -1    0    0  501    0 -0.00000000000E+00 -0.00000000000E+00 -0.15783336816E+04  0.15783336816E+04  0.00000000000E+00 0. -1.
         25    1    1    2    0    0  0.23364290931E+02  0.35153127684E+01  0.56186354482E+03  0.57608496813E+03  0.12500000000E+03 0.  0.
          2    1    1    2  501    0 -0.55636653521E+02 -0.32945387355E+02 -0.15691220385E+04  0.15704536948E+04  0.00000000000E+00 0. -1.
          1    1    1    2  502    0  0.32272362589E+02  0.29430074586E+02  0.33088150636E+03  0.33375171300E+03  0.00000000000E+00 0. -1.
<mgrwt>
<rscale>  0 0.53121661E+02</rscale>
<asrwt>0</asrwt>
<pdfrwt beam="1">  1        2 0.13876257E+00 0.43676477E+02</pdfrwt>
<pdfrwt beam="2">  1        1 0.24282056E+00 0.64609398E+02</pdfrwt>
<totfact> 0.33038674E+01</totfact>
</mgrwt>
</event>
<event>
 5    1  0.8891499E-003  0.1233518E+03  0.7546771E-02  0.1262108E+00
          1   -1    0    0  501    0 -0.00000000000E+00  0.00000000000E+00  0.20077811757E+03  0.20077811757E+03  0.00000000000E+00 0. -1.
          2   -1    0    0  502    0  0.00000000000E+00 -0.00000000000E+00 -0.14185024582E+04  0.14185024582E+04  0.00000000000E+00 0. -1.
         25    1    1    2    0    0  0.20650870511E+03  0.44024273075E+01 -0.38908897129E+03  0.45790878374E+03  0.12500000000E+03 0.  0.
          2    1    1    2  501    0 -0.94072585458E+02  0.22061906828E+02  0.14864443744E+03  0.17728944653E+03  0.00000000000E+00 0. -1.
          1    1    1    2  502    0 -0.11243611965E+03 -0.26464334136E+02 -0.97727980677E+03  0.98408234549E+03  0.00000000000E+00 0. -1.
<mgrwt>
<rscale>  0 0.10917353E+03</rscale>
<asrwt>0</asrwt>
<pdfrwt beam="2">  1        2 0.21823114E+00 0.12335180E+03</pdfrwt>
<pdfrwt beam="1">  1        1 0.30888942E-01 0.96624940E+02</pdfrwt>
<totfact> 0.31411154E+02</totfact>
</mgrwt>
</event>
<event>
 5    1  0.8891499E-003  0.3529321E+03  0.7546771E-02  0.1120370E+00
          1   -1    0    0  501    0 -0.00000000000E+00  0.00000000000E+00  0.18753972263E+03  0.18753972263E+03  0.00000000000E+00 0. -1.
          2   -1    0    0  502    0  0.00000000000E+00 -0.00000000000E+00 -0.23823824590E+04  0.23823824590E+04  0.00000000000E+00 0. -1.
         25    1    1    2    0    0 -0.31543674816E+03 -0.25790565042E+03 -0.99304721432E+03  0.10806402901E+04  0.12500000000E+03 0.  0.
          2    1    1    2  501    0  0.15745795698E+03 -0.38224224949E+02  0.68115159708E+02  0.17576624980E+03  0.00000000000E+00 0. -1.
          1    1    1    2  502    0  0.15797879118E+03  0.29612987537E+03 -0.12699106817E+04  0.13135156417E+04  0.00000000000E+00 0. -1.
<mgrwt>
<rscale>  0 0.23913593E+03</rscale>
<asrwt>0</asrwt>
<pdfrwt beam="2">  1        2 0.36652038E+00 0.35293206E+03</pdfrwt>
<pdfrwt beam="1">  1        1 0.28852265E-01 0.16203117E+03</pdfrwt>
<totfact> 0.97297465E+01</totfact>
</mgrwt>
</event>
<event>
 5    1  0.8891499E-003  0.5494672E+02  0.7546771E-02  0.1443675E+00
          2   -1    0    0  502    0  0.00000000000E+00  0.00000000000E+00  0.23996040784E+04  0.23996040784E+04  0.00000000000E+00 0. -1.
          1   -1    0    0  501    0 -0.00000000000E+00 -0.00000000000E+00 -0.92626351797E+03  0.92626351797E+03  0.00000000000E+00 0. -1.
         25    1    1    2    0    0 -0.29230432887E+02 -0.93086997369E+02  0.26410230051E+03  0.30804972394E+03  0.12500000000E+03 0.  0.
          2    1    1    2  501    0  0.21509767947E+01  0.46014810140E+02 -0.90335400291E+03  0.90452774641E+03  0.00000000000E+00 0. -1.
          1    1    1    2  502    0  0.27079456092E+02  0.47072187229E+02  0.21125922628E+04  0.21132901260E+04  0.00000000000E+00 0. -1.
<mgrwt>
<rscale>  0 0.50310277E+02</rscale>
<asrwt>0</asrwt>
<pdfrwt beam="1">  1        2 0.36916985E+00 0.54946724E+02</pdfrwt>
<pdfrwt beam="2">  1        1 0.14250208E+00 0.46065057E+02</pdfrwt>
<totfact> 0.15535039E+01</totfact>
</mgrwt>
</event>
<event>
 5    1  0.8891499E-003  0.1243874E+03  0.7546771E-02  0.1273827E+00
          1   -1    0    0  501    0 -0.00000000000E+00  0.00000000000E+00  0.56474074446E+03  0.56474074446E+03  0.00000000000E+00 0. -1.
          2   -1    0    0  502    0  0.00000000000E+00 -0.00000000000E+00 -0.11870622332E+04  0.11870622332E+04  0.00000000000E+00 0. -1.
         25    1    1    2    0    0 -0.31585186928E+02  0.19502952293E+03  0.10378004644E+03  0.25579178424E+03  0.12500000000E+03 0.  0.
          2    1    1    2  501    0 -0.15511133833E+01 -0.11618654827E+03  0.37448956811E+03  0.39210222720E+03  0.00000000000E+00 0. -1.
          1    1    1    2  502    0  0.33136300311E+02 -0.78842974656E+02 -0.11005911033E+04  0.11039089662E+04  0.00000000000E+00 0. -1.
<mgrwt>
<rscale>  0 0.10314077E+03</rscale>
<asrwt>0</asrwt>
<pdfrwt beam="2">  1        2 0.18262496E+00 0.85523266E+02</pdfrwt>
<pdfrwt beam="1">  1        1 0.86883192E-01 0.12438743E+03</pdfrwt>
<totfact> 0.11724574E+02</totfact>
</mgrwt>
</event>
<event>
 5    1  0.8891499E-003  0.3406125E+02  0.7546771E-02  0.1628557E+00
          2   -1    0    0  502    0  0.00000000000E+00  0.00000000000E+00  0.17814617157E+03  0.17814617157E+03  0.00000000000E+00 0. -1.
         -2   -1    0    0    0  501 -0.00000000000E+00 -0.00000000000E+00 -0.72850123982E+02  0.72850123982E+02  0.00000000000E+00 0.  1.
         25    1    1    2    0    0  0.22822665891E+01  0.18020687873E+02  0.97231493852E+02  0.15940174820E+03  0.12500000000E+03 0.  0.
          1    1    1    2  502    0 -0.17160366808E+02 -0.34315719245E+02  0.38268124123E+02  0.54189446391E+02  0.00000000000E+00 0. -1.
         -1    1    1    2    0  501  0.14878100219E+02  0.16295031371E+02 -0.30203570389E+02  0.37405100959E+02  0.00000000000E+00 0.  1.
<mgrwt>
<rscale>  0 0.27414927E+02</rscale>
<asrwt>0</asrwt>
<pdfrwt beam="1">  1        2 0.27407103E-01 0.34061251E+02</pdfrwt>
<pdfrwt beam="2">  1       -2 0.11207711E-01 0.22065491E+02</pdfrwt>
<totfact> 0.84401209E+03</totfact>
</mgrwt>
</event>
<event>
 5    1  0.8891499E-003  0.3603053E+02  0.7546771E-02  0.1546191E+00
          1   -1    0    0  501    0 -0.00000000000E+00  0.00000000000E+00  0.72070914287E+03  0.72070914287E+03  0.00000000000E+00 0. -1.
          2   -1    0    0  502    0  0.00000000000E+00 -0.00000000000E+00 -0.12764702919E+04  0.12764702919E+04  0.00000000000E+00 0. -1.
         25    1    1    2    0    0  0.12789333331E+02 -0.34470737439E+01 -0.14873007639E+03  0.19473336896E+03  0.12500000000E+03 0.  0.
          2    1    1    2  501    0  0.75354999191E+01  0.33698766442E+02  0.69697935969E+03  0.69783423422E+03  0.00000000000E+00 0. -1.
          1    1    1    2  502    0 -0.20324833250E+02 -0.30251692698E+02 -0.11040104323E+04  0.11046118316E+04  0.00000000000E+00 0. -1.
<mgrwt>
<rscale>  0 0.35272803E+02</rscale>
<asrwt>0</asrwt>
<pdfrwt beam="2">  1        2 0.19638004E+00 0.36030531E+02</pdfrwt>
<pdfrwt beam="1">  1        1 0.11087833E+00 0.34531010E+02</pdfrwt>
<totfact> 0.84313046E+01</totfact>
</mgrwt>
</event>
<event>
 5    1  0.8891499E-003  0.4800632E+02  0.7546771E-02  0.1466217E+00
          2   -1    0    0  502    0  0.00000000000E+00  0.00000000000E+00  0.12433440195E+04  0.12433440195E+04  0.00000000000E+00 0. -1.
          1   -1    0    0  501    0 -0.00000000000E+00 -0.00000000000E+00 -0.35319627632E+02  0.35319627632E+02  0.00000000000E+00 0. -1.
         25    1    1    2    0    0  0.37891015321E+01  0.10469990706E+02  0.34913631370E+03  0.37100558424E+03  0.12500000000E+03 0.  0.
          2    1    1    2  501    0 -0.30284606054E+02  0.32889052741E+02 -0.24945169540E+01  0.44778005414E+02  0.00000000000E+00 0. -1.
          1    1    1    2  502    0  0.26495504521E+02 -0.43359043447E+02  0.86138259513E+03  0.86288005749E+03  0.00000000000E+00 0. -1.
<mgrwt>
<rscale>  0 0.46328059E+02</rscale>
<asrwt>0</asrwt>
<pdfrwt beam="1">  1        2 0.19128366E+00 0.48006321E+02</pdfrwt>
<pdfrwt beam="2">  1        1 0.54337898E-02 0.44708468E+02</pdfrwt>
<totfact> 0.36312499E+03</totfact>
</mgrwt>
</event>
<event>
 5    1  0.8891499E-003  0.1143334E+03  0.7546771E-02  0.1315581E+00
         -2   -1    0    0    0  501 -0.00000000000E+00  0.00000000000E+00  0.20473844701E+03  0.20473844701E+03  0.00000000000E+00 0.  1.
          2   -1    0    0  502    0  0.00000000000E+00 -0.00000000000E+00 -0.36373320288E+04  0.36373320288E+04  0.00000000000E+00 0. -1.
         25    1    1    2    0    0  0.72107700420E+01  0.68820525774E+02 -0.17775237108E+03  0.22805518059E+03  0.12500000000E+03 0.  0.
          1    1    1    2  502    0 -0.44833525284E+02  0.44414084710E+02 -0.34142845831E+04  0.34148677676E+04  0.00000000000E+00 0. -1.
         -1    1    1    2    0  501  0.37622755242E+02 -0.11323461048E+03  0.15944337243E+03  0.19914752756E+03  0.00000000000E+00 0.  1.
<mgrwt>
<rscale>  0 0.84943414E+02</rscale>
<asrwt>0</asrwt>
<pdfrwt beam="2">  1        2 0.55958955E+00 0.63108287E+02</pdfrwt>
<pdfrwt beam="1">  1       -2 0.31498222E-01 0.11433338E+03</pdfrwt>
<totfact> 0.10094973E+01</totfact>
</mgrwt>
</event>
<event>
 5    1  0.8891499E-003  0.6292050E+02  0.7546771E-02  0.1443201E+00
         -2   -1    0    0    0  501 -0.00000000000E+00  0.00000000000E+00  0.14211399298E+03  0.14211399298E+03  0.00000000000E+00 0.  1.
          2   -1    0    0  502    0  0.00000000000E+00 -0.00000000000E+00 -0.28389762991E+04  0.28389762991E+04  0.00000000000E+00 0. -1.
         25    1    1    2    0    0 -0.40094755118E+01 -0.26287346263E+02 -0.16657705000E+03  0.20995240902E+03  0.12500000000E+03 0.  0.
          1    1    1    2  502    0 -0.25661422237E+02 -0.31163959538E+02 -0.26418666191E+04  0.26421750385E+04  0.00000000000E+00 0. -1.
         -1    1    1    2    0  501  0.29670897749E+02  0.57451305801E+02  0.11158136299E+03  0.12896284456E+03  0.00000000000E+00 0.  1.
<mgrwt>
<rscale>  0 0.50399131E+02</rscale>
<asrwt>0</asrwt>
<pdfrwt beam="2">  1        2 0.43676555E+00 0.40369555E+02</pdfrwt>
<pdfrwt beam="1">  1       -2 0.21863693E-01 0.62920495E+02</pdfrwt>
<totfact> 0.60026838E+01</totfact>
</mgrwt>
</event>
<event>
 5    1  0.8891499E-003  0.4155816E+02  0.7546771E-02  0.1499130E+00
         -2   -1    0    0    0  501 -0.00000000000E+00  0.00000000000E+00  0.88144160867E+01  0.88144160867E+01  0.00000000000E+00 0.  1.
          2   -1    0    0  502    0  0.00000000000E+00 -0.00000000000E+00 -0.19352782819E+04  0.19352782819E+04  0.00000000000E+00 0. -1.
         25    1    1    2    0    0 -0.18227457444E+01  0.55091308657E+02 -0.13691996876E+04  0.13759982410E+04  0.12500000000E+03 0.  0.
          3    1    1    2  502    0 -0.29942078860E+02 -0.27959408811E+02 -0.46514606700E+03  0.46694659253E+03  0.00000000000E+00 0. -1.
         -3    1    1    2    0  501  0.31764824604E+02 -0.27131899846E+02 -0.92118111147E+02  0.10114786440E+03  0.00000000000E+00 0.  1.
<mgrwt>
<rscale>  0 0.41261283E+02</rscale>
<asrwt>0</asrwt>
<pdfrwt beam="2">  1        2 0.29773530E+00 0.40966531E+02</pdfrwt>
<pdfrwt beam="1">  1       -2 0.13560632E-02 0.41558156E+02</pdfrwt>
<totfact> 0.10187680E+04</totfact>
</mgrwt>
</event>
<event>
 5    1  0.8891499E-003  0.1042232E+03  0.7546771E-02  0.1427626E+00
          2   -1    0    0  502    0  0.00000000000E+00  0.00000000000E+00  0.82360114073E+03  0.82360114073E+03  0.00000000000E+00 0. -1.
          1   -1    0    0  501    0 -0.00000000000E+00 -0.00000000000E+00 -0.10473156824E+04  0.10473156824E+04  0.00000000000E+00 0. -1.
         25    1    1    2    0    0  0.11595416508E+03 -0.14550032838E+01 -0.13054615804E+03  0.21474353265E+03  0.12500000000E+03 0.  0.
          2    1    1    2  501    0 -0.10126822553E+03 -0.21677658493E+02 -0.87136337957E+03  0.87749604765E+03  0.00000000000E+00 0. -1.
          1    1    1    2  502    0 -0.14685939544E+02  0.23132661777E+02  0.77819499593E+03  0.77867724286E+03  0.00000000000E+00 0. -1.
<mgrwt>
<rscale>  0 0.53439564E+02</rscale>
<asrwt>0</asrwt>
<pdfrwt beam="1">  1        2 0.12670787E+00 0.27400673E+02</pdfrwt>
<pdfrwt beam="2">  1        1 0.16112549E+00 0.10422324E+03</pdfrwt>
<totfact> 0.80634370E+01</totfact>
</mgrwt>
</event>
<event>
 5    1  0.8891499E-003  0.3500856E+02  0.7546771E-02  0.1563503E+00
          1   -1    0    0  501    0 -0.00000000000E+00  0.00000000000E+00  0.73369641696E+03  0.73369641696E+03  0.00000000000E+00 0. -1.
          2   -1    0    0  502    0  0.00000000000E+00 -0.00000000000E+00 -0.10332383167E+04  0.10332383167E+04  0.00000000000E+00 0. -1.
         25    1    1    2    0    0  0.16952795994E+02  0.19758583002E+02  0.19482321322E+01  0.12769727680E+03  0.12500000000E+03 0.  0.
          2    1    1    2  501    0 -0.28930574651E+02  0.13252914478E+02  0.66817715714E+03  0.66893447453E+03  0.00000000000E+00 0. -1.
          1    1    1    2  502    0  0.11977778656E+02 -0.33011497479E+02 -0.96966728900E+03  0.97030298232E+03  0.00000000000E+00 0. -1.
<mgrwt>
<rscale>  0 0.33377093E+02</rscale>
<asrwt>0</asrwt>
<pdfrwt beam="2">  1        2 0.15895974E+00 0.35008558E+02</pdfrwt>
<pdfrwt beam="1">  1        1 0.11287637E+00 0.31821658E+02</pdfrwt>
<totfact> 0.11100113E+02</totfact>
</mgrwt>
</event>
<event>
 5    1  0.8891499E-003  0.4508157E+02  0.7546771E-02  0.1567878E+00
          2   -1    0    0  502    0  0.00000000000E+00  0.00000000000E+00  0.15573919854E+04  0.15573919854E+04  0.00000000000E+00 0. -1.
          1   -1    0    0  501    0 -0.00000000000E+00 -0.00000000000E+00 -0.35883528075E+03  0.35883528075E+03  0.00000000000E+00 0. -1.
         25    1    1    2    0    0  0.48522837022E+01 -0.20750737598E+02  0.13390914610E+03  0.18442016478E+03  0.12500000000E+03 0.  0.
          2    1    1    2  501    0 -0.83516398093E+01  0.44535325488E+02 -0.33193712238E+03  0.33501551952E+03  0.00000000000E+00 0. -1.
          1    1    1    2  502    0  0.34993561071E+01 -0.23784587890E+02  0.13965846809E+04  0.13967915818E+04  0.00000000000E+00 0. -1.
<mgrwt>
<rscale>  0 0.32920957E+02</rscale>
<asrwt>0</asrwt>
<pdfrwt beam="1">  1        2 0.23959876E+00 0.24040635E+02</pdfrwt>
<pdfrwt beam="2">  1        1 0.55205429E-01 0.45081565E+02</pdfrwt>
<totfact> 0.15198877E+02</totfact>
</mgrwt>
</event>
<event>
 5    1  0.8891499E-003  0.6313574E+02  0.7546771E-02  0.1419358E+00
          2   -1    0    0  502    0  0.00000000000E+00  0.00000000000E+00  0.18416583381E+04  0.18416583381E+04  0.00000000000E+00 0. -1.
          1   -1    0    0  501    0 -0.00000000000E+00 -0.00000000000E+00 -0.57867444208E+02  0.57867444208E+02  0.00000000000E+00 0. -1.
         25    1    1    2    0    0 -0.45597849271E+02 -0.51756333785E+02  0.13738009810E+04  0.13811994850E+04  0.12500000000E+03 0.  0.
          2    1    1    2  501    0  0.45930013576E+02 -0.14572931534E+02 -0.40520484402E+02  0.62959083036E+02  0.00000000000E+00 0. -1.
          3    1    1    2  502    0 -0.33216430558E+00  0.66329265319E+02  0.45051039728E+03  0.45536721427E+03  0.00000000000E+00 0. -1.
<mgrwt>
<rscale>  0 0.55156946E+02</rscale>
<asrwt>0</asrwt>
<pdfrwt beam="1">  1        2 0.28333201E+00 0.63135738E+02</pdfrwt>
<pdfrwt beam="2">  1        1 0.89026851E-02 0.48186476E+02</pdfrwt>
<totfact> 0.94380603E+02</totfact>
</mgrwt>
</event>
<event>
 5    1  0.8891499E-003  0.9457621E+02  0.7546771E-02  0.1307824E+00
          1   -1    0    0  501    0 -0.00000000000E+00  0.00000000000E+00  0.83178261304E+03  0.83178261304E+03  0.00000000000E+00 0. -1.
          2   -1    0    0  502    0  0.00000000000E+00 -0.00000000000E+00 -0.16636591424E+04  0.16636591424E+04  0.00000000000E+00 0. -1.
         25    1    1    2    0    0 -0.30749885146E+02  0.28818515286E+02 -0.92498427771E+03  0.93434307204E+03  0.12500000000E+03 0.  0.
          2    1    1    2  501    0 -0.81934325760E+02  0.47237962699E+02  0.81806023295E+03  0.82350907925E+03  0.00000000000E+00 0. -1.
          1    1    1    2  502    0  0.11268421091E+03 -0.76056477985E+02 -0.72495248461E+03  0.73758960417E+03  0.00000000000E+00 0. -1.
<mgrwt>
<rscale>  0 0.87977746E+02</rscale>
<asrwt>0</asrwt>
<pdfrwt beam="2">  1        2 0.25594756E+00 0.81839652E+02</pdfrwt>
<pdfrwt beam="1">  1        1 0.12796656E+00 0.94576207E+02</pdfrwt>
<totfact> 0.39050206E+01</totfact>
</mgrwt>
</event>
<event>
 5    1  0.9361812E-003  0.8446063E+02  0.7546771E-02  0.1337157E+00
          1   -1    0    0  501    0 -0.00000000000E+00  0.00000000000E+00  0.26493019035E+04  0.26493019035E+04  0.00000000000E+00 0. -1.
          2   -1    0    0  502    0  0.00000000000E+00 -0.00000000000E+00 -0.84431786782E+03  0.84431786782E+03  0.00000000000E+00 0. -1.
         25    1    1    2    0    0  0.59532556230E+02 -0.97642405386E+02  0.61650641435E+03  0.63936165314E+03  0.12500000000E+03 0.  0.
          2    1    1    2  501    0  0.95826162441E+01  0.83316219286E+02  0.20190003377E+04  0.20207413943E+04  0.00000000000E+00 0. -1.
          1    1    1    2  502    0 -0.69115172474E+02  0.14326186100E+02 -0.83052271635E+03  0.83351672391E+03  0.00000000000E+00 0. -1.
<mgrwt>
<rscale>  0 0.77211377E+02</rscale>
<asrwt>0</asrwt>
<pdfrwt beam="2">  1        2 0.12989506E+00 0.70584323E+02</pdfrwt>
<pdfrwt beam="1">  1        1 0.40758490E+00 0.84460634E+02</pdfrwt>
<totfact> 0.71910692E+00</totfact>
</mgrwt>
</event>
<event>
 5    1  0.8891499E-003  0.7515610E+02  0.7546771E-02  0.1402958E+00
          2   -1    0    0  502    0  0.00000000000E+00  0.00000000000E+00  0.13176318611E+04  0.13176318611E+04  0.00000000000E+00 0. -1.
          1   -1    0    0  501    0 -0.00000000000E+00 -0.00000000000E+00 -0.71133979422E+02  0.71133979422E+02  0.00000000000E+00 0. -1.
         25    1    1    2    0    0  0.96559822834E+01 -0.29212842123E+02  0.83783140327E+02  0.15359440987E+03  0.12500000000E+03 0.  0.
          2    1    1    2  501    0  0.12123032227E+02 -0.44369804036E+02 -0.19866413925E+02  0.50103111908E+02  0.00000000000E+00 0. -1.
          1    1    1    2  502    0 -0.21779014510E+02  0.73582646159E+02  0.11825811552E+04  0.11850683187E+04  0.00000000000E+00 0. -1.
<mgrwt>
<rscale>  0 0.58795344E+02</rscale>
<asrwt>0</asrwt>
<pdfrwt beam="1">  1        2 0.20271258E+00 0.75156097E+02</pdfrwt>
<pdfrwt beam="2">  1        1 0.10943690E-01 0.45996167E+02</pdfrwt>
<totfact> 0.13026784E+03</totfact>
</mgrwt>
</event>
<event>
 5    1  0.8891499E-003  0.1895995E+03  0.7546771E-02  0.1329057E+00
          2   -1    0    0  502    0  0.00000000000E+00  0.00000000000E+00  0.26242232281E+03  0.26242232281E+03  0.00000000000E+00 0. -1.
         -2   -1    0    0    0  501 -0.00000000000E+00 -0.00000000000E+00 -0.91177924862E+03  0.91177924862E+03  0.00000000000E+00 0.  1.
         25    1    1    2    0    0 -0.16849372104E+02  0.20164945211E+03 -0.26711252884E+03  0.35765976282E+03  0.12500000000E+03 0.  0.
          1    1    1    2  502    0 -0.26642822329E+02 -0.20723492336E+02  0.20126740325E+03  0.20407809957E+03  0.00000000000E+00 0. -1.
         -1    1    1    2    0  501  0.43492194433E+02 -0.18092595977E+03 -0.58351180022E+03  0.61246370904E+03  0.00000000000E+00 0.  1.
<mgrwt>
<rscale>  0 0.79997866E+02</rscale>
<asrwt>0</asrwt>
<pdfrwt beam="1">  1        2 0.40372666E-01 0.33753564E+02</pdfrwt>
<pdfrwt beam="2">  1       -2 0.14027373E+00 0.18959949E+03</pdfrwt>
<totfact> 0.47602526E+01</totfact>
</mgrwt>
</event>
<event>
 5    1  0.8891499E-003  0.2781534E+03  0.7546771E-02  0.1340843E+00
          1   -1    0    0  502    0  0.00000000000E+00  0.00000000000E+00  0.14574160070E+04  0.14574160070E+04  0.00000000000E+00 0. -1.
         -1   -1    0    0    0  501 -0.00000000000E+00 -0.00000000000E+00 -0.95995445805E+03  0.95995445805E+03  0.00000000000E+00 0.  1.
         25    1    1    2    0    0  0.25775460199E+03  0.85399412980E+02  0.59044138684E+02  0.30469936807E+03  0.12500000000E+03 0.  0.
          2    1    1    2  502    0 -0.25807019801E+03 -0.10615519333E+03  0.12601496640E+04  0.12906766938E+04  0.00000000000E+00 0. -1.
         -2    1    1    2    0  501  0.31559601349E+00  0.20755780348E+02 -0.82173225375E+03  0.82199440319E+03  0.00000000000E+00 0.  1.
<mgrwt>
<rscale>  0 0.75986571E+02</rscale>
<asrwt>0</asrwt>
<pdfrwt beam="1">  1        1 0.22421785E+00 0.27815343E+03</pdfrwt>
<pdfrwt beam="2">  1       -1 0.14768530E+00 0.20758180E+02</pdfrwt>
<totfact> 0.36283710E+00</totfact>
</mgrwt>
</event>
<event>
 5    1  0.8891499E-003  0.7124424E+02  0.7546771E-02  0.1377555E+00
          1   -1    0    0  502    0  0.00000000000E+00  0.00000000000E+00  0.51073047992E+03  0.51073047992E+03  0.00000000000E+00 0. -1.
         -1   -1    0    0    0  501 -0.00000000000E+00 -0.00000000000E+00 -0.45569426701E+02  0.45569426701E+02  0.00000000000E+00 0.  1.
         25    1    1    2    0    0 -0.22443944970E+02 -0.19787371034E+02  0.13957956167E+03  0.18974383983E+03  0.12500000000E+03 0.  0.
          2    1    1    2  502    0  0.81305472465E+02  0.11057580828E+02  0.27949525899E+03  0.29129100525E+03  0.00000000000E+00 0. -1.
         -2    1    1    2    0  501 -0.58861527495E+02  0.87297902056E+01  0.46086232570E+02  0.75265061540E+02  0.00000000000E+00 0.  1.
<mgrwt>
<rscale>  0 0.65110786E+02</rscale>
<asrwt>0</asrwt>
<pdfrwt beam="1">  1        1 0.78573916E-01 0.71244238E+02</pdfrwt>
<pdfrwt beam="2">  1       -1 0.70106814E-02 0.59505367E+02</pdfrwt>
<totfact> 0.42435424E+03</totfact>
</mgrwt>
</event>
<event>
 5    1  0.8891499E-003  0.5360394E+02  0.7546771E-02  0.1450912E+00
          1   -1    0    0  501    0 -0.00000000000E+00  0.00000000000E+00  0.29821562888E+04  0.29821562888E+04  0.00000000000E+00 0. -1.
          2   -1    0    0  502    0  0.00000000000E+00 -0.00000000000E+00 -0.18615401732E+03  0.18615401732E+03  0.00000000000E+00 0. -1.
         25    1    1    2    0    0 -0.30694125126E+02 -0.43247153394E+00  0.39415819638E+02  0.13461397842E+03  0.12500000000E+03 0.  0.
          2    1    1    2  501    0  0.30484188282E+02 -0.44325206199E+02  0.28912700151E+04  0.28917704456E+04  0.00000000000E+00 0. -1.
          1    1    1    2  502    0  0.20993684423E+00  0.44757677733E+02 -0.13468356328E+03  0.14192588209E+03  0.00000000000E+00 0. -1.
<mgrwt>
<rscale>  0 0.48981777E+02</rscale>
<asrwt>0</asrwt>
<pdfrwt beam="2">  1        2 0.28639082E-01 0.44758170E+02</pdfrwt>
<pdfrwt beam="1">  1        1 0.45879324E+00 0.53603944E+02</pdfrwt>
<totfact> 0.23605087E+01</totfact>
</mgrwt>
</event>
<event>
 5    1  0.8891499E-003  0.8133720E+02  0.7546771E-02  0.1375268E+00
          1   -1    0    0  502    0  0.00000000000E+00  0.00000000000E+00  0.56371306534E+02  0.56371306534E+02  0.00000000000E+00 0. -1.
         -1   -1    0    0    0  501 -0.00000000000E+00 -0.00000000000E+00 -0.92056300469E+03  0.92056300469E+03  0.00000000000E+00 0.  1.
         25    1    1    2    0    0  0.84534464180E+02 -0.64734962407E+02 -0.13230356363E+03  0.21086944762E+03  0.12500000000E+03 0.  0.
          2    1    1    2  502    0 -0.52316832552E+02 -0.91331475940E+01 -0.32956932251E+02  0.62502997822E+02  0.00000000000E+00 0. -1.
         -2    1    1    2    0  501 -0.32217631628E+02  0.73868110001E+02 -0.69893120228E+03  0.70356186578E+03  0.00000000000E+00 0.  1.
<mgrwt>
<rscale>  0 0.65724124E+02</rscale>
<asrwt>0</asrwt>
<pdfrwt beam="1">  1        1 0.86725089E-02 0.53108054E+02</pdfrwt>
<pdfrwt beam="2">  1       -1 0.14162507E+00 0.81337202E+02</pdfrwt>
<totfact> 0.33122838E+02</totfact>
</mgrwt>
</event>
<event>
 5    1  0.8891499E-003  0.2654840E+02  0.7546771E-02  0.1657808E+00
         -1   -1    0    0    0  502 -0.00000000000E+00  0.00000000000E+00  0.44309452052E+03  0.44309452052E+03  0.00000000000E+00 0.  1.
         -2   -1    0    0    0  501  0.00000000000E+00 -0.00000000000E+00 -0.13705713282E+03  0.13705713282E+03  0.00000000000E+00 0.  1.
         25    1    1    2    0    0  0.27819117841E+02  0.22053281213E+02  0.39073978759E+02  0.13569092212E+03  0.12500000000E+03 0.  0.
         -2    1    1    2    0  502 -0.42177558031E+01 -0.26213781969E+02  0.35358735092E+03  0.35458280635E+03  0.00000000000E+00 0.  1.
         -1    1    1    2    0  501 -0.23601362037E+02  0.41605007552E+01 -0.86623941972E+02  0.89877924872E+02  0.00000000000E+00 0.  1.
<mgrwt>
<rscale>  0 0.25223788E+02</rscale>
<asrwt>0</asrwt>
<pdfrwt beam="2">  1       -2 0.21085713E-01 0.23965268E+02</pdfrwt>
<pdfrwt beam="1">  1       -1 0.68168387E-01 0.26548398E+02</pdfrwt>
<totfact> 0.30557315E+02</totfact>
</mgrwt>
</event>
<event>
 5    1  0.8891499E-003  0.1207900E+03  0.7546771E-02  0.1322610E+00
          1   -1    0    0  501    0 -0.00000000000E+00  0.00000000000E+00  0.83996703052E+03  0.83996703052E+03  0.00000000000E+00 0. -1.
          2   -1    0    0  502    0  0.00000000000E+00 -0.00000000000E+00 -0.23828532135E+04  0.23828532135E+04  0.00000000000E+00 0. -1.
         25    1    1    2    0    0 -0.17573817468E+03 -0.12058506637E+01 -0.21667641736E+03  0.30571069651E+03  0.12500000000E+03 0.  0.
          2    1    1    2  501    0  0.11980334213E+03 -0.30200697286E+01  0.79056243812E+03  0.79959422846E+03  0.00000000000E+00 0. -1.
          1    1    1    2  502    0  0.55934832555E+02  0.42259203923E+01 -0.21167722037E+04  0.21175153190E+04  0.00000000000E+00 0. -1.
<mgrwt>
<rscale>  0 0.82314166E+02</rscale>
<asrwt>0</asrwt>
<pdfrwt beam="2">  1        2 0.36659280E+00 0.56094241E+02</pdfrwt>
<pdfrwt beam="1">  1        1 0.12922570E+00 0.12078997E+03</pdfrwt>
<totfact> 0.17380080E+01</totfact>
</mgrwt>
</event>
<event>
 5    1  0.8891499E-003  0.2174272E+02  0.7546771E-02  0.1724558E+00
          2   -1    0    0  502    0  0.00000000000E+00  0.00000000000E+00  0.13680918636E+03  0.13680918636E+03  0.00000000000E+00 0. -1.
          1   -1    0    0  501    0 -0.00000000000E+00 -0.00000000000E+00 -0.86646102971E+03  0.86646102971E+03  0.00000000000E+00 0. -1.
         25    1    1    2    0    0  0.10424608776E+01  0.17128157362E+01 -0.97249612372E+02  0.15838720772E+03  0.12500000000E+03 0.  0.
          2    1    1    2  501    0 -0.21113455807E+02 -0.56258768801E+01 -0.73749532549E+03  0.73781893688E+03  0.00000000000E+00 0. -1.
          1    1    1    2  502    0  0.20070994930E+02  0.39130611439E+01  0.10509309451E+03  0.10706407146E+03  0.00000000000E+00 0. -1.
<mgrwt>
<rscale>  0 0.21085880E+02</rscale>
<asrwt>0</asrwt>
<pdfrwt beam="1">  1        2 0.21047567E-01 0.20448885E+02</pdfrwt>
<pdfrwt beam="2">  1        1 0.13330170E+00 0.21742717E+02</pdfrwt>
<totfact> 0.75032796E+02</totfact>
</mgrwt>
</event>
<event>
 5    1  0.8891499E-003  0.4223476E+02  0.7546771E-02  0.1507463E+00
          2   -1    0    0  502    0  0.00000000000E+00  0.00000000000E+00  0.70064682919E+03  0.70064682919E+03  0.00000000000E+00 0. -1.
         -2   -1    0    0    0  501 -0.00000000000E+00 -0.00000000000E+00 -0.11495604412E+03  0.11495604412E+03  0.00000000000E+00 0.  1.
         25    1    1    2    0    0  0.61778748326E+02  0.17502744659E+02  0.29303824602E+01  0.14055798432E+03  0.12500000000E+03 0.  0.
          1    1    1    2  502    0 -0.23183559278E+02 -0.30205293697E+02  0.61925821422E+03  0.62042773396E+03  0.00000000000E+00 0. -1.
         -1    1    1    2    0  501 -0.38595189048E+02  0.12702549038E+02 -0.36497811621E+02  0.54617155023E+02  0.00000000000E+00 0.  1.
<mgrwt>
<rscale>  0 0.40101888E+02</rscale>
<asrwt>0</asrwt>
<pdfrwt beam="1">  1        2 0.10779182E+00 0.38076728E+02</pdfrwt>
<pdfrwt beam="2">  1       -2 0.17685546E-01 0.42234760E+02</pdfrwt>
<totfact> 0.10662688E+03</totfact>
</mgrwt>
</event>
<event>
 5    1  0.8891499E-003  0.4107891E+02  0.7546771E-02  0.1565496E+00
          2   -1    0    0  502    0  0.00000000000E+00  0.00000000000E+00  0.11656198176E+04  0.11656198176E+04  0.00000000000E+00 0. -1.
          1   -1    0    0  501    0 -0.00000000000E+00 -0.00000000000E+00 -0.89465806858E+02  0.89465806858E+02  0.00000000000E+00 0. -1.
         25    1    1    2    0    0 -0.21468367320E+02 -0.15847576692E+02  0.55377269990E+03  0.56833198013E+03  0.12500000000E+03 0.  0.
          2    1    1    2  501    0  0.99862982858E+01  0.40042184383E+02 -0.76687460446E+02  0.87086561956E+02  0.00000000000E+00 0. -1.
          1    1    1    2  502    0  0.11482069034E+02 -0.24194607692E+02  0.59906877131E+03  0.59966708240E+03  0.00000000000E+00 0. -1.
<mgrwt>
<rscale>  0 0.33168215E+02</rscale>
<asrwt>0</asrwt>
<pdfrwt beam="1">  1        2 0.17932611E+00 0.26780906E+02</pdfrwt>
<pdfrwt beam="2">  1        1 0.13763971E-01 0.41078912E+02</pdfrwt>
<totfact> 0.12474447E+03</totfact>
</mgrwt>
</event>
<event>
 5    1  0.8891499E-003  0.7912148E+02  0.7546771E-02  0.1382850E+00
         -1   -1    0    0    0  501 -0.00000000000E+00  0.00000000000E+00  0.37119354723E+02  0.37119354723E+02  0.00000000000E+00 0.  1.
          1   -1    0    0  502    0  0.00000000000E+00 -0.00000000000E+00 -0.23181433265E+04  0.23181433265E+04  0.00000000000E+00 0. -1.
         25    1    1    2    0    0  0.31628173377E+02 -0.29290475689E+01 -0.15055299342E+03  0.19824259002E+03  0.12500000000E+03 0.  0.
          2    1    1    2  502    0 -0.78892157500E+02 -0.17061060651E+02 -0.20902784580E+04  0.20918362948E+04  0.00000000000E+00 0. -1.
         -2    1    1    2    0  501  0.47263984122E+02  0.19990108219E+02 -0.40192520403E+02  0.65183796438E+02  0.00000000000E+00 0.  1.
<mgrwt>
<rscale>  0 0.63720629E+02</rscale>
<asrwt>0</asrwt>
<pdfrwt beam="2">  1        1 0.35663749E+00 0.79121477E+02</pdfrwt>
<pdfrwt beam="1">  1       -1 0.57106690E-02 0.51317527E+02</pdfrwt>
<totfact> 0.30771846E+02</totfact>
</mgrwt>
</event>
<event>
 5    1  0.8891499E-003  0.7635239E+02  0.7546771E-02  0.1387513E+00
          2   -1    0    0  502    0  0.00000000000E+00  0.00000000000E+00  0.57719543087E+03  0.57719543087E+03  0.00000000000E+00 0. -1.
         -2   -1    0    0    0  501 -0.00000000000E+00 -0.00000000000E+00 -0.50144152911E+02  0.50144152911E+02  0.00000000000E+00 0.  1.
         25    1    1    2    0    0 -0.72743819381E+02  0.58811465988E+02  0.21899036694E+03  0.26894652369E+03  0.12500000000E+03 0.  0.
          1    1    1    2  502    0  0.49656890398E+02  0.12512159691E+02  0.26905610631E+03  0.27388601506E+03  0.00000000000E+00 0. -1.
         -1    1    1    2    0  501  0.23086928982E+02 -0.71323625679E+02  0.39004804708E+02  0.84507045033E+02  0.00000000000E+00 0.  1.
<mgrwt>
<rscale>  0 0.62529425E+02</rscale>
<asrwt>0</asrwt>
<pdfrwt beam="1">  1        2 0.88799292E-01 0.51208992E+02</pdfrwt>
<pdfrwt beam="2">  1       -2 0.77144855E-02 0.76352392E+02</pdfrwt>
<totfact> 0.49822614E+03</totfact>
</mgrwt>
</event>
<event>
 5    1  0.8891499E-003  0.1586988E+03  0.7546771E-02  0.1320361E+00
          1   -1    0    0  501    0 -0.00000000000E+00  0.00000000000E+00  0.11389854350E+04  0.11389854350E+04  0.00000000000E+00 0. -1.
          2   -1    0    0  502    0  0.00000000000E+00 -0.00000000000E+00 -0.70724258994E+03  0.70724258994E+03  0.00000000000E+00 0. -1.
         25    1    1    2    0    0 -0.16168052816E+03  0.95687129393E+02 -0.11785324397E+02  0.22596573587E+03  0.12500000000E+03 0.  0.
          2    1    1    2  501    0  0.43153801562E+02  0.59275352958E+01  0.10210660170E+04  0.10219947149E+04  0.00000000000E+00 0. -1.
          1    1    1    2  502    0  0.11852672659E+03 -0.10161466469E+03 -0.57753784751E+03  0.59826757417E+03  0.00000000000E+00 0. -1.
<mgrwt>
<rscale>  0 0.83143026E+02</rscale>
<asrwt>0</asrwt>
<pdfrwt beam="2">  1        2 0.10880655E+00 0.15869885E+03</pdfrwt>
<pdfrwt beam="1">  1        1 0.17522853E+00 0.43558998E+02</pdfrwt>
<totfact> 0.83685693E+01</totfact>
</mgrwt>
</event>
<event>
 5    1  0.8891499E-003  0.4696758E+02  0.7546771E-02  0.1566017E+00
          1   -1    0    0  501    0 -0.00000000000E+00  0.00000000000E+00  0.27927425900E+02  0.27927425900E+02  0.00000000000E+00 0. -1.
          2   -1    0    0  502    0  0.00000000000E+00 -0.00000000000E+00 -0.12378085421E+04  0.12378085421E+04  0.00000000000E+00 0. -1.
         25    1    1    2    0    0  0.13497137628E+02 -0.46273161712E+02 -0.62591977232E+03  0.64009682049E+03  0.12500000000E+03 0.  0.
          2    1    1    2  501    0 -0.33094950423E+02  0.33585016043E+02 -0.63738314898E+01  0.47579982912E+02  0.00000000000E+00 0. -1.
          1    1    1    2  502    0  0.19597812795E+02  0.12688145669E+02 -0.57758751238E+03  0.57805916459E+03  0.00000000000E+00 0. -1.
<mgrwt>
<rscale>  0 0.33113939E+02</rscale>
<asrwt>0</asrwt>
<pdfrwt beam="2">  1        2 0.19043207E+00 0.23346591E+02</pdfrwt>
<pdfrwt beam="1">  1        1 0.42965273E-02 0.46967583E+02</pdfrwt>
<totfact> 0.52808208E+03</totfact>
</mgrwt>
</event>
<event>
 5    1  0.8891499E-003  0.3848085E+02  0.7546771E-02  0.1521935E+00
         -2   -1    0    0    0  501 -0.00000000000E+00  0.00000000000E+00  0.11657107303E+04  0.11657107303E+04  0.00000000000E+00 0.  1.
          2   -1    0    0  502    0  0.00000000000E+00 -0.00000000000E+00 -0.10234492960E+04  0.10234492960E+04  0.00000000000E+00 0. -1.
         25    1    1    2    0    0 -0.47822141478E+02 -0.55565979303E+02 -0.10024065579E+03  0.17620364453E+03  0.12500000000E+03 0.  0.
          3    1    1    2  502    0  0.31639509954E+02  0.21283368742E+02 -0.88449764204E+03  0.88531921878E+03  0.00000000000E+00 0. -1.
         -1    1    1    2    0  501  0.16182631525E+02  0.34282610561E+02  0.11269997322E+04  0.11276371630E+04  0.00000000000E+00 0.  1.
<mgrwt>
<rscale>  0 0.38194404E+02</rscale>
<asrwt>0</asrwt>
<pdfrwt beam="2">  1        2 0.15745374E+00 0.38480850E+02</pdfrwt>
<pdfrwt beam="1">  1       -2 0.17934011E+00 0.37910090E+02</pdfrwt>
<totfact> 0.63151071E+00</totfact>
</mgrwt>
</event>
<event>
 5    1  0.8891499E-003  0.2200591E+03  0.7546771E-02  0.1166158E+00
         -2   -1    0    0    0  501 -0.00000000000E+00  0.00000000000E+00  0.82423128024E+03  0.82423128024E+03  0.00000000000E+00 0.  1.
          2   -1    0    0  502    0  0.00000000000E+00 -0.00000000000E+00 -0.89985301603E+03  0.89985301603E+03  0.00000000000E+00 0. -1.
         25    1    1    2    0    0 -0.16821098405E+03 -0.19241951355E+03  0.11789921084E+02  0.28475288688E+03  0.12500000000E+03 0.  0.
          1    1    1    2  502    0  0.14748987820E+03 -0.27564522030E+02 -0.73755720844E+03  0.75266440249E+03  0.00000000000E+00 0. -1.
         -1    1    1    2    0  501  0.20721105854E+02  0.21998403558E+03  0.65014555157E+03  0.68666700690E+03  0.00000000000E+00 0.  1.
<mgrwt>
<rscale>  0 0.18170980E+03</rscale>
<asrwt>0</asrwt>
<pdfrwt beam="2">  1        2 0.13843892E+00 0.15004355E+03</pdfrwt>
<pdfrwt beam="1">  1       -2 0.12680481E+00 0.22005911E+03</pdfrwt>
<totfact> 0.15496101E+01</totfact>
</mgrwt>
</event>
<event>
 5    1  0.8891499E-003  0.4861189E+02  0.7546771E-02  0.1512194E+00
         -2   -1    0    0    0  501 -0.00000000000E+00  0.00000000000E+00  0.30424123228E+02  0.30424123228E+02  0.00000000000E+00 0.  1.
          2   -1    0    0  502    0  0.00000000000E+00 -0.00000000000E+00 -0.16683240590E+04  0.16683240590E+04  0.00000000000E+00 0. -1.
         25    1    1    2    0    0  0.16559246752E+02  0.14281413253E+02 -0.73828952588E+03  0.74911587318E+03  0.12500000000E+03 0.  0.
          1    1    1    2  502    0  0.31845887217E+02 -0.34975627698E+01 -0.89946991814E+03  0.90004029194E+03  0.00000000000E+00 0. -1.
         -1    1    1    2    0  501 -0.48405133969E+02 -0.10783850483E+02 -0.14049177623E+00  0.49592017138E+02  0.00000000000E+00 0.  1.
<mgrwt>
<rscale>  0 0.39463875E+02</rscale>
<asrwt>0</asrwt>
<pdfrwt beam="2">  1        2 0.25666527E+00 0.32037376E+02</pdfrwt>
<pdfrwt beam="1">  1       -2 0.46806338E-02 0.48611890E+02</pdfrwt>
<totfact> 0.24835386E+03</totfact>
</mgrwt>
</event>
<event>
 5    1  0.8891499E-003  0.1633715E+03  0.7546771E-02  0.1301496E+00
         -1   -1    0    0    0  501 -0.00000000000E+00  0.00000000000E+00  0.77337324831E+03  0.77337324831E+03  0.00000000000E+00 0.  1.
          1   -1    0    0  502    0  0.00000000000E+00 -0.00000000000E+00 -0.84292453406E+02  0.84292453406E+02  0.00000000000E+00 0. -1.
         25    1    1    2    0    0  0.66545837001E+02  0.19012266508E+03  0.28740448086E+03  0.37256048076E+03  0.12500000000E+03 0.  0.
          2    1    1    2  502    0 -0.16662682785E+02 -0.47355365033E+02 -0.57379147534E+01  0.50528202627E+02  0.00000000000E+00 0. -1.
         -2    1    1    2    0  501 -0.49883154216E+02 -0.14276730005E+03  0.40741422880E+03  0.43457701834E+03  0.00000000000E+00 0.  1.
<mgrwt>
<rscale>  0 0.90561980E+02</rscale>
<asrwt>0</asrwt>
<pdfrwt beam="2">  1        1 0.12968070E-01 0.50201351E+02</pdfrwt>
<pdfrwt beam="1">  1       -1 0.11898049E+00 0.16337155E+03</pdfrwt>
<totfact> 0.28874518E+02</totfact>
</mgrwt>
</event>
<event>
 5    1  0.8891499E-003  0.6445432E+02  0.7546771E-02  0.1396114E+00
          1   -1    0    0  501    0 -0.00000000000E+00  0.00000000000E+00  0.11299845923E+04  0.11299845923E+04  0.00000000000E+00 0. -1.
          2   -1    0    0  502    0  0.00000000000E+00 -0.00000000000E+00 -0.20372041165E+04  0.20372041165E+04  0.00000000000E+00 0. -1.
         25    1    1    2    0    0 -0.95999572998E+02  0.68367543304E+02 -0.60000695691E+02  0.18197560957E+03  0.12500000000E+03 0.  0.
          2    1    1    2  501    0  0.37477638306E+02 -0.42443631618E+02  0.10677122749E+04  0.10692125781E+04  0.00000000000E+00 0. -1.
          1    1    1    2  502    0  0.58521934692E+02 -0.25923911686E+02 -0.19149311034E+04  0.19160005211E+04  0.00000000000E+00 0. -1.
<mgrwt>
<rscale>  0 0.60411286E+02</rscale>
<asrwt>0</asrwt>
<pdfrwt beam="2">  1        2 0.31341602E+00 0.64454318E+02</pdfrwt>
<pdfrwt beam="1">  1        1 0.17384378E+00 0.56621862E+02</pdfrwt>
<totfact> 0.16433049E+01</totfact>
</mgrwt>
</event>
<event>
 5    1  0.8891499E-003  0.6176617E+02  0.7546771E-02  0.1411033E+00
          1   -1    0    0  502    0  0.00000000000E+00  0.00000000000E+00  0.23966798098E+03  0.23966798098E+03  0.00000000000E+00 0. -1.
         -1   -1    0    0    0  501 -0.00000000000E+00 -0.00000000000E+00 -0.25310047724E+03  0.25310047724E+03  0.00000000000E+00 0.  1.
         25    1    1    2    0    0  0.25484046363E+02 -0.11137543283E+02  0.12194406997E+03  0.17682996830E+03  0.12500000000E+03 0.  0.
          2    1    1    2  502    0 -0.13248340387E+02 -0.50837224580E+02  0.77644799419E+02  0.93747836256E+02  0.00000000000E+00 0. -1.
         -2    1    1    2    0  501 -0.12235705977E+02  0.61974767863E+02 -0.21302136565E+03  0.22219065367E+03  0.00000000000E+00 0.  1.
<mgrwt>
<rscale>  0 0.56963979E+02</rscale>
<asrwt>0</asrwt>
<pdfrwt beam="1">  1        1 0.36871997E-01 0.52535149E+02</pdfrwt>
<pdfrwt beam="2">  1       -1 0.38938535E-01 0.61766168E+02</pdfrwt>
<totfact> 0.74169181E+02</totfact>
</mgrwt>
</event>
<event>
 5    1  0.8891499E-003  0.9375567E+02  0.7546771E-02  0.1300707E+00
          2   -1    0    0  502    0  0.00000000000E+00  0.00000000000E+00  0.20849894912E+04  0.20849894912E+04  0.00000000000E+00 0. -1.
         -2   -1    0    0    0  501 -0.00000000000E+00 -0.00000000000E+00 -0.44546481733E+02  0.44546481733E+02  0.00000000000E+00 0.  1.
         25    1    1    2    0    0  0.58021390398E+01  0.44018126021E+02  0.88866121636E+03  0.89850710498E+03  0.12500000000E+03 0.  0.
          1    1    1    2  502    0 -0.23020206780E+02 -0.13043433584E+03  0.11332785439E+04  0.11409922454E+04  0.00000000000E+00 0. -1.
         -1    1    1    2    0  501  0.17218067740E+02  0.86416209823E+02  0.18503249195E+02  0.90036622591E+02  0.00000000000E+00 0.  1.
<mgrwt>
<rscale>  0 0.90891498E+02</rscale>
<asrwt>0</asrwt>
<pdfrwt beam="1">  1        2 0.32076754E+00 0.93755666E+02</pdfrwt>
<pdfrwt beam="2">  1       -2 0.68533065E-02 0.88114829E+02</pdfrwt>
<totfact> 0.83368506E+02</totfact>
</mgrwt>
</event>
<event>
 5    1  0.8891499E-003  0.9036795E+02  0.7546771E-02  0.1380975E+00
          1   -1    0    0  501    0 -0.00000000000E+00  0.00000000000E+00  0.84324744710E+03  0.84324744710E+03  0.00000000000E+00 0. -1.
          2   -1    0    0  502    0  0.00000000000E+00 -0.00000000000E+00 -0.11307399763E+04  0.11307399763E+04  0.00000000000E+00 0. -1.
         25    1    1    2    0    0 -0.10300773695E+03  0.84395239784E+02  0.40813468298E+03  0.44713764080E+03  0.12500000000E+03 0.  0.
          2    1    1    2  501    0  0.25958253191E+02 -0.37516287743E+02  0.41252171755E+03  0.41503670947E+03  0.00000000000E+00 0. -1.
          1    1    1    2  502    0  0.77049483763E+02 -0.46878952041E+02 -0.11081489298E+04  0.11118130731E+04  0.00000000000E+00 0. -1.
<mgrwt>
<rscale>  0 0.64208279E+02</rscale>
<asrwt>0</asrwt>
<pdfrwt beam="2">  1        2 0.17396000E+00 0.90367950E+02</pdfrwt>
<pdfrwt beam="1">  1        1 0.12973038E+00 0.45621297E+02</pdfrwt>
<totfact> 0.74826015E+01</totfact>
</mgrwt>
</event>
<event>
 5    1  0.8891499E-003  0.1037944E+03  0.7546771E-02  0.1441000E+00
          2   -1    0    0  502    0  0.00000000000E+00  0.00000000000E+00  0.52787416212E+02  0.52787416212E+02  0.00000000000E+00 0. -1.
          1   -1    0    0  501    0 -0.00000000000E+00 -0.00000000000E+00 -0.30493724593E+04  0.30493724593E+04  0.00000000000E+00 0. -1.
         25    1    1    2    0    0  0.90239080325E+02  0.15271906993E+02 -0.87329681754E+03  0.88693215878E+03  0.12500000000E+03 0.  0.
          2    1    1    2  501    0 -0.10639331509E+03  0.36460895802E+01 -0.21644857035E+04  0.21671020262E+04  0.00000000000E+00 0. -1.
          3    1    1    2  502    0  0.16154234767E+02 -0.18917996573E+02  0.41197477953E+02  0.48125690488E+02  0.00000000000E+00 0. -1.
<mgrwt>
<rscale>  0 0.50813993E+02</rscale>
<asrwt>0</asrwt>
<pdfrwt beam="1">  1        2 0.81211426E-02 0.24876694E+02</pdfrwt>
<pdfrwt beam="2">  1        1 0.46913413E+00 0.10379441E+03</pdfrwt>
<totfact> 0.73786668E+01</totfact>
</mgrwt>
</event>
<event>
 5    1  0.8891499E-003  0.3341333E+03  0.7546771E-02  0.1117597E+00
          2   -1    0    0  502    0  0.00000000000E+00  0.00000000000E+00  0.14228033817E+04  0.14228033817E+04  0.00000000000E+00 0. -1.
          1   -1    0    0  501    0 -0.00000000000E+00 -0.00000000000E+00 -0.97909440108E+03  0.97909440108E+03  0.00000000000E+00 0. -1.
         25    1    1    2    0    0 -0.21566751167E+03  0.30506931571E+03 -0.39646247031E+03  0.55891614159E+03  0.12500000000E+03 0.  0.
          2    1    1    2  501    0  0.39358459579E+02 -0.32278711293E+03 -0.44194082749E+03  0.54868233398E+03  0.00000000000E+00 0. -1.
          1    1    1    2  502    0  0.17630905209E+03  0.17717797226E+02  0.12821122784E+04  0.12942993072E+04  0.00000000000E+00 0. -1.
<mgrwt>
<rscale>  0 0.24332579E+03</rscale>
<asrwt>0</asrwt>
<pdfrwt beam="1">  1        2 0.21889283E+00 0.17719707E+03</pdfrwt>
<pdfrwt beam="2">  1        1 0.15062991E+00 0.33413329E+03</pdfrwt>
<totfact> 0.35020933E+01</totfact>
</mgrwt>
</event>
<event>
 5    1  0.8891499E-003  0.2391835E+03  0.7546771E-02  0.1150492E+00
          2   -1    0    0  502    0  0.00000000000E+00  0.00000000000E+00  0.12177647585E+04  0.12177647585E+04  0.00000000000E+00 0. -1.
          1   -1    0    0  501    0 -0.00000000000E+00 -0.00000000000E+00 -0.10494699008E+03  0.10494699008E+03  0.00000000000E+00 0. -1.
         25    1    1    2    0    0 -0.19079189059E+03  0.17157018415E+03  0.51612970312E+03  0.58979042383E+03  0.12500000000E+03 0.  0.
          2    1    1    2  501    0 -0.58557275995E+02 -0.15506293315E+03  0.16349558269E+03  0.23281811220E+03  0.00000000000E+00 0. -1.
          1    1    1    2  502    0  0.24934916658E+03 -0.16507250994E+02  0.43319248259E+03  0.50010321253E+03  0.00000000000E+00 0. -1.
<mgrwt>
<rscale>  0 0.19911042E+03</rscale>
<asrwt>0</asrwt>
<pdfrwt beam="1">  1        2 0.18734841E+00 0.23918352E+03</pdfrwt>
<pdfrwt beam="2">  1        1 0.16145692E-01 0.16575122E+03</pdfrwt>
<totfact> 0.88781872E+02</totfact>
</mgrwt>
</event>
<event>
 5    1  0.8891499E-003  0.3677872E+02  0.7546771E-02  0.1607959E+00
         -1   -1    0    0    0  501 -0.00000000000E+00  0.00000000000E+00  0.10344007295E+03  0.10344007295E+03  0.00000000000E+00 0.  1.
          1   -1    0    0  502    0  0.00000000000E+00 -0.00000000000E+00 -0.54963516861E+03  0.54963516861E+03  0.00000000000E+00 0. -1.
         25    1    1    2    0    0  0.20009278365E+02  0.17297665217E+02 -0.40428829518E+02  0.13401145734E+03  0.12500000000E+03 0.  0.
          2    1    1    2  502    0 -0.36993945766E+02 -0.16925881033E+01 -0.45929065949E+03  0.46078121356E+03  0.00000000000E+00 0. -1.
         -2    1    1    2    0  501  0.16984667401E+02 -0.15605077114E+02  0.53524393348E+02  0.58282570652E+02  0.00000000000E+00 0.  1.
<mgrwt>
<rscale>  0 0.29125652E+02</rscale>
<asrwt>0</asrwt>
<pdfrwt beam="2">  1        1 0.84559252E-01 0.36778716E+02</pdfrwt>
<pdfrwt beam="1">  1       -1 0.15913858E-01 0.23065068E+02</pdfrwt>
<totfact> 0.10829050E+03</totfact>
</mgrwt>
</event>
<event>
 5    1  0.8891499E-003  0.8510286E+02  0.7546771E-02  0.1316409E+00
         -2   -1    0    0    0  501 -0.00000000000E+00  0.00000000000E+00  0.14778799963E+03  0.14778799963E+03  0.00000000000E+00 0.  1.
          2   -1    0    0  502    0  0.00000000000E+00 -0.00000000000E+00 -0.97617916405E+03  0.97617916405E+03  0.00000000000E+00 0. -1.
         25    1    1    2    0    0  0.84341374681E+02  0.40976856442E+02 -0.19295805886E+03  0.24829495107E+03  0.12500000000E+03 0.  0.
          1    1    1    2  502    0 -0.12096397886E+02 -0.85956415355E+02 -0.73760783377E+03  0.74269788247E+03  0.00000000000E+00 0. -1.
         -1    1    1    2    0  501 -0.72244976795E+02  0.44979558913E+02  0.10217472821E+03  0.13297433014E+03  0.00000000000E+00 0.  1.
<mgrwt>
<rscale>  0 0.84627691E+02</rscale>
<asrwt>0</asrwt>
<pdfrwt beam="2">  1        2 0.15018141E+00 0.84155171E+02</pdfrwt>
<pdfrwt beam="1">  1       -2 0.22736615E-01 0.85102864E+02</pdfrwt>
<totfact> 0.47041745E+02</totfact>
</mgrwt>
</event>
<event>
 5    1  0.8891499E-003  0.5564426E+02  0.7546771E-02  0.1458478E+00
          1   -1    0    0  501    0 -0.00000000000E+00  0.00000000000E+00  0.44541107556E+03  0.44541107556E+03  0.00000000000E+00 0. -1.
          2   -1    0    0  502    0  0.00000000000E+00 -0.00000000000E+00 -0.33749707882E+03  0.33749707882E+03  0.00000000000E+00 0. -1.
         25    1    1    2    0    0  0.35831280186E+02  0.88284479273E+02  0.30316016389E+02  0.16006901877E+03  0.12500000000E+03 0.  0.
          2    1    1    2  501    0 -0.16256007447E+02 -0.37415570674E+02  0.34628489202E+03  0.34867952212E+03  0.00000000000E+00 0. -1.
          1    1    1    2  502    0 -0.19575272739E+02 -0.50868908599E+02 -0.26868691167E+03  0.27415961349E+03  0.00000000000E+00 0. -1.
<mgrwt>
<rscale>  0 0.47644245E+02</rscale>
<asrwt>0</asrwt>
<pdfrwt beam="2">  1        2 0.51922628E-01 0.55644264E+02</pdfrwt>
<pdfrwt beam="1">  1        1 0.68524781E-01 0.40794396E+02</pdfrwt>
<totfact> 0.71077066E+02</totfact>
</mgrwt>
</event>
<event>
 5    1  0.8891499E-003  0.6864945E+02  0.7546771E-02  0.1444924E+00
          2   -1    0    0  502    0  0.00000000000E+00  0.00000000000E+00  0.14505579097E+04  0.14505579097E+04  0.00000000000E+00 0. -1.
          1   -1    0    0  501    0 -0.00000000000E+00 -0.00000000000E+00 -0.63916018537E+03  0.63916018537E+03  0.00000000000E+00 0. -1.
         25    1    1    2    0    0  0.13008611552E+02  0.42203183582E+02  0.91167574041E+03  0.92126434227E+03  0.12500000000E+03 0.  0.
          2    1    1    2  501    0 -0.49058262004E+02 -0.48107735043E+02 -0.63187667708E+03  0.63560144924E+03  0.00000000000E+00 0. -1.
          1    1    1    2  502    0  0.36049650452E+02  0.59045514604E+01  0.53159866102E+03  0.53285230358E+03  0.00000000000E+00 0. -1.
<mgrwt>
<rscale>  0 0.50077586E+02</rscale>
<asrwt>0</asrwt>
<pdfrwt beam="1">  1        2 0.22316275E+00 0.36530002E+02</pdfrwt>
<pdfrwt beam="2">  1        1 0.98332337E-01 0.68649453E+02</pdfrwt>
<totfact> 0.78969052E+01</totfact>
</mgrwt>
</event>
<event>
 5    1  0.8891499E-003  0.2031559E+03  0.7546771E-02  0.1166949E+00
          2   -1    0    0  502    0  0.00000000000E+00  0.00000000000E+00  0.20574185817E+04  0.20574185817E+04  0.00000000000E+00 0. -1.
          1   -1    0    0  501    0 -0.00000000000E+00 -0.00000000000E+00 -0.21479207318E+04  0.21479207318E+04  0.00000000000E+00 0. -1.
         25    1    1    2    0    0  0.21577239412E+03  0.24831107842E+03  0.34160057281E+03  0.49044068865E+03  0.12500000000E+03 0.  0.
          2    1    1    2  501    0 -0.14684913761E+03 -0.66139480699E+02 -0.20645752640E+04  0.20708476817E+04  0.00000000000E+00 0. -1.
          1    1    1    2  502    0 -0.68923256515E+02 -0.18217159772E+03  0.16324725410E+04  0.16440509431E+04  0.00000000000E+00 0. -1.
<mgrwt>
<rscale>  0 0.18088539E+03</rscale>
<asrwt>0</asrwt>
<pdfrwt beam="1">  1        2 0.31652594E+00 0.20315594E+03</pdfrwt>
<pdfrwt beam="2">  1        1 0.33044934E+00 0.16105620E+03</pdfrwt>
<totfact> 0.28360179E+00</totfact>
</mgrwt>
</event>
<event>
 5    1  0.8891499E-003  0.7227745E+02  0.7546771E-02  0.1454435E+00
          1   -1    0    0  501    0 -0.00000000000E+00  0.00000000000E+00  0.86131387064E+03  0.86131387064E+03  0.00000000000E+00 0. -1.
          2   -1    0    0  502    0  0.00000000000E+00 -0.00000000000E+00 -0.51217591261E+03  0.51217591261E+03  0.00000000000E+00 0. -1.
         25    1    1    2    0    0 -0.17317839760E+02 -0.10185914668E+03  0.30053264451E+03  0.34149679904E+03  0.12500000000E+03 0.  0.
          2    1    1    2  501    0  0.12028001101E+02  0.30027759975E+02  0.53717232741E+03  0.53814537861E+03  0.00000000000E+00 0. -1.
          1    1    1    2  502    0  0.52898386590E+01  0.71831386706E+02 -0.48856701388E+03  0.49384760561E+03  0.00000000000E+00 0. -1.
<mgrwt>
<rscale>  0 0.48352567E+02</rscale>
<asrwt>0</asrwt>
<pdfrwt beam="2">  1        2 0.78796294E-01 0.72277450E+02</pdfrwt>
<pdfrwt beam="1">  1        1 0.13250983E+00 0.32347166E+02</pdfrwt>
<totfact> 0.19513278E+02</totfact>
</mgrwt>
</event>
<event>
 5    1  0.8891499E-003  0.1547919E+03  0.7546771E-02  0.1250847E+00
          2   -1    0    0  502    0  0.00000000000E+00  0.00000000000E+00  0.29720096199E+04  0.29720096199E+04  0.00000000000E+00 0. -1.
          1   -1    0    0  501    0 -0.00000000000E+00 -0.00000000000E+00 -0.76429722892E+03  0.76429722892E+03  0.00000000000E+00 0. -1.
         25    1    1    2    0    0 -0.84976925628E+02 -0.59707689785E+02  0.43568300642E+01  0.16257326987E+03  0.12500000000E+03 0.  0.
          2    1    1    2  501    0  0.21415617559E+02 -0.83357555206E+02 -0.68035492508E+03  0.68577688410E+03  0.00000000000E+00 0. -1.
          1    1    1    2  502    0  0.63561308070E+02  0.14306524499E+03  0.28837104860E+04  0.28879566949E+04  0.00000000000E+00 0. -1.
<mgrwt>
<rscale>  0 0.11542140E+03</rscale>
<asrwt>0</asrwt>
<pdfrwt beam="1">  1        2 0.45723225E+00 0.15479190E+03</pdfrwt>
<pdfrwt beam="2">  1        1 0.11758419E+00 0.86064573E+02</pdfrwt>
<totfact> 0.84375500E+00</totfact>
</mgrwt>
</event>
<event>
 5    1  0.8891499E-003  0.8439174E+02  0.7546771E-02  0.1326231E+00
          1   -1    0    0  501    0 -0.00000000000E+00  0.00000000000E+00  0.31878842852E+03  0.31878842852E+03  0.00000000000E+00 0. -1.
          2   -1    0    0  502    0  0.00000000000E+00 -0.00000000000E+00 -0.26521343699E+03  0.26521343699E+03  0.00000000000E+00 0. -1.
         25    1    1    2    0    0 -0.54846575129E+02  0.46039582819E+02 -0.16437647793E+03  0.21856901996E+03  0.12500000000E+03 0.  0.
          2    1    1    2  501    0  0.55436917860E+02  0.63629502174E+02  0.23926364344E+03  0.25371057621E+03  0.00000000000E+00 0. -1.
          1    1    1    2  502    0 -0.59034273034E+00 -0.10966908499E+03 -0.21312173977E+02  0.11172226934E+03  0.00000000000E+00 0. -1.
<mgrwt>
<rscale>  0 0.81002098E+02</rscale>
<asrwt>0</asrwt>
<pdfrwt beam="2">  1        2 0.40802067E-01 0.77748605E+02</pdfrwt>
<pdfrwt beam="1">  1        1 0.49044374E-01 0.84391738E+02</pdfrwt>
<totfact> 0.13659277E+03</totfact>
</mgrwt>
</event>
<event>
 5    1  0.8891499E-003  0.1535124E+03  0.7546771E-02  0.1241204E+00
          2   -1    0    0  502    0  0.00000000000E+00  0.00000000000E+00  0.13710747829E+04  0.13710747829E+04  0.00000000000E+00 0. -1.
         -2   -1    0    0    0  501 -0.00000000000E+00 -0.00000000000E+00 -0.81484598992E+02  0.81484598992E+02  0.00000000000E+00 0.  1.
         25    1    1    2    0    0 -0.10705968654E+03  0.55953846748E+02  0.59187107831E+03  0.61687031277E+03  0.12500000000E+03 0.  0.
          1    1    1    2  502    0  0.34363944600E+02  0.89229280919E+02  0.66273425088E+03  0.66959646993E+03  0.00000000000E+00 0. -1.
         -1    1    1    2    0  501  0.72695741944E+02 -0.14518312767E+03  0.34984854775E+02  0.16609259923E+03  0.00000000000E+00 0.  1.
<mgrwt>
<rscale>  0 0.12115487E+03</rscale>
<asrwt>0</asrwt>
<pdfrwt beam="1">  1        2 0.21093456E+00 0.95617704E+02</pdfrwt>
<pdfrwt beam="2">  1       -2 0.12536093E-01 0.15351240E+03</pdfrwt>
<totfact> 0.77584048E+02</totfact>
</mgrwt>
</event>
<event>
 5    1  0.8891499E-003  0.2232836E+03  0.7546771E-02  0.1280074E+00
          2   -1    0    0  502    0  0.00000000000E+00  0.00000000000E+00  0.22376996438E+04  0.22376996438E+04  0.00000000000E+00 0. -1.
          1   -1    0    0  501    0 -0.00000000000E+00 -0.00000000000E+00 -0.44771358965E+03  0.44771358965E+03  0.00000000000E+00 0. -1.
         25    1    1    2    0    0  0.22848970166E+03 -0.13811628956E+03  0.12543314387E+04  0.12885092205E+04  0.12500000000E+03 0.  0.
          2    1    1    2  501    0 -0.19215078085E+03  0.11177664338E+03 -0.40136323788E+03  0.45881193239E+03  0.00000000000E+00 0. -1.
          1    1    1    2  502    0 -0.36338920807E+02  0.26339646181E+02  0.93701785337E+03  0.93809208059E+03  0.00000000000E+00 0. -1.
<mgrwt>
<rscale>  0 0.10010577E+03</rscale>
<asrwt>0</asrwt>
<pdfrwt beam="1">  1        2 0.34426148E+00 0.44880888E+02</pdfrwt>
<pdfrwt beam="2">  1        1 0.68879015E-01 0.22328356E+03</pdfrwt>
<totfact> 0.49764233E+01</totfact>
</mgrwt>
</event>
<event>
 5    1  0.8891499E-003  0.1999991E+03  0.7546771E-02  0.1262084E+00
          1   -1    0    0  501    0 -0.00000000000E+00  0.00000000000E+00  0.10180404679E+04  0.10180404679E+04  0.00000000000E+00 0. -1.
          2   -1    0    0  502    0  0.00000000000E+00 -0.00000000000E+00 -0.49012856491E+03  0.49012856491E+03  0.00000000000E+00 0. -1.
         25    1    1    2    0    0  0.46021219071E+02  0.21432329825E+03 -0.26284450715E+02  0.25370908759E+03  0.12500000000E+03 0.  0.
          2    1    1    2  501    0 -0.56883159250E+02 -0.17818345243E+02  0.87557909692E+03  0.87760580114E+03  0.00000000000E+00 0. -1.
          1    1    1    2  502    0  0.10861940179E+02 -0.19650495301E+03 -0.32138274319E+03  0.37685414410E+03  0.00000000000E+00 0. -1.
<mgrwt>
<rscale>  0 0.10918639E+03</rscale>
<asrwt>0</asrwt>
<pdfrwt beam="2">  1        2 0.75404395E-01 0.19999906E+03</pdfrwt>
<pdfrwt beam="1">  1        1 0.15662161E+00 0.59608617E+02</pdfrwt>
<totfact> 0.14980775E+02</totfact>
</mgrwt>
</event>
<event>
 5    1  0.1993382E-002  0.5377559E+02  0.7546771E-02  0.1478435E+00
          2   -1    0    0  502    0  0.00000000000E+00  0.00000000000E+00  0.10671338147E+04  0.10671338147E+04  0.00000000000E+00 0. -1.
          1   -1    0    0  501    0 -0.00000000000E+00 -0.00000000000E+00 -0.22263552080E+04  0.22263552080E+04  0.00000000000E+00 0. -1.
         25    1    1    2    0    0  0.79009432168E+02 -0.21634071428E+02 -0.57968995249E+03  0.59864510725E+03  0.12500000000E+03 0.  0.
          2    1    1    2  501    0 -0.35287822235E+02 -0.96286357924E+01 -0.16363002934E+04  0.16367090735E+04  0.00000000000E+00 0. -1.
          1    1    1    2  502    0 -0.43721609933E+02  0.31262707221E+02  0.10567688525E+04  0.10581348419E+04  0.00000000000E+00 0. -1.
<mgrwt>
<rscale>  0 0.44350837E+02</rscale>
<asrwt>0</asrwt>
<pdfrwt beam="1">  1        2 0.16417443E+00 0.53775586E+02</pdfrwt>
<pdfrwt beam="2">  1        1 0.34251618E+00 0.36577876E+02</pdfrwt>
<totfact> 0.11342157E+01</totfact>
</mgrwt>
</event>
<event>
 5    1  0.8891499E-003  0.2602137E+02  0.7546771E-02  0.1662541E+00
          1   -1    0    0  501    0 -0.00000000000E+00  0.00000000000E+00  0.34365319612E+03  0.34365319612E+03  0.00000000000E+00 0. -1.
          2   -1    0    0  502    0  0.00000000000E+00 -0.00000000000E+00 -0.74713876822E+02  0.74713876822E+02  0.00000000000E+00 0. -1.
         25    1    1    2    0    0 -0.38556558639E+02 -0.11197484922E+01  0.33514268781E+02  0.13504098734E+03  0.12500000000E+03 0.  0.
          2    1    1    2  501    0  0.18607988860E+02 -0.14860927009E+02  0.25183049898E+03  0.25295395750E+03  0.00000000000E+00 0. -1.
          1    1    1    2  502    0  0.19948569779E+02  0.15980675501E+02 -0.16405448463E+02  0.30372128094E+02  0.00000000000E+00 0. -1.
<mgrwt>
<rscale>  0 0.24893208E+02</rscale>
<asrwt>0</asrwt>
<pdfrwt beam="2">  1        2 0.11494443E-01 0.26021375E+02</pdfrwt>
<pdfrwt beam="1">  1        1 0.52869722E-01 0.23813954E+02</pdfrwt>
<totfact> 0.46788687E+03</totfact>
</mgrwt>
</event>
<event>
 5    1  0.8891499E-003  0.1258309E+03  0.7546771E-02  0.1314939E+00
          2   -1    0    0  502    0  0.00000000000E+00  0.00000000000E+00  0.23198038906E+03  0.23198038906E+03  0.00000000000E+00 0. -1.
          1   -1    0    0  501    0 -0.00000000000E+00 -0.00000000000E+00 -0.30508070899E+03  0.30508070899E+03  0.00000000000E+00 0. -1.
         25    1    1    2    0    0  0.74573116997E+02 -0.68903361183E+02 -0.75445407181E+02  0.17783653288E+03  0.12500000000E+03 0.  0.
          2    1    1    2  501    0 -0.13071733690E+03  0.55708706694E+02 -0.14376978799E+03  0.20213914541E+03  0.00000000000E+00 0. -1.
          1    1    1    2  502    0  0.56144219899E+02  0.13194654489E+02  0.14611487524E+03  0.15708541976E+03  0.00000000000E+00 0. -1.
<mgrwt>
<rscale>  0 0.85188910E+02</rscale>
<asrwt>0</asrwt>
<pdfrwt beam="1">  1        2 0.35689291E-01 0.57673844E+02</pdfrwt>
<pdfrwt beam="2">  1        1 0.46935493E-01 0.12583088E+03</pdfrwt>
<totfact> 0.16475751E+03</totfact>
</mgrwt>
</event>
<event>
 5    1  0.8891499E-003  0.1174404E+03  0.7546771E-02  0.1368436E+00
          1   -1    0    0  501    0 -0.00000000000E+00  0.00000000000E+00  0.11638080540E+04  0.11638080540E+04  0.00000000000E+00 0. -1.
          2   -1    0    0  502    0  0.00000000000E+00 -0.00000000000E+00 -0.67500462900E+03  0.67500462900E+03  0.00000000000E+00 0. -1.
         25    1    1    2    0    0 -0.83537119576E+02 -0.12819357583E+03  0.13145962203E+03  0.23731556092E+03  0.12500000000E+03 0.  0.
          2    1    1    2  501    0  0.10640744664E+02  0.37432762871E+02  0.97358229409E+03  0.97435974904E+03  0.00000000000E+00 0. -1.
          1    1    1    2  502    0  0.72896374912E+02  0.90760812956E+02 -0.61623849115E+03  0.62713737301E+03  0.00000000000E+00 0. -1.
<mgrwt>
<rscale>  0 0.67603863E+02</rscale>
<asrwt>0</asrwt>
<pdfrwt beam="2">  1        2 0.10384687E+00 0.11744037E+03</pdfrwt>
<pdfrwt beam="1">  1        1 0.17904739E+00 0.38915770E+02</pdfrwt>
<totfact> 0.86723479E+01</totfact>
</mgrwt>
</event>
<event>
 5    1  0.8891499E-003  0.5971035E+02  0.7546771E-02  0.1411488E+00
          2   -1    0    0  502    0  0.00000000000E+00  0.00000000000E+00  0.12586771091E+04  0.12586771091E+04  0.00000000000E+00 0. -1.
          1   -1    0    0  501    0 -0.00000000000E+00 -0.00000000000E+00 -0.24388245729E+03  0.24388245729E+03  0.00000000000E+00 0. -1.
         25    1    1    2    0    0  0.15939106906E+02 -0.78074552819E+02  0.15406035421E+03  0.21379729574E+03  0.12500000000E+03 0.  0.
          2    1    1    2  501    0  0.30990943111E+02  0.51056542218E+02 -0.20914880526E+03  0.21750961312E+03  0.00000000000E+00 0. -1.
          1    1    1    2  502    0 -0.46930050016E+02  0.27018010601E+02  0.10698831029E+04  0.10712526575E+04  0.00000000000E+00 0. -1.
<mgrwt>
<rscale>  0 0.56863121E+02</rscale>
<asrwt>0</asrwt>
<pdfrwt beam="1">  1        2 0.19364263E+00 0.54151662E+02</pdfrwt>
<pdfrwt beam="2">  1        1 0.37520379E-01 0.59710347E+02</pdfrwt>
<totfact> 0.31677873E+02</totfact>
</mgrwt>
</event>
<event>
 5    1  0.8891499E-003  0.6786107E+02  0.7546771E-02  0.1375158E+00
          1   -1    0    0  501    0 -0.00000000000E+00  0.00000000000E+00  0.68329354186E+02  0.68329354186E+02  0.00000000000E+00 0. -1.
          2   -1    0    0  502    0  0.00000000000E+00 -0.00000000000E+00 -0.12681058420E+04  0.12681058420E+04  0.00000000000E+00 0. -1.
         25    1    1    2    0    0 -0.10405608491E+03 -0.59250554616E+01 -0.20636695087E+03  0.26282140990E+03  0.12500000000E+03 0.  0.
          2    1    1    2  501    0  0.47611517555E+02  0.42336571009E+02  0.12950123261E+02  0.65014979360E+02  0.00000000000E+00 0. -1.
          1    1    1    2  502    0  0.56444567356E+02 -0.36411515548E+02 -0.10063596602E+04  0.10085988070E+04  0.00000000000E+00 0. -1.
<mgrwt>
<rscale>  0 0.65753911E+02</rscale>
<asrwt>0</asrwt>
<pdfrwt beam="2">  1        2 0.19509321E+00 0.67861071E+02</pdfrwt>
<pdfrwt beam="1">  1        1 0.10512208E-01 0.63712180E+02</pdfrwt>
<totfact> 0.15008146E+03</totfact>
</mgrwt>
</event>
<event>
 5    1  0.8891499E-003  0.9894426E+02  0.7546771E-02  0.1402240E+00
          2   -1    0    0  502    0  0.00000000000E+00  0.00000000000E+00  0.17817564402E+04  0.17817564402E+04  0.00000000000E+00 0. -1.
          1   -1    0    0  501    0 -0.00000000000E+00 -0.00000000000E+00 -0.21576494686E+03  0.21576494686E+03  0.00000000000E+00 0. -1.
         25    1    1    2    0    0  0.21066089212E+01 -0.64801367101E+02 -0.66683396331E+02  0.15580542457E+03  0.12500000000E+03 0.  0.
          2    1    1    2  501    0  0.90292526104E+01 -0.33956223371E+02 -0.10010299561E+03  0.10609034941E+03  0.00000000000E+00 0. -1.
          1    1    1    2  502    0 -0.11135861532E+02  0.98757590473E+02  0.17327778853E+04  0.17356256131E+04  0.00000000000E+00 0. -1.
<mgrwt>
<rscale>  0 0.58962065E+02</rscale>
<asrwt>0</asrwt>
<pdfrwt beam="1">  1        2 0.27411637E+00 0.98944255E+02</pdfrwt>
<pdfrwt beam="2">  1        1 0.33194608E-01 0.35136199E+02</pdfrwt>
<totfact> 0.18741063E+02</totfact>
</mgrwt>
</event>
<event>
 5    1  0.8891499E-003  0.9183210E+02  0.7546771E-02  0.1383604E+00
          1   -1    0    0  501    0 -0.00000000000E+00  0.00000000000E+00  0.92388307875E+02  0.92388307875E+02  0.00000000000E+00 0. -1.
          2   -1    0    0  502    0  0.00000000000E+00 -0.00000000000E+00 -0.56532770757E+03  0.56532770757E+03  0.00000000000E+00 0. -1.
         25    1    1    2    0    0  0.10773672929E+03  0.54069755878E+02 -0.27762881462E+03  0.32746526541E+03  0.12500000000E+03 0.  0.
          2    1    1    2  501    0 -0.43924261385E+02  0.13392435256E+01  0.52477459268E+02  0.68447191635E+02  0.00000000000E+00 0. -1.
          1    1    1    2  502    0 -0.63812467904E+02 -0.55408999404E+02 -0.24778804434E+03  0.26180355841E+03  0.00000000000E+00 0. -1.
<mgrwt>
<rscale>  0 0.63525835E+02</rscale>
<asrwt>0</asrwt>
<pdfrwt beam="2">  1        2 0.86973494E-01 0.91832102E+02</pdfrwt>
<pdfrwt beam="1">  1        1 0.14213586E-01 0.43944673E+02</pdfrwt>
<totfact> 0.27425760E+03</totfact>
</mgrwt>
</event>
<event>
 5    1  0.8891499E-003  0.5377491E+02  0.7546771E-02  0.1499378E+00
          1   -1    0    0  502    0  0.00000000000E+00  0.00000000000E+00  0.28554815630E+03  0.28554815630E+03  0.00000000000E+00 0. -1.
         -1   -1    0    0    0  501 -0.00000000000E+00 -0.00000000000E+00 -0.37629527926E+03  0.37629527926E+03  0.00000000000E+00 0.  1.
         25    1    1    2    0    0 -0.24128238234E+02 -0.63229381012E+02  0.98420161425E+01  0.14248505811E+03  0.12500000000E+03 0.  0.
          2    1    1    2  502    0  0.39710108449E+02  0.35731811058E+02  0.20514948772E+03  0.21199048881E+03  0.00000000000E+00 0. -1.
         -2    1    1    2    0  501 -0.15581870215E+02  0.27497569954E+02 -0.30573862683E+03  0.30736788864E+03  0.00000000000E+00 0.  1.
<mgrwt>
<rscale>  0 0.41226034E+02</rscale>
<asrwt>0</asrwt>
<pdfrwt beam="1">  1        1 0.43930485E-01 0.53774911E+02</pdfrwt>
<pdfrwt beam="2">  1       -1 0.57891582E-01 0.31605554E+02</pdfrwt>
<totfact> 0.29968374E+02</totfact>
</mgrwt>
</event>
<event>
 5    1  0.8891499E-003  0.4526092E+02  0.7546771E-02  0.1515442E+00
          1   -1    0    0  501    0 -0.00000000000E+00  0.00000000000E+00  0.13538729622E+04  0.13538729622E+04  0.00000000000E+00 0. -1.
          2   -1    0    0  502    0  0.00000000000E+00 -0.00000000000E+00 -0.46760906534E+02  0.46760906534E+02  0.00000000000E+00 0. -1.
         25    1    1    2    0    0 -0.15914115750E+02  0.20596310791E+02  0.47257375862E+03  0.48951856393E+03  0.12500000000E+03 0.  0.
          2    1    1    2  501    0 -0.49772386080E+01 -0.46993437190E+02  0.86465531964E+03  0.86594571298E+03  0.00000000000E+00 0. -1.
          1    1    1    2  502    0  0.20891354358E+02  0.26397126398E+02 -0.30117022638E+02  0.45169591780E+02  0.00000000000E+00 0. -1.
<mgrwt>
<rscale>  0 0.39034064E+02</rscale>
<asrwt>0</asrwt>
<pdfrwt beam="2">  1        2 0.71939866E-02 0.33663882E+02</pdfrwt>
<pdfrwt beam="1">  1        1 0.20828812E+00 0.45260917E+02</pdfrwt>
<totfact> 0.11781938E+03</totfact>
</mgrwt>
</event>
<event>
 5    1  0.8891499E-003  0.6769371E+02  0.7546771E-02  0.1389268E+00
         -2   -1    0    0    0  501 -0.00000000000E+00  0.00000000000E+00  0.23830454880E+02  0.23830454880E+02  0.00000000000E+00 0.  1.
          2   -1    0    0  502    0  0.00000000000E+00 -0.00000000000E+00 -0.37167411765E+04  0.37167411765E+04  0.00000000000E+00 0. -1.
         25    1    1    2    0    0  0.19572298552E+02 -0.66500491233E+02 -0.67839131752E+03  0.69328577793E+03  0.12500000000E+03 0.  0.
          1    1    1    2  502    0  0.43588395690E+02  0.36649548963E+02 -0.29548880956E+04  0.29554368197E+04  0.00000000000E+00 0. -1.
         -1    1    1    2    0  501 -0.63160694242E+02  0.29850942270E+02 -0.59631308568E+02  0.91849033817E+02  0.00000000000E+00 0.  1.
<mgrwt>
<rscale>  0 0.62089121E+02</rscale>
<asrwt>0</asrwt>
<pdfrwt beam="2">  1        2 0.57180622E+00 0.56948553E+02</pdfrwt>
<pdfrwt beam="1">  1       -2 0.36662246E-02 0.67693711E+02</pdfrwt>
<totfact> 0.26723060E+02</totfact>
</mgrwt>
</event>
<event>
 5    1  0.8891499E-003  0.1556455E+03  0.7546771E-02  0.1222315E+00
          2   -1    0    0  502    0  0.00000000000E+00  0.00000000000E+00  0.15207242053E+04  0.15207242053E+04  0.00000000000E+00 0. -1.
          1   -1    0    0  501    0 -0.00000000000E+00 -0.00000000000E+00 -0.29988191545E+03  0.29988191545E+03  0.00000000000E+00 0. -1.
         25    1    1    2    0    0 -0.74212568954E+02  0.18924516986E+03  0.21068764760E+03  0.31833241204E+03  0.12500000000E+03 0.  0.
          2    1    1    2  501    0 -0.33562794627E+02 -0.15043344685E+03 -0.21899518410E+03  0.26779763586E+03  0.00000000000E+00 0. -1.
          1    1    1    2  502    0  0.10777536358E+03 -0.38811723017E+02  0.12291498263E+04  0.12344760728E+04  0.00000000000E+00 0. -1.
<mgrwt>
<rscale>  0 0.13352643E+03</rscale>
<asrwt>0</asrwt>
<pdfrwt beam="1">  1        2 0.23395757E+00 0.11455077E+03</pdfrwt>
<pdfrwt beam="2">  1        1 0.46135680E-01 0.15564547E+03</pdfrwt>
<totfact> 0.17098275E+02</totfact>
</mgrwt>
</event>
<event>
 5    1  0.8891499E-003  0.5925610E+02  0.7546771E-02  0.1414456E+00
          2   -1    0    0  502    0  0.00000000000E+00  0.00000000000E+00  0.18783948007E+03  0.18783948007E+03  0.00000000000E+00 0. -1.
          1   -1    0    0  501    0 -0.00000000000E+00 -0.00000000000E+00 -0.28469716406E+03  0.28469716406E+03  0.00000000000E+00 0. -1.
         25    1    1    2    0    0  0.69025776892E+02  0.70873603675E+02 -0.58120626156E+02  0.16967802674E+03  0.12500000000E+03 0.  0.
          2    1    1    2  501    0 -0.50757106507E+02 -0.16341600700E+02 -0.15999871856E+03  0.16865029414E+03  0.00000000000E+00 0. -1.
          3    1    1    2  502    0 -0.18268670385E+02 -0.54532002975E+02  0.12126166073E+03  0.13420832325E+03  0.00000000000E+00 0. -1.
<mgrwt>
<rscale>  0 0.56211270E+02</rscale>
<asrwt>0</asrwt>
<pdfrwt beam="1">  1        2 0.28898382E-01 0.59256096E+02</pdfrwt>
<pdfrwt beam="2">  1        1 0.43799564E-01 0.53322901E+02</pdfrwt>
<totfact> 0.22329447E+03</totfact>
</mgrwt>
</event>
<event>
 5    1  0.8891499E-003  0.9872547E+02  0.7546771E-02  0.1306916E+00
          2   -1    0    0  502    0  0.00000000000E+00  0.00000000000E+00  0.28194511681E+04  0.28194511681E+04  0.00000000000E+00 0. -1.
         -2   -1    0    0    0  501 -0.00000000000E+00 -0.00000000000E+00 -0.11604667446E+03  0.11604667446E+03  0.00000000000E+00 0.  1.
         25    1    1    2    0    0  0.15499005987E+03  0.46340447479E+02  0.18063104840E+03  0.27280383314E+03  0.12500000000E+03 0.  0.
          1    1    1    2  502    0 -0.63849282256E+02 -0.46608857668E+02  0.25621795270E+04  0.25633987292E+04  0.00000000000E+00 0. -1.
         -1    1    1    2    0  501 -0.91140777612E+02  0.26841018945E+00 -0.39406081761E+02  0.99295280187E+02  0.00000000000E+00 0.  1.
<mgrwt>
<rscale>  0 0.88342411E+02</rscale>
<asrwt>0</asrwt>
<pdfrwt beam="1">  1        2 0.43376167E+00 0.79051353E+02</pdfrwt>
<pdfrwt beam="2">  1       -2 0.17853337E-01 0.98725465E+02</pdfrwt>
<totfact> 0.78666439E+01</totfact>
</mgrwt>
</event>
<event>
 5    1  0.8891499E-003  0.8002174E+02  0.7546771E-02  0.1493869E+00
          1   -1    0    0  502    0  0.00000000000E+00  0.00000000000E+00  0.83724357281E+03  0.83724357281E+03  0.00000000000E+00 0. -1.
         -1   -1    0    0    0  501 -0.00000000000E+00 -0.00000000000E+00 -0.53812431487E+02  0.53812431487E+02  0.00000000000E+00 0.  1.
         25    1    1    2    0    0  0.69033850795E+02 -0.24119675146E+02  0.13002084989E+03  0.19462233349E+03  0.12500000000E+03 0.  0.
          2    1    1    2  502    0  0.15634959700E+01 -0.22006852966E+02  0.59126960402E+03  0.59168107181E+03  0.00000000000E+00 0. -1.
         -2    1    1    2    0  501 -0.70597346765E+02  0.46126528112E+02  0.62140687408E+02  0.10475259900E+03  0.00000000000E+00 0.  1.
<mgrwt>
<rscale>  0 0.42017444E+02</rscale>
<asrwt>0</asrwt>
<pdfrwt beam="1">  1        1 0.12880669E+00 0.22062323E+02</pdfrwt>
<pdfrwt beam="2">  1       -1 0.82788362E-02 0.80021744E+02</pdfrwt>
<totfact> 0.18465490E+03</totfact>
</mgrwt>
</event>
<event>
 5    1  0.8891499E-003  0.3861245E+02  0.7546771E-02  0.1612505E+00
          1   -1    0    0  501    0 -0.00000000000E+00  0.00000000000E+00  0.17941698285E+04  0.17941698285E+04  0.00000000000E+00 0. -1.
          2   -1    0    0  502    0  0.00000000000E+00 -0.00000000000E+00 -0.12594165474E+03  0.12594165474E+03  0.00000000000E+00 0. -1.
         25    1    1    2    0    0  0.36927369057E+02  0.13675089455E+02  0.67134601526E+03  0.68401835565E+03  0.12500000000E+03 0.  0.
          2    1    1    2  501    0  0.93583721099E+00 -0.21364131312E+02  0.11132621367E+04  0.11134675060E+04  0.00000000000E+00 0. -1.
          1    1    1    2  502    0 -0.37863206268E+02  0.76890418572E+01 -0.11637997818E+03  0.12262562161E+03  0.00000000000E+00 0. -1.
<mgrwt>
<rscale>  0 0.28735214E+02</rscale>
<asrwt>0</asrwt>
<pdfrwt beam="2">  1        2 0.19375640E-01 0.38612450E+02</pdfrwt>
<pdfrwt beam="1">  1        1 0.27602611E+00 0.21384618E+02</pdfrwt>
<totfact> 0.22498173E+02</totfact>
</mgrwt>
</event>
<event>
 5    1  0.8891499E-003  0.8872849E+02  0.7546771E-02  0.1316679E+00
          2   -1    0    0  502    0  0.00000000000E+00  0.00000000000E+00  0.83299294843E+03  0.83299294843E+03  0.00000000000E+00 0. -1.
          1   -1    0    0  501    0 -0.00000000000E+00 -0.00000000000E+00 -0.99409804618E+02  0.99409804618E+02  0.00000000000E+00 0. -1.
         25    1    1    2    0    0 -0.59353922747E+02  0.41574767948E+02  0.32059157826E+03  0.35164656905E+03  0.12500000000E+03 0.  0.
          2    1    1    2  501    0  0.85833809532E+02  0.34467551642E+02 -0.53844658174E+02  0.10702664243E+03  0.00000000000E+00 0. -1.
          1    1    1    2  502    0 -0.26479886784E+02 -0.76042319591E+02  0.46683622373E+03  0.47372954157E+03  0.00000000000E+00 0. -1.
<mgrwt>
<rscale>  0 0.84525142E+02</rscale>
<asrwt>0</asrwt>
<pdfrwt beam="1">  1        2 0.12815276E+00 0.80520921E+02</pdfrwt>
<pdfrwt beam="2">  1        1 0.15293817E-01 0.88728489E+02</pdfrwt>
<totfact> 0.16616502E+03</totfact>
</mgrwt>
</event>
<event>
 5    1  0.8891499E-003  0.1025029E+03  0.7546771E-02  0.1401502E+00
          2   -1    0    0  502    0  0.00000000000E+00  0.00000000000E+00  0.13161410355E+04  0.13161410355E+04  0.00000000000E+00 0. -1.
         -2   -1    0    0    0  501 -0.00000000000E+00 -0.00000000000E+00 -0.36510113890E+02  0.36510113890E+02  0.00000000000E+00 0.  1.
         25    1    1    2    0    0 -0.10932343239E+03  0.64082948767E+02  0.89330853999E+03  0.91086957618E+03  0.12500000000E+03 0.  0.
          1    1    1    2  502    0  0.34052356889E+02  0.20576576437E+01  0.31956023921E+03  0.32137601567E+03  0.00000000000E+00 0. -1.
         -1    1    1    2    0  501  0.75271075501E+02 -0.66140606411E+02  0.66762142379E+02  0.12040555751E+03  0.00000000000E+00 0.  1.
<mgrwt>
<rscale>  0 0.59134008E+02</rscale>
<asrwt>0</asrwt>
<pdfrwt beam="1">  1        2 0.20248320E+00 0.34114469E+02</pdfrwt>
<pdfrwt beam="2">  1       -2 0.56169416E-02 0.10250287E+03</pdfrwt>
<totfact> 0.30182112E+03</totfact>
</mgrwt>
</event>
<event>
 5    1  0.8891499E-003  0.1403252E+03  0.7546771E-02  0.1413369E+00
          1   -1    0    0  501    0 -0.00000000000E+00  0.00000000000E+00  0.11727168302E+04  0.11727168302E+04  0.00000000000E+00 0. -1.
          2   -1    0    0  502    0  0.00000000000E+00 -0.00000000000E+00 -0.39699209424E+03  0.39699209424E+03  0.00000000000E+00 0. -1.
         25    1    1    2    0    0  0.38795935406E+02  0.14469121430E+03  0.41464263518E+03  0.45825122696E+03  0.12500000000E+03 0.  0.
          2    1    1    2  501    0 -0.17539926584E+02 -0.13670247156E+03  0.72946742208E+03  0.74237317747E+03  0.00000000000E+00 0. -1.
          1    1    1    2  502    0 -0.21256008821E+02 -0.79887427411E+01 -0.36838532133E+03  0.36908451998E+03  0.00000000000E+00 0. -1.
<mgrwt>
<rscale>  0 0.56448716E+02</rscale>
<asrwt>0</asrwt>
<pdfrwt beam="2">  1        2 0.61075707E-01 0.22707662E+02</pdfrwt>
<pdfrwt beam="1">  1        1 0.18041797E+00 0.14032521E+03</pdfrwt>
<totfact> 0.13921052E+02</totfact>
</mgrwt>
</event>
<event>
 5    1  0.8891499E-003  0.9009787E+02  0.7546771E-02  0.1428164E+00
         -2   -1    0    0    0  501 -0.00000000000E+00  0.00000000000E+00  0.45903978032E+03  0.45903978032E+03  0.00000000000E+00 0.  1.
          2   -1    0    0  502    0  0.00000000000E+00 -0.00000000000E+00 -0.68712960207E+02  0.68712960207E+02  0.00000000000E+00 0. -1.
         25    1    1    2    0    0  0.73634816874E+02  0.29676832302E+02  0.37460782767E+03  0.40281363579E+03  0.12500000000E+03 0.  0.
          1    1    1    2  502    0 -0.68959115142E+02 -0.60895595551E+02  0.74044445583E+01  0.92295497820E+02  0.00000000000E+00 0. -1.
         -1    1    1    2    0  501 -0.46757017318E+01  0.31218763250E+02  0.83145478843E+01  0.32643606909E+02  0.00000000000E+00 0.  1.
<mgrwt>
<rscale>  0 0.53330257E+02</rscale>
<asrwt>0</asrwt>
<pdfrwt beam="2">  1        2 0.10571225E-01 0.90097867E+02</pdfrwt>
<pdfrwt beam="1">  1       -2 0.70621503E-01 0.31566966E+02</pdfrwt>
<totfact> 0.10803772E+03</totfact>
</mgrwt>
</event>
<event>
 5    1  0.8891499E-003  0.1825761E+03  0.7546771E-02  0.1385807E+00
          1   -1    0    0  501    0 -0.00000000000E+00  0.00000000000E+00  0.88424409999E+03  0.88424409999E+03  0.00000000000E+00 0. -1.
          2   -1    0    0  502    0  0.00000000000E+00 -0.00000000000E+00 -0.31112626462E+04  0.31112626462E+04  0.00000000000E+00 0. -1.
         25    1    1    2    0    0 -0.15533340998E+03  0.79162143448E+02  0.35690912230E+03  0.41641834109E+03  0.12500000000E+03 0.  0.
          2    1    1    2  501    0 -0.15675652271E+02 -0.15023422313E+02  0.49463570818E+03  0.49511202076E+03  0.00000000000E+00 0. -1.
          1    1    1    2  502    0  0.17100906225E+03 -0.64138721135E+02 -0.30785633767E+04  0.30839763844E+04  0.00000000000E+00 0. -1.
<mgrwt>
<rscale>  0 0.62961648E+02</rscale>
<asrwt>0</asrwt>
<pdfrwt beam="2">  1        2 0.47865580E+00 0.18257608E+03</pdfrwt>
<pdfrwt beam="1">  1        1 0.13603755E+00 0.21712423E+02</pdfrwt>
<totfact> 0.59437095E+00</totfact>
</mgrwt>
</event>
<event>
 5    1  0.8891499E-003  0.1355484E+03  0.7546771E-02  0.1238759E+00
          1   -1    0    0  501    0 -0.00000000000E+00  0.00000000000E+00  0.10544965811E+04  0.10544965811E+04  0.00000000000E+00 0. -1.
          2   -1    0    0  502    0  0.00000000000E+00 -0.00000000000E+00 -0.47850288149E+03  0.47850288149E+03  0.00000000000E+00 0. -1.
         25    1    1    2    0    0  0.69830165505E+02  0.74122483490E+02  0.68136555246E+02  0.17503709531E+03  0.12500000000E+03 0.  0.
          2    1    1    2  501    0  0.72186181728E+02 -0.84337987379E+02  0.91754573961E+03  0.92423694215E+03  0.00000000000E+00 0. -1.
          1    1    1    2  502    0 -0.14201634723E+03  0.10215503888E+02 -0.40968859520E+03  0.43372542517E+03  0.00000000000E+00 0. -1.
<mgrwt>
<rscale>  0 0.12266842E+03</rscale>
<asrwt>0</asrwt>
<pdfrwt beam="2">  1        2 0.73615828E-01 0.13554836E+03</pdfrwt>
<pdfrwt beam="1">  1        1 0.16223024E+00 0.11101235E+03</pdfrwt>
<totfact> 0.13974648E+02</totfact>
</mgrwt>
</event>
<event>
 5    1  0.8891499E-003  0.6258749E+02  0.7546771E-02  0.1540955E+00
          2   -1    0    0  502    0  0.00000000000E+00  0.00000000000E+00  0.35039234468E+03  0.35039234468E+03  0.00000000000E+00 0. -1.
          1   -1    0    0  501    0 -0.00000000000E+00 -0.00000000000E+00 -0.19731671300E+03  0.19731671300E+03  0.00000000000E+00 0. -1.
         25    1    1    2    0    0  0.15859701518E+01  0.63783535382E+02 -0.96036261526E+02  0.17005533868E+03  0.12500000000E+03 0.  0.
          2    1    1    2  501    0 -0.20177896480E+02 -0.39698893031E+01 -0.59393998610E+02  0.62853437442E+02  0.00000000000E+00 0. -1.
          1    1    1    2  502    0  0.18591926329E+02 -0.59813646079E+02  0.30850589181E+03  0.31480028155E+03  0.00000000000E+00 0. -1.
<mgrwt>
<rscale>  0 0.35876092E+02</rscale>
<asrwt>0</asrwt>
<pdfrwt beam="1">  1        2 0.53906514E-01 0.62587492E+02</pdfrwt>
<pdfrwt beam="2">  1        1 0.30356417E-01 0.20564716E+02</pdfrwt>
<totfact> 0.17648638E+03</totfact>
</mgrwt>
</event>
<event>
 5    1  0.8891499E-003  0.7364741E+02  0.7546771E-02  0.1397641E+00
          2   -1    0    0  502    0  0.00000000000E+00  0.00000000000E+00  0.26052512912E+03  0.26052512912E+03  0.00000000000E+00 0. -1.
          1   -1    0    0  501    0 -0.00000000000E+00 -0.00000000000E+00 -0.82143264858E+03  0.82143264858E+03  0.00000000000E+00 0. -1.
         25    1    1    2    0    0 -0.61241626226E+02 -0.35544124019E+01  0.80370596293E+02  0.16077189860E+03  0.12500000000E+03 0.  0.
          2    1    1    2  501    0  0.52914175800E+02  0.51796693454E+02 -0.77513183929E+03  0.77866050095E+03  0.00000000000E+00 0. -1.
          1    1    1    2  502    0  0.83274504260E+01 -0.48242281052E+02  0.13385372354E+03  0.14252537815E+03  0.00000000000E+00 0. -1.
<mgrwt>
<rscale>  0 0.60045508E+02</rscale>
<asrwt>0</asrwt>
<pdfrwt beam="1">  1        2 0.40080789E-01 0.48955736E+02</pdfrwt>
<pdfrwt beam="2">  1        1 0.12637425E+00 0.73647406E+02</pdfrwt>
<totfact> 0.40267793E+02</totfact>
</mgrwt>
</event>
<event>
 5    1  0.8891499E-003  0.1295879E+03  0.7546771E-02  0.1348291E+00
          2   -1    0    0  502    0  0.00000000000E+00  0.00000000000E+00  0.38413159585E+04  0.38413159585E+04  0.00000000000E+00 0. -1.
         -2   -1    0    0    0  501 -0.00000000000E+00 -0.00000000000E+00 -0.59253589772E+03  0.59253589772E+03  0.00000000000E+00 0.  1.
         25    1    1    2    0    0  0.15157251711E+03 -0.86186926009E+01  0.37281535583E+03  0.42150302413E+03  0.12500000000E+03 0.  0.
          1    1    1    2  502    0 -0.12270918997E+03  0.38841059795E+02  0.34421839468E+04  0.34445894526E+04  0.00000000000E+00 0. -1.
         -1    1    1    2    0  501 -0.28863327148E+02 -0.30222367194E+02 -0.56621924187E+03  0.56775937949E+03  0.00000000000E+00 0.  1.
<mgrwt>
<rscale>  0 0.73590753E+02</rscale>
<asrwt>0</asrwt>
<pdfrwt beam="1">  1        2 0.59097167E+00 0.12958785E+03</pdfrwt>
<pdfrwt beam="2">  1       -2 0.91159371E-01 0.41790946E+02</pdfrwt>
<totfact> 0.76490514E-01</totfact>
</mgrwt>
</event>
<event>
 5    1  0.8891499E-003  0.1028197E+03  0.7546771E-02  0.1428927E+00
          2   -1    0    0  502    0  0.00000000000E+00  0.00000000000E+00  0.16015634710E+04  0.16015634710E+04  0.00000000000E+00 0. -1.
          1   -1    0    0  501    0 -0.00000000000E+00 -0.00000000000E+00 -0.22297076079E+03  0.22297076079E+03  0.00000000000E+00 0. -1.
         25    1    1    2    0    0 -0.89445496380E+02  0.85806550345E+02  0.15396114846E+03  0.23386384103E+03  0.12500000000E+03 0.  0.
          2    1    1    2  501    0  0.82240188474E+02 -0.59265920412E+02 -0.16883670102E+03  0.19693077346E+03  0.00000000000E+00 0. -1.
          1    1    1    2  502    0  0.72053079061E+01 -0.26540629933E+02  0.13934682628E+04  0.13937396173E+04  0.00000000000E+00 0. -1.
<mgrwt>
<rscale>  0 0.53175900E+02</rscale>
<asrwt>0</asrwt>
<pdfrwt beam="1">  1        2 0.24639437E+00 0.27501300E+02</pdfrwt>
<pdfrwt beam="2">  1        1 0.34303195E-01 0.10281973E+03</pdfrwt>
<totfact> 0.25512737E+02</totfact>
</mgrwt>
</event>
<event>
 5    1  0.8891499E-003  0.1700045E+03  0.7546771E-02  0.1296152E+00
          2   -1    0    0  502    0  0.00000000000E+00  0.00000000000E+00  0.19690007140E+04  0.19690007140E+04  0.00000000000E+00 0. -1.
          1   -1    0    0  501    0 -0.00000000000E+00 -0.00000000000E+00 -0.10298333676E+04  0.10298333676E+04  0.00000000000E+00 0. -1.
         25    1    1    2    0    0  0.19602287268E+03  0.15769545506E+02  0.23020357173E+03  0.32755507876E+03  0.12500000000E+03 0.  0.
          2    1    1    2  501    0 -0.35973888584E+02  0.35703117220E+02 -0.97631771443E+03  0.97763240165E+03  0.00000000000E+00 0. -1.
          1    1    1    2  502    0 -0.16004898410E+03 -0.51472662726E+02  0.16852814891E+04  0.16936466012E+04  0.00000000000E+00 0. -1.
<mgrwt>
<rscale>  0 0.92824838E+02</rscale>
<asrwt>0</asrwt>
<pdfrwt beam="1">  1        2 0.30292319E+00 0.17000451E+03</pdfrwt>
<pdfrwt beam="2">  1        1 0.15843590E+00 0.50683659E+02</pdfrwt>
<totfact> 0.18898120E+01</totfact>
</mgrwt>
</event>
<event>
 5    1  0.8891499E-003  0.6712597E+02  0.7546771E-02  0.1384604E+00
         -2   -1    0    0    0  501 -0.00000000000E+00  0.00000000000E+00  0.15722831519E+03  0.15722831519E+03  0.00000000000E+00 0.  1.
          2   -1    0    0  502    0  0.00000000000E+00 -0.00000000000E+00 -0.70657914553E+03  0.70657914553E+03  0.00000000000E+00 0. -1.
         25    1    1    2    0    0 -0.69160995395E+02  0.60760597846E+02  0.26314625413E+02  0.15745651160E+03  0.12500000000E+03 0.  0.
          1    1    1    2  502    0  0.59530825047E+02  0.34966910227E+01 -0.62307256535E+03  0.62591977734E+03  0.00000000000E+00 0. -1.
         -1    1    1    2    0  501  0.96301703482E+01 -0.64257288869E+02  0.47407109594E+02  0.80431171780E+02  0.00000000000E+00 0.  1.
<mgrwt>
<rscale>  0 0.63268886E+02</rscale>
<asrwt>0</asrwt>
<pdfrwt beam="2">  1        2 0.10870449E+00 0.59633430E+02</pdfrwt>
<pdfrwt beam="1">  1       -2 0.24188971E-01 0.67125972E+02</pdfrwt>
<totfact> 0.63306448E+02</totfact>
</mgrwt>
</event>
<event>
 5    1  0.8891499E-003  0.8300719E+02  0.7546771E-02  0.1390263E+00
          2   -1    0    0  502    0  0.00000000000E+00  0.00000000000E+00  0.11423312622E+04  0.11423312622E+04  0.00000000000E+00 0. -1.
          1   -1    0    0  501    0 -0.00000000000E+00 -0.00000000000E+00 -0.35629755799E+03  0.35629755799E+03  0.00000000000E+00 0. -1.
         25    1    1    2    0    0  0.11959454745E+03 -0.29662071224E+02  0.52264709622E+03  0.55133264136E+03  0.12500000000E+03 0.  0.
          2    1    1    2  501    0 -0.74063193021E+02  0.36703032188E+02 -0.33606272532E+03  0.34607892811E+03  0.00000000000E+00 0. -1.
          1    1    1    2  502    0 -0.45531354425E+02 -0.70409609637E+01  0.59944933334E+03  0.60121725076E+03  0.00000000000E+00 0. -1.
<mgrwt>
<rscale>  0 0.61841349E+02</rscale>
<asrwt>0</asrwt>
<pdfrwt beam="1">  1        2 0.17574327E+00 0.46072545E+02</pdfrwt>
<pdfrwt beam="2">  1        1 0.54815010E-01 0.83007189E+02</pdfrwt>
<totfact> 0.23319330E+02</totfact>
</mgrwt>
</event>
<event>
 5    1  0.8891499E-003  0.2973415E+03  0.7546771E-02  0.1212033E+00
          2   -1    0    0  502    0  0.00000000000E+00  0.00000000000E+00  0.29985593559E+04  0.29985593559E+04  0.00000000000E+00 0. -1.
          1   -1    0    0  501    0 -0.00000000000E+00 -0.00000000000E+00 -0.89197730699E+02  0.89197730699E+02  0.00000000000E+00 0. -1.
         25    1    1    2    0    0 -0.23236554393E+03 -0.21524474867E+03  0.11531166903E+04  0.12023423595E+04  0.12500000000E+03 0.  0.
          2    1    1    2  501    0 -0.15821266724E+02  0.64932272234E+02 -0.31777630838E+02  0.74002231587E+02  0.00000000000E+00 0. -1.
          1    1    1    2  502    0  0.24818681065E+03  0.15031247644E+03  0.17880225657E+04  0.18114124955E+04  0.00000000000E+00 0. -1.
<mgrwt>
<rscale>  0 0.14096779E+03</rscale>
<asrwt>0</asrwt>
<pdfrwt beam="1">  1        2 0.46131675E+00 0.29734148E+03</pdfrwt>
<pdfrwt beam="2">  1        1 0.13722730E-01 0.66831972E+02</pdfrwt>
<totfact> 0.11017684E+02</totfact>
</mgrwt>
</event>
<event>
 5    1  0.8891499E-003  0.1448134E+03  0.7546771E-02  0.1282328E+00
          2   -1    0    0  502    0  0.00000000000E+00  0.00000000000E+00  0.14470185833E+04  0.14470185833E+04  0.00000000000E+00 0. -1.
         -2   -1    0    0    0  501 -0.00000000000E+00 -0.00000000000E+00 -0.39077412286E+03  0.39077412286E+03  0.00000000000E+00 0.  1.
         25    1    1    2    0    0 -0.85276188246E+02 -0.17192081939E+03 -0.10598815163E+03  0.25236339811E+03  0.12500000000E+03 0.  0.
          1    1    1    2  502    0  0.98081384236E+02  0.10540742819E+03  0.13645238692E+04  0.13720991485E+04  0.00000000000E+00 0. -1.
         -1    1    1    2    0  501 -0.12805195990E+02  0.66513391204E+02 -0.20229125711E+03  0.21333015951E+03  0.00000000000E+00 0.  1.
<mgrwt>
<rscale>  0 0.99039939E+02</rscale>
<asrwt>0</asrwt>
<pdfrwt beam="1">  1        2 0.22261824E+00 0.14481342E+03</pdfrwt>
<pdfrwt beam="2">  1       -2 0.60119097E-01 0.67734808E+02</pdfrwt>
<totfact> 0.41295194E+01</totfact>
</mgrwt>
</event>
<event>
 5    1  0.8891499E-003  0.5252055E+02  0.7546771E-02  0.1499328E+00
          2   -1    0    0  502    0  0.00000000000E+00  0.00000000000E+00  0.84286515823E+02  0.84286515823E+02  0.00000000000E+00 0. -1.
          1   -1    0    0  501    0 -0.00000000000E+00 -0.00000000000E+00 -0.37813100247E+04  0.37813100247E+04  0.00000000000E+00 0. -1.
         25    1    1    2    0    0 -0.64889687409E+02 -0.52415148939E+02 -0.13872110600E+04  0.13953270385E+04  0.12500000000E+03 0.  0.
          2    1    1    2  501    0  0.20062870451E+02  0.25404712693E+02 -0.23813842337E+04  0.23816042464E+04  0.00000000000E+00 0. -1.
          1    1    1    2  502    0  0.44826816957E+02  0.27010436246E+02  0.71571784757E+02  0.88665255642E+02  0.00000000000E+00 0. -1.
<mgrwt>
<rscale>  0 0.41233145E+02</rscale>
<asrwt>0</asrwt>
<pdfrwt beam="1">  1        2 0.12967158E-01 0.52520546E+02</pdfrwt>
<pdfrwt beam="2">  1        1 0.58173991E+00 0.32371565E+02</pdfrwt>
<totfact> 0.17357338E+01</totfact>
</mgrwt>
</event>
<event>
 5    1  0.9353850E-003  0.4636784E+02  0.7546771E-02  0.1548952E+00
          1   -1    0    0  501    0 -0.00000000000E+00  0.00000000000E+00  0.90122114312E+03  0.90122114312E+03  0.00000000000E+00 0. -1.
          2   -1    0    0  502    0  0.00000000000E+00 -0.00000000000E+00 -0.24580337930E+04  0.24580337930E+04  0.00000000000E+00 0. -1.
         25    1    1    2    0    0  0.65334109454E+02  0.28315951215E+02  0.19122646172E+03  0.23929667489E+03  0.12500000000E+03 0.  0.
          2    1    1    2  501    0 -0.20506005709E+02 -0.16562811219E+02  0.68548564679E+03  0.68599227032E+03  0.00000000000E+00 0. -1.
          1    1    1    2  502    0 -0.44828103745E+02 -0.11753139996E+02 -0.24335247584E+04  0.24339659909E+04  0.00000000000E+00 0. -1.
<mgrwt>
<rscale>  0 0.34960448E+02</rscale>
<asrwt>0</asrwt>
<pdfrwt beam="2">  1        2 0.37815903E+00 0.46367842E+02</pdfrwt>
<pdfrwt beam="1">  1        1 0.13864941E+00 0.26359495E+02</pdfrwt>
<totfact> 0.16052356E+01</totfact>
</mgrwt>
</event>
<event>
 5    1  0.8891499E-003  0.1035136E+03  0.7546771E-02  0.1335418E+00
          1   -1    0    0  501    0 -0.00000000000E+00  0.00000000000E+00  0.16735209800E+03  0.16735209800E+03  0.00000000000E+00 0. -1.
          2   -1    0    0  502    0  0.00000000000E+00 -0.00000000000E+00 -0.68760818702E+03  0.68760818702E+03  0.00000000000E+00 0. -1.
         25    1    1    2    0    0 -0.50458985326E+02 -0.27339154467E+02 -0.33670272115E+03  0.36371315758E+03  0.12500000000E+03 0.  0.
          2    1    1    2  501    0  0.10586945183E+03  0.86687922568E+01  0.13250445376E+03  0.16982614362E+03  0.00000000000E+00 0. -1.
          1    1    1    2  502    0 -0.55410466509E+02  0.18670362211E+02 -0.31605782163E+03  0.32142098381E+03  0.00000000000E+00 0. -1.
<mgrwt>
<rscale>  0 0.77798360E+02</rscale>
<asrwt>0</asrwt>
<pdfrwt beam="2">  1        2 0.10578588E+00 0.58471380E+02</pdfrwt>
<pdfrwt beam="1">  1        1 0.25746476E-01 0.10351363E+03</pdfrwt>
<totfact> 0.11000572E+03</totfact>
</mgrwt>
</event>
<event>
 5    1  0.8891499E-003  0.6702524E+02  0.7546771E-02  0.1433017E+00
          2   -1    0    0  502    0  0.00000000000E+00  0.00000000000E+00  0.19768772264E+04  0.19768772264E+04  0.00000000000E+00 0. -1.
          1   -1    0    0  501    0 -0.00000000000E+00 -0.00000000000E+00 -0.13627092150E+02  0.13627092150E+02  0.00000000000E+00 0. -1.
         25    1    1    2    0    0  0.35811804188E+02  0.47696171555E+02  0.61524836011E+03  0.63064487211E+03  0.12500000000E+03 0.  0.
          2    1    1    2  501    0 -0.35382758074E+01 -0.72823900295E+02  0.23374322638E+03  0.24485043542E+03  0.00000000000E+00 0. -1.
          1    1    1    2  502    0 -0.32273528381E+02  0.25127728740E+02  0.11142585478E+04  0.11150090110E+04  0.00000000000E+00 0. -1.
<mgrwt>
<rscale>  0 0.52359090E+02</rscale>
<asrwt>0</asrwt>
<pdfrwt beam="1">  1        2 0.30413473E+00 0.40902120E+02</pdfrwt>
<pdfrwt beam="2">  1        1 0.20964773E-02 0.67025237E+02</pdfrwt>
<totfact> 0.60717628E+03</totfact>
</mgrwt>
</event>
<event>
 5    1  0.8891499E-003  0.4104059E+02  0.7546771E-02  0.1590875E+00
         -1   -1    0    0    0  502 -0.00000000000E+00  0.00000000000E+00  0.47719729351E+03  0.47719729351E+03  0.00000000000E+00 0.  1.
         -2   -1    0    0    0  501  0.00000000000E+00 -0.00000000000E+00 -0.25332609395E+03  0.25332609395E+03  0.00000000000E+00 0.  1.
         25    1    1    2    0    0 -0.11251244214E+02  0.20039820315E+02 -0.37348365448E+02  0.13246918621E+03  0.12500000000E+03 0.  0.
         -2    1    1    2    0  502  0.33886727104E+02 -0.23571462614E+02  0.42785988523E+03  0.42984649064E+03  0.00000000000E+00 0.  1.
         -1    1    1    2    0  501 -0.22635482890E+02  0.35316422995E+01 -0.16664032022E+03  0.16820771061E+03  0.00000000000E+00 0.  1.
<mgrwt>
<rscale>  0 0.30662887E+02</rscale>
<asrwt>0</asrwt>
<pdfrwt beam="2">  1       -2 0.38973245E-01 0.22909334E+02</pdfrwt>
<pdfrwt beam="1">  1       -1 0.73414968E-01 0.41040592E+02</pdfrwt>
<totfact> 0.92026925E+01</totfact>
</mgrwt>
</event>
<event>
 5    1  0.8891499E-003  0.1112437E+03  0.7546771E-02  0.1343938E+00
          2   -1    0    0  502    0  0.00000000000E+00  0.00000000000E+00  0.86829033804E+03  0.86829033804E+03  0.00000000000E+00 0. -1.
          1   -1    0    0  501    0 -0.00000000000E+00 -0.00000000000E+00 -0.51009222575E+03  0.51009222575E+03  0.00000000000E+00 0. -1.
         25    1    1    2    0    0  0.12089038869E+03 -0.37621872278E+02 -0.61964010516E+02  0.18839965486E+03  0.12500000000E+03 0.  0.
          2    1    1    2  501    0 -0.10440158230E+02  0.49445493900E+02 -0.37939529796E+03  0.38274618991E+03  0.00000000000E+00 0. -1.
          1    1    1    2  502    0 -0.11045023046E+03 -0.11823621622E+02  0.79955742077E+03  0.80723671902E+03  0.00000000000E+00 0. -1.
<mgrwt>
<rscale>  0 0.74978478E+02</rscale>
<asrwt>0</asrwt>
<pdfrwt beam="1">  1        2 0.13358313E+00 0.11124365E+03</pdfrwt>
<pdfrwt beam="2">  1        1 0.78475727E-01 0.50535668E+02</pdfrwt>
<totfact> 0.20745548E+02</totfact>
</mgrwt>
</event>
<event>
 5    1  0.8891499E-003  0.5934631E+02  0.7546771E-02  0.1419546E+00
          2   -1    0    0  502    0  0.00000000000E+00  0.00000000000E+00  0.51376926621E+03  0.51376926621E+03  0.00000000000E+00 0. -1.
          1   -1    0    0  501    0 -0.00000000000E+00 -0.00000000000E+00 -0.17148144975E+03  0.17148144975E+03  0.00000000000E+00 0. -1.
         25    1    1    2    0    0  0.60976953024E+01  0.59853953774E+01  0.21067715019E+03  0.24511807044E+03  0.12500000000E+03 0.  0.
          2    1    1    2  501    0 -0.38448665428E+02  0.45207132105E+02 -0.14515552067E+03  0.15681871651E+03  0.00000000000E+00 0. -1.
          1    1    1    2  502    0  0.32350970125E+02 -0.51192527482E+02  0.27676618694E+03  0.28331392901E+03  0.00000000000E+00 0. -1.
<mgrwt>
<rscale>  0 0.55117148E+02</rscale>
<asrwt>0</asrwt>
<pdfrwt beam="1">  1        2 0.79041425E-01 0.51189366E+02</pdfrwt>
<pdfrwt beam="2">  1        1 0.26381762E-01 0.59346311E+02</pdfrwt>
<totfact> 0.14510595E+03</totfact>
</mgrwt>
</event>
<event>
 5    1  0.8891499E-003  0.1001062E+03  0.7546771E-02  0.1421513E+00
          1   -1    0    0  501    0 -0.00000000000E+00  0.00000000000E+00  0.13938499127E+04  0.13938499127E+04  0.00000000000E+00 0. -1.
          2   -1    0    0  502    0  0.00000000000E+00 -0.00000000000E+00 -0.16206780105E+03  0.16206780105E+03  0.00000000000E+00 0. -1.
         25    1    1    2    0    0  0.44786046926E+02 -0.65267316218E+02  0.15526190818E+03  0.21446881521E+03  0.12500000000E+03 0.  0.
          2    1    1    2  501    0 -0.74386493090E+02  0.69427942465E+02  0.12051265029E+04  0.12094145185E+04  0.00000000000E+00 0. -1.
          1    1    1    2  502    0  0.29600446164E+02 -0.41606262464E+01 -0.12860629950E+03  0.13203437998E+03  0.00000000000E+00 0. -1.
<mgrwt>
<rscale>  0 0.54702071E+02</rscale>
<asrwt>0</asrwt>
<pdfrwt beam="2">  1        2 0.24933509E-01 0.29891424E+02</pdfrwt>
<pdfrwt beam="1">  1        1 0.21443844E+00 0.10010619E+03</pdfrwt>
<totfact> 0.25211225E+02</totfact>
</mgrwt>
</event>
<event>
 5    1  0.8891499E-003  0.1044172E+03  0.7546771E-02  0.1335457E+00
          1   -1    0    0  501    0 -0.00000000000E+00  0.00000000000E+00  0.55339560768E+03  0.55339560768E+03  0.00000000000E+00 0. -1.
          2   -1    0    0  502    0  0.00000000000E+00 -0.00000000000E+00 -0.13501854641E+04  0.13501854641E+04  0.00000000000E+00 0. -1.
         25    1    1    2    0    0  0.10508396493E+03  0.10233053640E+03 -0.21014576710E+03  0.28513228824E+03  0.12500000000E+03 0.  0.
          2    1    1    2  501    0 -0.48095057058E+02 -0.91845381211E+02  0.50992095444E+03  0.52035381073E+03  0.00000000000E+00 0. -1.
          1    1    1    2  502    0 -0.56988907875E+02 -0.10485155186E+02 -0.10965650438E+04  0.10980949728E+04  0.00000000000E+00 0. -1.
<mgrwt>
<rscale>  0 0.77784981E+02</rscale>
<asrwt>0</asrwt>
<pdfrwt beam="2">  1        2 0.20772084E+00 0.57945441E+02</pdfrwt>
<pdfrwt beam="1">  1        1 0.85137786E-01 0.10441724E+03</pdfrwt>
<totfact> 0.10207069E+02</totfact>
</mgrwt>
</event>
<event>
 5    1  0.8891499E-003  0.9549571E+02  0.7546771E-02  0.1383905E+00
          2   -1    0    0  502    0  0.00000000000E+00  0.00000000000E+00  0.92381918749E+03  0.92381918749E+03  0.00000000000E+00 0. -1.
          1   -1    0    0  501    0 -0.00000000000E+00 -0.00000000000E+00 -0.24902762752E+03  0.24902762752E+03  0.00000000000E+00 0. -1.
         25    1    1    2    0    0  0.31584002531E+02 -0.65791290802E+02  0.24674925615E+03  0.28607033851E+03  0.12500000000E+03 0.  0.
          2    1    1    2  501    0  0.42045692164E+02 -0.30446749374E+01 -0.22352166853E+03  0.22746218713E+03  0.00000000000E+00 0. -1.
          1    1    1    2  502    0 -0.73629694696E+02  0.68835965740E+02  0.65156397234E+03  0.65931428938E+03  0.00000000000E+00 0. -1.
<mgrwt>
<rscale>  0 0.63448379E+02</rscale>
<asrwt>0</asrwt>
<pdfrwt beam="1">  1        2 0.14212603E+00 0.95495712E+02</pdfrwt>
<pdfrwt beam="2">  1        1 0.38311943E-01 0.42155786E+02</pdfrwt>
<totfact> 0.45812984E+02</totfact>
</mgrwt>
</event>
<event>
 5    1  0.8891499E-003  0.1534294E+03  0.7546771E-02  0.1328721E+00
         -1   -1    0    0    0  501 -0.00000000000E+00  0.00000000000E+00  0.19267478498E+03  0.19267478498E+03  0.00000000000E+00 0.  1.
          1   -1    0    0  502    0  0.00000000000E+00 -0.00000000000E+00 -0.22515857510E+04  0.22515857510E+04  0.00000000000E+00 0. -1.
         25    1    1    2    0    0 -0.62404117108E+02 -0.15143547062E+03 -0.19752437748E+03  0.28542574392E+03  0.12500000000E+03 0.  0.
          2    1    1    2  502    0  0.41833172071E+02  0.34344785943E+00 -0.19707445390E+04  0.19711885172E+04  0.00000000000E+00 0. -1.
         -2    1    1    2    0  501  0.20570945037E+02  0.15109202276E+03  0.10935795050E+03  0.18764627484E+03  0.00000000000E+00 0.  1.
<mgrwt>
<rscale>  0 0.80116502E+02</rscale>
<asrwt>0</asrwt>
<pdfrwt beam="2">  1        1 0.34639783E+00 0.41834582E+02</pdfrwt>
<pdfrwt beam="1">  1       -1 0.29642273E-01 0.15342938E+03</pdfrwt>
<totfact> 0.31205439E+01</totfact>
</mgrwt>
</event>
<event>
 5    1  0.8891499E-003  0.1163146E+03  0.7546771E-02  0.1397152E+00
          1   -1    0    0  501    0 -0.00000000000E+00  0.00000000000E+00  0.87864921821E+03  0.87864921821E+03  0.00000000000E+00 0. -1.
          2   -1    0    0  502    0  0.00000000000E+00 -0.00000000000E+00 -0.20334917575E+03  0.20334917575E+03  0.00000000000E+00 0. -1.
         25    1    1    2    0    0  0.13354758698E+03 -0.38254688091E+02  0.89495576252E+02  0.20720240664E+03  0.12500000000E+03 0.  0.
          2    1    1    2  501    0 -0.10406855692E+03  0.48221258927E+02  0.72405664595E+03  0.73308497522E+03  0.00000000000E+00 0. -1.
          1    1    1    2  502    0 -0.29479030065E+02 -0.99665708361E+01 -0.13825217974E+03  0.14171101210E+03  0.00000000000E+00 0. -1.
<mgrwt>
<rscale>  0 0.60162342E+02</rscale>
<asrwt>0</asrwt>
<pdfrwt beam="2">  1        2 0.31284489E-01 0.31118254E+02</pdfrwt>
<pdfrwt beam="1">  1        1 0.13517680E+00 0.11631460E+03</pdfrwt>
<totfact> 0.45168561E+02</totfact>
</mgrwt>
</event>
<event>
 5    1  0.8891499E-003  0.1000433E+03  0.7546771E-02  0.1362110E+00
          1   -1    0    0  501    0 -0.00000000000E+00  0.00000000000E+00  0.39242352320E+03  0.39242352320E+03  0.00000000000E+00 0. -1.
          2   -1    0    0  502    0  0.00000000000E+00 -0.00000000000E+00 -0.23357879419E+04  0.23357879419E+04  0.00000000000E+00 0. -1.
         25    1    1    2    0    0 -0.42889203056E+02  0.31617870429E+02 -0.23904786973E+03  0.27496919371E+03  0.12500000000E+03 0.  0.
          2    1    1    2  501    0  0.84514689236E+02 -0.55833691025E+02  0.36732801510E+03  0.38103806165E+03  0.00000000000E+00 0. -1.
          1    1    1    2  502    0 -0.41625486181E+02  0.24215820596E+02 -0.20716445641E+04  0.20722042098E+04  0.00000000000E+00 0. -1.
<mgrwt>
<rscale>  0 0.69410189E+02</rscale>
<asrwt>0</asrwt>
<pdfrwt beam="2">  1        2 0.35935199E+00 0.48156901E+02</pdfrwt>
<pdfrwt beam="1">  1        1 0.60372850E-01 0.10004328E+03</pdfrwt>
<totfact> 0.52772745E+01</totfact>
</mgrwt>
</event>
<event>
 5    1  0.8891499E-003  0.5545301E+02  0.7546771E-02  0.1432251E+00
          2   -1    0    0  502    0  0.00000000000E+00  0.00000000000E+00  0.57678939141E+03  0.57678939141E+03  0.00000000000E+00 0. -1.
          1   -1    0    0  501    0 -0.00000000000E+00 -0.00000000000E+00 -0.40751671821E+03  0.40751671821E+03  0.00000000000E+00 0. -1.
         25    1    1    2    0    0  0.87818518100E+01  0.11167491402E+02  0.15599366164E+03  0.20040173716E+03  0.12500000000E+03 0.  0.
          2    1    1    2  501    0 -0.55766155023E+02  0.51125253396E+01 -0.38171090109E+03  0.38579685583E+03  0.00000000000E+00 0. -1.
          1    1    1    2  502    0  0.46984303213E+02 -0.16280016741E+02  0.39498991265E+03  0.39810751662E+03  0.00000000000E+00 0. -1.
<mgrwt>
<rscale>  0 0.52510895E+02</rscale>
<asrwt>0</asrwt>
<pdfrwt beam="1">  1        2 0.88736830E-01 0.49724880E+02</pdfrwt>
<pdfrwt beam="2">  1        1 0.62694879E-01 0.55453006E+02</pdfrwt>
<totfact> 0.45146419E+02</totfact>
</mgrwt>
</event>
<event>
 5    1  0.8891499E-003  0.9378976E+02  0.7546771E-02  0.1367846E+00
          1   -1    0    0  501    0 -0.00000000000E+00  0.00000000000E+00  0.86993978037E+02  0.86993978037E+02  0.00000000000E+00 0. -1.
          2   -1    0    0  502    0  0.00000000000E+00 -0.00000000000E+00 -0.87816155801E+03  0.87816155801E+03  0.00000000000E+00 0. -1.
         25    1    1    2    0    0  0.13115457582E+02  0.59089863038E+02 -0.22150325146E+03  0.26144276152E+03  0.12500000000E+03 0.  0.
          2    1    1    2  501    0 -0.26286196076E+02  0.41315140240E+02  0.53411426074E+02  0.72461612958E+02  0.00000000000E+00 0. -1.
          1    1    1    2  502    0  0.13170738494E+02 -0.10040500328E+03 -0.62307575458E+03  0.63125116157E+03  0.00000000000E+00 0. -1.
<mgrwt>
<rscale>  0 0.67769722E+02</rscale>
<asrwt>0</asrwt>
<pdfrwt beam="2">  1        2 0.13510177E+00 0.93789760E+02</pdfrwt>
<pdfrwt beam="1">  1        1 0.13383689E-01 0.48968407E+02</pdfrwt>
<totfact> 0.17727619E+03</totfact>
</mgrwt>
</event>
<event>
 5    1  0.8891499E-003  0.9702767E+02  0.7546771E-02  0.1428967E+00
          1   -1    0    0  501    0 -0.00000000000E+00  0.00000000000E+00  0.36874402538E+03  0.36874402538E+03  0.00000000000E+00 0. -1.
          2   -1    0    0  502    0  0.00000000000E+00 -0.00000000000E+00 -0.89112745023E+03  0.89112745023E+03  0.00000000000E+00 0. -1.
         25    1    1    2    0    0  0.24737012243E+01 -0.69574439204E+02 -0.44941797961E+02  0.14997162062E+03  0.12500000000E+03 0.  0.
          2    1    1    2  501    0  0.41995903720E+01 -0.28829926537E+02  0.31248466286E+03  0.31383987278E+03  0.00000000000E+00 0. -1.
          1    1    1    2  502    0 -0.66732915963E+01  0.98404365741E+02 -0.78992628975E+03  0.79605998220E+03  0.00000000000E+00 0. -1.
<mgrwt>
<rscale>  0 0.53167875E+02</rscale>
<asrwt>0</asrwt>
<pdfrwt beam="2">  1        2 0.13709653E+00 0.97027672E+02</pdfrwt>
<pdfrwt beam="1">  1        1 0.56729852E-01 0.29134193E+02</pdfrwt>
<totfact> 0.30128474E+02</totfact>
</mgrwt>
</event>
<event>
 5    1  0.8891499E-003  0.8179600E+02  0.7546771E-02  0.1351949E+00
         -1   -1    0    0    0  501 -0.00000000000E+00  0.00000000000E+00  0.16696770215E+03  0.16696770215E+03  0.00000000000E+00 0.  1.
          1   -1    0    0  502    0  0.00000000000E+00 -0.00000000000E+00 -0.74785755146E+03  0.74785755146E+03  0.00000000000E+00 0. -1.
         25    1    1    2    0    0  0.11827293406E+00 -0.57275906820E+02 -0.11875103763E+03  0.18167925701E+03  0.12500000000E+03 0.  0.
          2    1    1    2  502    0 -0.64174066494E+02  0.31771249273E+00 -0.58214468944E+03  0.58567128255E+03  0.00000000000E+00 0. -1.
         -2    1    1    2    0  501  0.64055793560E+02  0.56958194327E+02  0.12000587776E+03  0.14747471406E+03  0.00000000000E+00 0.  1.
<mgrwt>
<rscale>  0 0.72451684E+02</rscale>
<asrwt>0</asrwt>
<pdfrwt beam="2">  1        1 0.11505501E+00 0.64174853E+02</pdfrwt>
<pdfrwt beam="1">  1       -1 0.25687339E-01 0.81796004E+02</pdfrwt>
<totfact> 0.35606795E+02</totfact>
</mgrwt>
</event>
<event>
 5    1  0.8891499E-003  0.6356394E+02  0.7546771E-02  0.1437861E+00
          1   -1    0    0  501    0 -0.00000000000E+00  0.00000000000E+00  0.41612931335E+03  0.41612931335E+03  0.00000000000E+00 0. -1.
          2   -1    0    0  502    0  0.00000000000E+00 -0.00000000000E+00 -0.31180559959E+03  0.31180559959E+03  0.00000000000E+00 0. -1.
         25    1    1    2    0    0 -0.10141936092E+03 -0.12042002013E+01 -0.11951833494E+03  0.20049181843E+03  0.12500000000E+03 0.  0.
          2    1    1    2  501    0  0.61581404101E+02  0.13136045071E+02  0.37008437237E+03  0.37540280724E+03  0.00000000000E+00 0. -1.
          1    1    1    2  502    0  0.39837956823E+02 -0.11931844870E+02 -0.14624232366E+03  0.15204028728E+03  0.00000000000E+00 0. -1.
<mgrwt>
<rscale>  0 0.51413984E+02</rscale>
<asrwt>0</asrwt>
<pdfrwt beam="2">  1        2 0.47970092E-01 0.41586437E+02</pdfrwt>
<pdfrwt beam="1">  1        1 0.64019894E-01 0.63563939E+02</pdfrwt>
<totfact> 0.83020203E+02</totfact>
</mgrwt>
</event>
<event>
 5    1  0.8891499E-003  0.8366954E+02  0.7546771E-02  0.1398687E+00
         -2   -1    0    0    0  501 -0.00000000000E+00  0.00000000000E+00  0.38392320605E+02  0.38392320605E+02  0.00000000000E+00 0.  1.
          2   -1    0    0  502    0  0.00000000000E+00 -0.00000000000E+00 -0.29826890502E+04  0.29826890502E+04  0.00000000000E+00 0. -1.
         25    1    1    2    0    0 -0.45693402839E+02 -0.56863835953E+02 -0.24087840088E+04  0.24131280082E+04  0.12500000000E+03 0.  0.
          1    1    1    2  502    0  0.55143700650E+02  0.98541273743E+02 -0.55103500176E+03  0.56248625185E+03  0.00000000000E+00 0. -1.
         -1    1    1    2    0  501 -0.94502978104E+01 -0.41677437790E+02  0.15522281006E+02  0.45467110719E+02  0.00000000000E+00 0.  1.
<mgrwt>
<rscale>  0 0.59796769E+02</rscale>
<asrwt>0</asrwt>
<pdfrwt beam="2">  1        2 0.45887523E+00 0.83669537E+02</pdfrwt>
<pdfrwt beam="1">  1       -2 0.59065109E-02 0.42735430E+02</pdfrwt>
<totfact> 0.32961884E+02</totfact>
</mgrwt>
</event>
<event>
 5    1  0.8891499E-003  0.1065079E+03  0.7546771E-02  0.1460458E+00
          1   -1    0    0  501    0 -0.00000000000E+00  0.00000000000E+00  0.97954467117E+02  0.97954467117E+02  0.00000000000E+00 0. -1.
          2   -1    0    0  502    0  0.00000000000E+00 -0.00000000000E+00 -0.13676710219E+04  0.13676710219E+04  0.00000000000E+00 0. -1.
         25    1    1    2    0    0  0.12670534002E+03  0.61043901309E+01 -0.98458909914E+03  0.10005659403E+04  0.12500000000E+03 0.  0.
          2    1    1    2  501    0 -0.10578450425E+03 -0.41897729013E+01  0.58388812035E+02  0.12090148431E+03  0.00000000000E+00 0. -1.
          1    1    1    2  502    0 -0.20920835771E+02 -0.19146172296E+01 -0.34351626771E+03  0.34415806443E+03  0.00000000000E+00 0. -1.
<mgrwt>
<rscale>  0 0.47302717E+02</rscale>
<asrwt>0</asrwt>
<pdfrwt beam="2">  1        2 0.21041094E+00 0.21008263E+02</pdfrwt>
<pdfrwt beam="1">  1        1 0.15069917E-01 0.10650795E+03</pdfrwt>
<totfact> 0.94775007E+02</totfact>
</mgrwt>
</event>
<event>
 5    1  0.8891499E-003  0.1221843E+03  0.7546771E-02  0.1311738E+00
          1   -1    0    0  502    0  0.00000000000E+00  0.00000000000E+00  0.49408244186E+03  0.49408244186E+03  0.00000000000E+00 0. -1.
         -1   -1    0    0    0  501 -0.00000000000E+00 -0.00000000000E+00 -0.14486764061E+04  0.14486764061E+04  0.00000000000E+00 0.  1.
         25    1    1    2    0    0  0.13088130565E+02 -0.69539595183E+02 -0.74934696702E+02  0.16201007138E+03  0.12500000000E+03 0.  0.
          2    1    1    2  502    0 -0.25012524612E+02 -0.55785493969E+02  0.44547369021E+03  0.44964925931E+03  0.00000000000E+00 0. -1.
         -2    1    1    2    0  501  0.11924394046E+02  0.12532508915E+03 -0.13251329578E+04  0.13310995173E+04  0.00000000000E+00 0.  1.
<mgrwt>
<rscale>  0 0.86428577E+02</rscale>
<asrwt>0</asrwt>
<pdfrwt beam="1">  1        1 0.76012684E-01 0.61136304E+02</pdfrwt>
<pdfrwt beam="2">  1       -1 0.22287329E+00 0.12218434E+03</pdfrwt>
<totfact> 0.61292519E+00</totfact>
</mgrwt>
</event>
<event>
 5    1  0.8891499E-003  0.3709035E+02  0.7546771E-02  0.1566680E+00
          1   -1    0    0  501    0 -0.00000000000E+00  0.00000000000E+00  0.12717676497E+03  0.12717676497E+03  0.00000000000E+00 0. -1.
          2   -1    0    0  502    0  0.00000000000E+00 -0.00000000000E+00 -0.62230290102E+03  0.62230290102E+03  0.00000000000E+00 0. -1.
         25    1    1    2    0    0  0.38440994794E+02 -0.46631875579E+02 -0.29201271601E+02  0.14188007670E+03  0.12500000000E+03 0.  0.
          2    1    1    2  501    0 -0.61736695336E+01  0.28786247600E+02  0.67113695696E+02  0.73287177572E+02  0.00000000000E+00 0. -1.
          1    1    1    2  502    0 -0.32267325260E+02  0.17845627979E+02 -0.53303856014E+03  0.53431241172E+03  0.00000000000E+00 0. -1.
<mgrwt>
<rscale>  0 0.33044978E+02</rscale>
<asrwt>0</asrwt>
<pdfrwt beam="2">  1        2 0.95738908E-01 0.37090351E+02</pdfrwt>
<pdfrwt beam="1">  1        1 0.19565656E-01 0.29440826E+02</pdfrwt>
<totfact> 0.16603876E+03</totfact>
</mgrwt>
</event>
<event>
 5    1  0.8891499E-003  0.1524168E+03  0.7546771E-02  0.1391178E+00
          2   -1    0    0  502    0  0.00000000000E+00  0.00000000000E+00  0.16758646361E+04  0.16758646361E+04  0.00000000000E+00 0. -1.
          1   -1    0    0  501    0 -0.00000000000E+00 -0.00000000000E+00 -0.19710885231E+04  0.19710885231E+04  0.00000000000E+00 0. -1.
         25    1    1    2    0    0  0.12703791995E+03  0.14040941900E+02  0.74234442046E+03  0.76356795359E+03  0.12500000000E+03 0.  0.
          2    1    1    2  501    0 -0.15116813712E+03 -0.20215629531E+02 -0.19573417293E+04  0.19632745917E+04  0.00000000000E+00 0. -1.
          1    1    1    2  502    0  0.24130217165E+02  0.61746876311E+01  0.91977342188E+03  0.92011061387E+03  0.00000000000E+00 0. -1.
<mgrwt>
<rscale>  0 0.61614557E+02</rscale>
<asrwt>0</asrwt>
<pdfrwt beam="1">  1        2 0.25782533E+00 0.24907713E+02</pdfrwt>
<pdfrwt beam="2">  1        1 0.30324439E+00 0.15241679E+03</pdfrwt>
<totfact> 0.71381856E+00</totfact>
</mgrwt>
</event>
<event>
 5    1  0.8891499E-003  0.5131427E+02  0.7546771E-02  0.1487941E+00
         -2   -1    0    0    0  501 -0.00000000000E+00  0.00000000000E+00  0.67375291875E+02  0.67375291875E+02  0.00000000000E+00 0.  1.
          2   -1    0    0  502    0  0.00000000000E+00 -0.00000000000E+00 -0.16151705889E+04  0.16151705889E+04  0.00000000000E+00 0. -1.
         25    1    1    2    0    0 -0.22744678788E+02 -0.17737235228E+02 -0.73688916741E+02  0.14794251038E+03  0.12500000000E+03 0.  0.
          1    1    1    2  502    0 -0.34517925262E+02  0.96958402254E+01 -0.14763019167E+04  0.14767372298E+04  0.00000000000E+00 0. -1.
         -1    1    1    2    0  501  0.57262604051E+02  0.80413950025E+01  0.21955363891E+01  0.57866140672E+02  0.00000000000E+00 0.  1.
<mgrwt>
<rscale>  0 0.42893039E+02</rscale>
<asrwt>0</asrwt>
<pdfrwt beam="2">  1        2 0.24848775E+00 0.35853821E+02</pdfrwt>
<pdfrwt beam="1">  1       -2 0.10365431E-01 0.51314273E+02</pdfrwt>
<totfact> 0.80061784E+02</totfact>
</mgrwt>
</event>
<event>
 5    1  0.8891499E-003  0.8386872E+02  0.7546771E-02  0.1410511E+00
          1   -1    0    0  501    0 -0.00000000000E+00  0.00000000000E+00  0.91034170642E+02  0.91034170642E+02  0.00000000000E+00 0. -1.
          2   -1    0    0  502    0  0.00000000000E+00 -0.00000000000E+00 -0.11107526436E+04  0.11107526436E+04  0.00000000000E+00 0. -1.
         25    1    1    2    0    0  0.15736866394E+02  0.66164471998E+02 -0.28115512268E+03  0.31511678681E+03  0.12500000000E+03 0.  0.
          2    1    1    2  501    0 -0.54584777147E+02 -0.66128544907E+02  0.48591139767E+02  0.98557502056E+02  0.00000000000E+00 0. -1.
          1    1    1    2  502    0  0.38847910753E+02 -0.35927091438E-01 -0.78715449005E+03  0.78811252539E+03  0.00000000000E+00 0. -1.
<mgrwt>
<rscale>  0 0.57079996E+02</rscale>
<asrwt>0</asrwt>
<pdfrwt beam="2">  1        2 0.17088502E+00 0.38847927E+02</pdfrwt>
<pdfrwt beam="1">  1        1 0.14005257E-01 0.83868719E+02</pdfrwt>
<totfact> 0.13255477E+03</totfact>
</mgrwt>
</event>
<event>
 5    1  0.1070048E-002  0.1179861E+03  0.7546771E-02  0.1348469E+00
          2   -1    0    0  502    0  0.00000000000E+00  0.00000000000E+00  0.14266114997E+04  0.14266114997E+04  0.00000000000E+00 0. -1.
          1   -1    0    0  501    0 -0.00000000000E+00 -0.00000000000E+00 -0.16021637668E+04  0.16021637668E+04  0.00000000000E+00 0. -1.
         25    1    1    2    0    0  0.15510827634E+03  0.20950670420E+02 -0.11695714199E+04  0.11866001072E+04  0.12500000000E+03 0.  0.
          2    1    1    2  501    0 -0.37331778798E+02 -0.26585472848E+02 -0.42037939440E+03  0.42287029254E+03  0.00000000000E+00 0. -1.
          1    1    1    2  502    0 -0.11777649754E+03  0.56348024273E+01  0.14143985472E+04  0.14193048668E+04  0.00000000000E+00 0. -1.
<mgrwt>
<rscale>  0 0.73534885E+02</rscale>
<asrwt>0</asrwt>
<pdfrwt beam="1">  1        2 0.21947869E+00 0.11798608E+03</pdfrwt>
<pdfrwt beam="2">  1        1 0.24648673E+00 0.45830656E+02</pdfrwt>
<totfact> 0.16076684E+01</totfact>
</mgrwt>
</event>
<event>
 5    1  0.8891499E-003  0.9724935E+02  0.7546771E-02  0.1335783E+00
          2   -1    0    0  502    0  0.00000000000E+00  0.00000000000E+00  0.21200968181E+03  0.21200968181E+03  0.00000000000E+00 0. -1.
          1   -1    0    0  501    0 -0.00000000000E+00 -0.00000000000E+00 -0.55993055363E+03  0.55993055363E+03  0.00000000000E+00 0. -1.
         25    1    1    2    0    0 -0.81766483918E+02 -0.12848978409E+03 -0.28658743319E+03  0.34778260360E+03  0.12500000000E+03 0.  0.
          2    1    1    2  501    0  0.47726055942E+02  0.39638596683E+02 -0.22579070995E+03  0.23415900466E+03  0.00000000000E+00 0. -1.
          1    1    1    2  502    0  0.34040427976E+02  0.88851187406E+02  0.16445727132E+03  0.18999862718E+03  0.00000000000E+00 0. -1.
<mgrwt>
<rscale>  0 0.77674808E+02</rscale>
<asrwt>0</asrwt>
<pdfrwt beam="1">  1        2 0.32616874E-01 0.97249353E+02</pdfrwt>
<pdfrwt beam="2">  1        1 0.86143162E-01 0.62040267E+02</pdfrwt>
<totfact> 0.86403699E+02</totfact>
</mgrwt>
</event>
<event>
 5    1  0.8891499E-003  0.5567699E+02  0.7546771E-02  0.1515531E+00
         -2   -1    0    0    0  501 -0.00000000000E+00  0.00000000000E+00  0.69299569141E+02  0.69299569141E+02  0.00000000000E+00 0.  1.
          2   -1    0    0  502    0  0.00000000000E+00 -0.00000000000E+00 -0.32520320965E+04  0.32520320965E+04  0.00000000000E+00 0. -1.
         25    1    1    2    0    0 -0.29342892819E+02 -0.95438592328E+01 -0.43816516518E+03  0.45669005089E+03  0.12500000000E+03 0.  0.
          1    1    1    2  502    0  0.48282575659E+02  0.29274323913E+02 -0.28011903963E+04  0.28017594168E+04  0.00000000000E+00 0. -1.
         -1    1    1    2    0  501 -0.18939682840E+02 -0.19730464680E+02  0.56623034148E+02  0.62882197947E+02  0.00000000000E+00 0.  1.
<mgrwt>
<rscale>  0 0.39022375E+02</rscale>
<asrwt>0</asrwt>
<pdfrwt beam="2">  1        2 0.50031261E+00 0.55676994E+02</pdfrwt>
<pdfrwt beam="1">  1       -2 0.10661473E-01 0.27349640E+02</pdfrwt>
<totfact> 0.98428653E+01</totfact>
</mgrwt>
</event>
<event>
 5    1  0.8891499E-003  0.1325548E+03  0.7546771E-02  0.1339887E+00
          1   -1    0    0  501    0 -0.00000000000E+00  0.00000000000E+00  0.54028509364E+03  0.54028509364E+03  0.00000000000E+00 0. -1.
          2   -1    0    0  502    0  0.00000000000E+00 -0.00000000000E+00 -0.12605099720E+04  0.12605099720E+04  0.00000000000E+00 0. -1.
         25    1    1    2    0    0  0.97407518704E+02 -0.36796604683E+01  0.74608675680E+02  0.17519480326E+03  0.12500000000E+03 0.  0.
          2    1    1    2  501    0 -0.14090987054E+03 -0.23692121696E+01  0.40301575143E+03  0.42694601612E+03  0.00000000000E+00 0. -1.
          1    1    1    2  502    0  0.43502351841E+02  0.60488726379E+01 -0.11978493054E+04  0.11986542462E+04  0.00000000000E+00 0. -1.
<mgrwt>
<rscale>  0 0.76301538E+02</rscale>
<asrwt>0</asrwt>
<pdfrwt beam="2">  1        2 0.19392461E+00 0.43920877E+02</pdfrwt>
<pdfrwt beam="1">  1        1 0.83120784E-01 0.13255484E+03</pdfrwt>
<totfact> 0.11874774E+02</totfact>
</mgrwt>
</event>
<event>
 5    1  0.8891499E-003  0.8084976E+02  0.7546771E-02  0.1327187E+00
          2   -1    0    0  502    0  0.00000000000E+00  0.00000000000E+00  0.43950190778E+03  0.43950190778E+03  0.00000000000E+00 0. -1.
         -2   -1    0    0    0  501 -0.00000000000E+00 -0.00000000000E+00 -0.48099520056E+03  0.48099520056E+03  0.00000000000E+00 0.  1.
         25    1    1    2    0    0  0.97454692196E+01  0.63779846031E+02  0.70380810791E+01  0.14084522539E+03  0.12500000000E+03 0.  0.
          1    1    1    2  502    0  0.69468673327E+02 -0.47599526902E+02  0.35666317222E+03  0.36646995778E+03  0.00000000000E+00 0. -1.
         -1    1    1    2    0  501 -0.79214142547E+02 -0.16180319130E+02 -0.40519454609E+03  0.41318192517E+03  0.00000000000E+00 0.  1.
<mgrwt>
<rscale>  0 0.80660637E+02</rscale>
<asrwt>0</asrwt>
<pdfrwt beam="1">  1        2 0.67615679E-01 0.80471959E+02</pdfrwt>
<pdfrwt beam="2">  1       -2 0.73999261E-01 0.80849756E+02</pdfrwt>
<totfact> 0.12683624E+02</totfact>
</mgrwt>
</event>
<event>
 5    1  0.8891499E-003  0.1069083E+03  0.7546771E-02  0.1320989E+00
          2   -1    0    0  502    0  0.00000000000E+00  0.00000000000E+00  0.40724077539E+03  0.40724077539E+03  0.00000000000E+00 0. -1.
          1   -1    0    0  501    0 -0.00000000000E+00 -0.00000000000E+00 -0.16395643743E+04  0.16395643743E+04  0.00000000000E+00 0. -1.
         25    1    1    2    0    0 -0.82055970156E+02  0.10286135184E+03  0.18208518058E+03  0.25708685872E+03  0.12500000000E+03 0.  0.
          2    1    1    2  501    0  0.98756217245E+02 -0.40768549084E+02 -0.15947150785E+04  0.15982900384E+04  0.00000000000E+00 0. -1.
          1    1    1    2  502    0 -0.16700247089E+02 -0.62092802756E+02  0.18030629906E+03  0.19142825258E+03  0.00000000000E+00 0. -1.
<mgrwt>
<rscale>  0 0.82910432E+02</rscale>
<asrwt>0</asrwt>
<pdfrwt beam="1">  1        2 0.62652426E-01 0.64299412E+02</pdfrwt>
<pdfrwt beam="2">  1        1 0.25224068E+00 0.10690828E+03</pdfrwt>
<totfact> 0.68659705E+01</totfact>
</mgrwt>
</event>
<event>
 5    1  0.8891499E-003  0.5427584E+02  0.7546771E-02  0.1467154E+00
         -1   -1    0    0    0  501 -0.00000000000E+00  0.00000000000E+00  0.20168482678E+02  0.20168482678E+02  0.00000000000E+00 0.  1.
          1   -1    0    0  502    0  0.00000000000E+00 -0.00000000000E+00 -0.10616429719E+04  0.10616429719E+04  0.00000000000E+00 0. -1.
         25    1    1    2    0    0 -0.37839971456E+02 -0.75999217995E+02 -0.74073302803E+03  0.75598820321E+03  0.12500000000E+03 0.  0.
          2    1    1    2  502    0  0.91847973788E+00  0.39267728966E+02 -0.25015160494E+03  0.25321655474E+03  0.00000000000E+00 0. -1.
         -2    1    1    2    0  501  0.36921491718E+02  0.36731489029E+02 -0.50589856205E+02  0.72606696576E+02  0.00000000000E+00 0.  1.
<mgrwt>
<rscale>  0 0.46172198E+02</rscale>
<asrwt>0</asrwt>
<pdfrwt beam="2">  1        1 0.16332965E+00 0.39278469E+02</pdfrwt>
<pdfrwt beam="1">  1       -1 0.31028442E-02 0.54275838E+02</pdfrwt>
<totfact> 0.49406790E+03</totfact>
</mgrwt>
</event>
<event>
 5    1  0.8891499E-003  0.7373972E+02  0.7546771E-02  0.1471241E+00
          1   -1    0    0  501    0 -0.00000000000E+00  0.00000000000E+00  0.20718711626E+02  0.20718711626E+02  0.00000000000E+00 0. -1.
          2   -1    0    0  502    0  0.00000000000E+00 -0.00000000000E+00 -0.30774218558E+04  0.30774218558E+04  0.00000000000E+00 0. -1.
         25    1    1    2    0    0 -0.52232948871E+02  0.60632648601E+02 -0.10184489691E+04  0.10292074143E+04  0.12500000000E+03 0.  0.
          2    1    1    2  501    0  0.64528532238E+02 -0.35392542868E+02 -0.73619922454E+02  0.10409830232E+03  0.00000000000E+00 0. -1.
          1    1    1    2  502    0 -0.12295583367E+02 -0.25240105733E+02 -0.19646342526E+04  0.19648348508E+04  0.00000000000E+00 0. -1.
<mgrwt>
<rscale>  0 0.45500477E+02</rscale>
<asrwt>0</asrwt>
<pdfrwt beam="2">  1        2 0.47344943E+00 0.28075689E+02</pdfrwt>
<pdfrwt beam="1">  1        1 0.31874947E-02 0.73739718E+02</pdfrwt>
<totfact> 0.10227243E+03</totfact>
</mgrwt>
</event>
<event>
 5    1  0.8891499E-003  0.1742185E+03  0.7546771E-02  0.1237460E+00
          1   -1    0    0  501    0 -0.00000000000E+00  0.00000000000E+00  0.69264942149E+03  0.69264942149E+03  0.00000000000E+00 0. -1.
          2   -1    0    0  502    0  0.00000000000E+00 -0.00000000000E+00 -0.46050001070E+03  0.46050001070E+03  0.00000000000E+00 0. -1.
         25    1    1    2    0    0 -0.89345628527E+02 -0.50360450485E+02 -0.52621179083E+02  0.17003765700E+03  0.12500000000E+03 0.  0.
          2    1    1    2  501    0  0.17682917482E+03  0.47773367534E+02  0.61488750896E+03  0.64158982254E+03  0.00000000000E+00 0. -1.
          1    1    1    2  502    0 -0.87483546297E+02  0.25870829505E+01 -0.33011691908E+03  0.34152195264E+03  0.00000000000E+00 0. -1.
<mgrwt>
<rscale>  0 0.12348245E+03</rscale>
<asrwt>0</asrwt>
<pdfrwt beam="2">  1        2 0.70846155E-01 0.87521791E+02</pdfrwt>
<pdfrwt beam="1">  1        1 0.10656145E+00 0.17421851E+03</pdfrwt>
<totfact> 0.27574107E+02</totfact>
</mgrwt>
</event>
<event>
 5    1  0.8891499E-003  0.4853002E+02  0.7546771E-02  0.1545469E+00
         -1   -1    0    0    0  501 -0.00000000000E+00  0.00000000000E+00  0.10583873595E+03  0.10583873595E+03  0.00000000000E+00 0.  1.
          1   -1    0    0  502    0  0.00000000000E+00 -0.00000000000E+00 -0.27317687079E+03  0.27317687079E+03  0.00000000000E+00 0. -1.
         25    1    1    2    0    0 -0.33846478376E+02  0.14115578498E+02 -0.13377167616E+03  0.18672090134E+03  0.12500000000E+03 0.  0.
          2    1    1    2  502    0  0.51922536606E+02  0.42331888096E+01 -0.10453505518E+03  0.11679660721E+03  0.00000000000E+00 0. -1.
         -2    1    1    2    0  501 -0.18076058231E+02 -0.18348767307E+02  0.70968596496E+02  0.75498098197E+02  0.00000000000E+00 0.  1.
<mgrwt>
<rscale>  0 0.35355141E+02</rscale>
<asrwt>0</asrwt>
<pdfrwt beam="2">  1        1 0.42027210E-01 0.48530022E+02</pdfrwt>
<pdfrwt beam="1">  1       -1 0.16282883E-01 0.25756963E+02</pdfrwt>
<totfact> 0.24518387E+03</totfact>
</mgrwt>
</event>
<event>
 5    1  0.8891499E-003  0.9487537E+02  0.7546771E-02  0.1298760E+00
         -2   -1    0    0    0  501 -0.00000000000E+00  0.00000000000E+00  0.14897140782E+03  0.14897140782E+03  0.00000000000E+00 0.  1.
          2   -1    0    0  502    0  0.00000000000E+00 -0.00000000000E+00 -0.71226301105E+03  0.71226301105E+03  0.00000000000E+00 0. -1.
         25    1    1    2    0    0 -0.26966647557E+02 -0.67677628405E+02 -0.29441516431E+03  0.32804382397E+03  0.12500000000E+03 0.  0.
          1    1    1    2  502    0  0.88155850762E+02 -0.93729822798E+01 -0.37683477365E+03  0.38712240113E+03  0.00000000000E+00 0. -1.
         -1    1    1    2    0  501 -0.61189203206E+02  0.77050610685E+02  0.10795833473E+03  0.14606819377E+03  0.00000000000E+00 0.  1.
<mgrwt>
<rscale>  0 0.91711290E+02</rscale>
<asrwt>0</asrwt>
<pdfrwt beam="2">  1        2 0.10957893E+00 0.88652732E+02</pdfrwt>
<pdfrwt beam="1">  1       -2 0.22918678E-01 0.94875370E+02</pdfrwt>
<totfact> 0.68762653E+02</totfact>
</mgrwt>
</event>
<event>
 5    1  0.9103341E-003  0.1080118E+03  0.7546771E-02  0.1323748E+00
          1   -1    0    0  501    0 -0.00000000000E+00  0.00000000000E+00  0.87285483441E+03  0.87285483441E+03  0.00000000000E+00 0. -1.
          2   -1    0    0  502    0  0.00000000000E+00 -0.00000000000E+00 -0.67776599853E+03  0.67776599853E+03  0.00000000000E+00 0. -1.
         25    1    1    2    0    0  0.33091327604E+01 -0.52319034477E+02  0.35445438579E+03  0.37948800156E+03  0.12500000000E+03 0.  0.
          2    1    1    2  501    0  0.40225500108E+02 -0.47309285799E+02  0.49950578237E+03  0.50335105642E+03  0.00000000000E+00 0. -1.
          1    1    1    2  502    0 -0.43534632868E+02  0.99628320276E+02 -0.65887133228E+03  0.66778177495E+03  0.00000000000E+00 0. -1.
<mgrwt>
<rscale>  0 0.81898710E+02</rscale>
<asrwt>0</asrwt>
<pdfrwt beam="2">  1        2 0.10427169E+00 0.10801175E+03</pdfrwt>
<pdfrwt beam="1">  1        1 0.13428536E+00 0.62098787E+02</pdfrwt>
<totfact> 0.13365991E+02</totfact>
</mgrwt>
</event>
<event>
 5    1  0.8891499E-003  0.4900434E+02  0.7546771E-02  0.1485982E+00
          2   -1    0    0  502    0  0.00000000000E+00  0.00000000000E+00  0.67429878945E+02  0.67429878945E+02  0.00000000000E+00 0. -1.
          1   -1    0    0  501    0 -0.00000000000E+00 -0.00000000000E+00 -0.53787112047E+03  0.53787112047E+03  0.00000000000E+00 0. -1.
         25    1    1    2    0    0 -0.65396155415E+01  0.17641256007E+02 -0.14020737763E+03  0.18877788331E+03  0.12500000000E+03 0.  0.
          2    1    1    2  501    0 -0.14240114229E+02 -0.49530167757E+02 -0.36279299350E+03  0.36643522552E+03  0.00000000000E+00 0. -1.
          1    1    1    2  502    0  0.20779729771E+02  0.31888911750E+02  0.32559129608E+02  0.50087890581E+02  0.00000000000E+00 0. -1.
<mgrwt>
<rscale>  0 0.43187881E+02</rscale>
<asrwt>0</asrwt>
<pdfrwt beam="1">  1        2 0.10373827E-01 0.38061790E+02</pdfrwt>
<pdfrwt beam="2">  1        1 0.82749405E-01 0.49004343E+02</pdfrwt>
<totfact> 0.31392606E+03</totfact>
</mgrwt>
</event>
<event>
 5    1  0.8891499E-003  0.8041008E+02  0.7546771E-02  0.1414349E+00
          1   -1    0    0  501    0 -0.00000000000E+00  0.00000000000E+00  0.27370276763E+04  0.27370276763E+04  0.00000000000E+00 0. -1.
          2   -1    0    0  502    0  0.00000000000E+00 -0.00000000000E+00 -0.73840209130E+02  0.73840209130E+02  0.00000000000E+00 0. -1.
         25    1    1    2    0    0 -0.60361156377E+02  0.71408799962E+02  0.33065425822E+03  0.36565000259E+03  0.12500000000E+03 0.  0.
          2    1    1    2  501    0  0.72637525979E+02 -0.34046497741E+02  0.23812541010E+04  0.23826049752E+04  0.00000000000E+00 0. -1.
          1    1    1    2  502    0 -0.12276369602E+02 -0.37362302221E+02 -0.48720892083E+02  0.62612907640E+02  0.00000000000E+00 0. -1.
<mgrwt>
<rscale>  0 0.56234564E+02</rscale>
<asrwt>0</asrwt>
<pdfrwt beam="2">  1        2 0.11360034E-01 0.39327482E+02</pdfrwt>
<pdfrwt beam="1">  1        1 0.42108110E+00 0.80410085E+02</pdfrwt>
<totfact> 0.87763718E+01</totfact>
</mgrwt>
</event>
<event>
 5    1  0.8891499E-003  0.1462216E+03  0.7546771E-02  0.1325409E+00
          2   -1    0    0  502    0  0.00000000000E+00  0.00000000000E+00  0.93674366554E+03  0.93674366554E+03  0.00000000000E+00 0. -1.
          1   -1    0    0  501    0 -0.00000000000E+00 -0.00000000000E+00 -0.46355541663E+03  0.46355541663E+03  0.00000000000E+00 0. -1.
         25    1    1    2    0    0 -0.77057557171E+02 -0.11907118341E+03  0.43734627025E+03  0.47645836537E+03  0.12500000000E+03 0.  0.
          2    1    1    2  501    0  0.11362439953E+03  0.92501745892E+02 -0.43079020477E+03  0.45502448032E+03  0.00000000000E+00 0. -1.
          1    1    1    2  502    0 -0.36566842362E+02  0.26569437519E+02  0.46663218343E+03  0.46881623648E+03  0.00000000000E+00 0. -1.
<mgrwt>
<rscale>  0 0.81297367E+02</rscale>
<asrwt>0</asrwt>
<pdfrwt beam="1">  1        2 0.14411441E+00 0.45200320E+02</pdfrwt>
<pdfrwt beam="2">  1        1 0.71316218E-01 0.14622157E+03</pdfrwt>
<totfact> 0.21664538E+02</totfact>
</mgrwt>
</event>
<event>
 5    1  0.8891499E-003  0.7986255E+02  0.7546771E-02  0.1424020E+00
          1   -1    0    0  501    0 -0.00000000000E+00  0.00000000000E+00  0.19812238888E+03  0.19812238888E+03  0.00000000000E+00 0. -1.
          2   -1    0    0  502    0  0.00000000000E+00 -0.00000000000E+00 -0.27767196016E+04  0.27767196016E+04  0.00000000000E+00 0. -1.
         25    1    1    2    0    0 -0.43617335446E+02 -0.58177111394E+02  0.79933596228E+02  0.16523143783E+03  0.12500000000E+03 0.  0.
          2    1    1    2  501    0  0.76238806034E+02  0.41241463995E+02  0.50509040311E+02  0.10032136887E+03  0.00000000000E+00 0. -1.
          1    1    1    2  502    0 -0.32621470588E+02  0.16935647399E+02 -0.27090398493E+04  0.27092891838E+04  0.00000000000E+00 0. -1.
<mgrwt>
<rscale>  0 0.54179317E+02</rscale>
<asrwt>0</asrwt>
<pdfrwt beam="2">  1        2 0.42718763E+00 0.36755632E+02</pdfrwt>
<pdfrwt beam="1">  1        1 0.30480368E-01 0.79862546E+02</pdfrwt>
<totfact> 0.75585290E+01</totfact>
</mgrwt>
</event>
<event>
 5    1  0.8891499E-003  0.5317560E+02  0.7546771E-02  0.1448399E+00
          2   -1    0    0  502    0  0.00000000000E+00  0.00000000000E+00  0.35619667211E+03  0.35619667211E+03  0.00000000000E+00 0. -1.
         -2   -1    0    0    0  501 -0.00000000000E+00 -0.00000000000E+00 -0.85049362852E+02  0.85049362852E+02  0.00000000000E+00 0.  1.
         25    1    1    2    0    0  0.19503672047E+02  0.41388058916E+01  0.15290062840E+03  0.19849716649E+03  0.12500000000E+03 0.  0.
          1    1    1    2  502    0 -0.58757838267E+02  0.19770214445E+02  0.16555979864E+03  0.17678628868E+03  0.00000000000E+00 0. -1.
         -1    1    1    2    0  501  0.39254166220E+02 -0.23909020336E+02 -0.47313117787E+02  0.65962579800E+02  0.00000000000E+00 0.  1.
<mgrwt>
<rscale>  0 0.49437553E+02</rscale>
<asrwt>0</asrwt>
<pdfrwt beam="1">  1        2 0.54799487E-01 0.53175600E+02</pdfrwt>
<pdfrwt beam="2">  1       -2 0.13084518E-01 0.45962276E+02</pdfrwt>
<totfact> 0.35178719E+03</totfact>
</mgrwt>
</event>
<event>
 5    1  0.8891499E-003  0.3586524E+02  0.7546771E-02  0.1610742E+00
          1   -1    0    0  501    0 -0.00000000000E+00  0.00000000000E+00  0.14123198727E+02  0.14123198727E+02  0.00000000000E+00 0. -1.
          2   -1    0    0  502    0  0.00000000000E+00 -0.00000000000E+00 -0.13908054383E+04  0.13908054383E+04  0.00000000000E+00 0. -1.
         25    1    1    2    0    0  0.13249166816E+02  0.12242120634E+01 -0.12024266311E+04  0.12089796699E+04  0.12500000000E+03 0.  0.
          2    1    1    2  501    0 -0.35913203337E+02 -0.64757154962E+01 -0.23490094942E+02  0.43399050975E+02  0.00000000000E+00 0. -1.
          1    1    1    2  502    0  0.22664036522E+02  0.52515034328E+01 -0.15076551356E+03  0.15254991616E+03  0.00000000000E+00 0. -1.
<mgrwt>
<rscale>  0 0.28885753E+02</rscale>
<asrwt>0</asrwt>
<pdfrwt beam="2">  1        2 0.21397012E+00 0.23264497E+02</pdfrwt>
<pdfrwt beam="1">  1        1 0.21727993E-02 0.35865238E+02</pdfrwt>
<totfact> 0.10621261E+04</totfact>
</mgrwt>
</event>
<event>
 5    1  0.8891499E-003  0.4512074E+02  0.7546771E-02  0.1554233E+00
         -2   -1    0    0    0  501 -0.00000000000E+00  0.00000000000E+00  0.19077843165E+02  0.19077843165E+02  0.00000000000E+00 0.  1.
          2   -1    0    0  502    0  0.00000000000E+00 -0.00000000000E+00 -0.12283010429E+04  0.12283010429E+04  0.00000000000E+00 0. -1.
         25    1    1    2    0    0 -0.16193403362E+02  0.14780582133E+02 -0.11296644002E+04  0.11367705788E+04  0.12500000000E+03 0.  0.
          1    1    1    2  502    0 -0.25891772881E+02  0.39184397237E+01 -0.48322760721E+02  0.54962053059E+02  0.00000000000E+00 0. -1.
         -1    1    1    2    0  501  0.42085176243E+02 -0.18699021857E+02 -0.31236038817E+02  0.55646254131E+02  0.00000000000E+00 0.  1.
<mgrwt>
<rscale>  0 0.34373811E+02</rscale>
<asrwt>0</asrwt>
<pdfrwt beam="2">  1        2 0.18896939E+00 0.26186601E+02</pdfrwt>
<pdfrwt beam="1">  1       -2 0.29350528E-02 0.45120744E+02</pdfrwt>
<totfact> 0.79984337E+03</totfact>
</mgrwt>
</event>
<event>
 5    1  0.8891499E-003  0.1040924E+03  0.7546771E-02  0.1443679E+00
          1   -1    0    0  501    0 -0.00000000000E+00  0.00000000000E+00  0.52201943870E+03  0.52201943870E+03  0.00000000000E+00 0. -1.
          2   -1    0    0  502    0  0.00000000000E+00 -0.00000000000E+00 -0.48152537124E+03  0.48152537124E+03  0.00000000000E+00 0. -1.
         25    1    1    2    0    0 -0.86262097620E+02 -0.70292305505E+02 -0.14949018550E+03  0.22439802419E+03  0.12500000000E+03 0.  0.
          2    1    1    2  501    0  0.64638643108E+02  0.81412711341E+02  0.47847298580E+03  0.48963515181E+03  0.00000000000E+00 0. -1.
          1    1    1    2  502    0  0.21623454512E+02 -0.11120405836E+02 -0.28848873284E+03  0.28951163394E+03  0.00000000000E+00 0. -1.
<mgrwt>
<rscale>  0 0.50309493E+02</rscale>
<asrwt>0</asrwt>
<pdfrwt beam="2">  1        2 0.74080826E-01 0.24315370E+02</pdfrwt>
<pdfrwt beam="1">  1        1 0.80310683E-01 0.10409240E+03</pdfrwt>
<totfact> 0.39793227E+02</totfact>
</mgrwt>
</event>
<event>
 5    1  0.8891499E-003  0.2941858E+02  0.7546771E-02  0.1614437E+00
          2   -1    0    0  502    0  0.00000000000E+00  0.00000000000E+00  0.12863887982E+04  0.12863887982E+04  0.00000000000E+00 0. -1.
          1   -1    0    0  501    0 -0.00000000000E+00 -0.00000000000E+00 -0.18706767353E+03  0.18706767353E+03  0.00000000000E+00 0. -1.
         25    1    1    2    0    0 -0.90093932293E+01 -0.17060331022E+02 -0.75631421877E+02  0.14736802922E+03  0.12500000000E+03 0.  0.
          2    1    1    2  501    0 -0.20068696596E+02  0.21523252159E+02 -0.72522960322E+02  0.78266102116E+02  0.00000000000E+00 0. -1.
          1    1    1    2  502    0  0.29078089825E+02 -0.44629211366E+01  0.12474755069E+04  0.12478223404E+04  0.00000000000E+00 0. -1.
<mgrwt>
<rscale>  0 0.28571588E+02</rscale>
<asrwt>0</asrwt>
<pdfrwt beam="1">  1        2 0.19790596E+00 0.29418582E+02</pdfrwt>
<pdfrwt beam="2">  1        1 0.28779643E-01 0.27748979E+02</pdfrwt>
<totfact> 0.43178969E+02</totfact>
</mgrwt>
</event>
<event>
 5    1  0.8891499E-003  0.4680171E+02  0.7546771E-02  0.1488490E+00
          1   -1    0    0  501    0 -0.00000000000E+00  0.00000000000E+00  0.25429860679E+02  0.25429860679E+02  0.00000000000E+00 0. -1.
          2   -1    0    0  502    0  0.00000000000E+00 -0.00000000000E+00 -0.13580257450E+04  0.13580257450E+04  0.00000000000E+00 0. -1.
         25    1    1    2    0    0 -0.28304772639E+02 -0.74918206149E+02 -0.33805443161E+03  0.36921497329E+03  0.12500000000E+03 0.  0.
          2    1    1    2  501    0  0.73846624583E+01  0.41814121449E+02 -0.38254149700E+02  0.57151850026E+02  0.00000000000E+00 0. -1.
          1    1    1    2  502    0  0.20920110181E+02  0.33104084700E+02 -0.95628730300E+03  0.95708878236E+03  0.00000000000E+00 0. -1.
<mgrwt>
<rscale>  0 0.42810870E+02</rscale>
<asrwt>0</asrwt>
<pdfrwt beam="2">  1        2 0.20892707E+00 0.39160330E+02</pdfrwt>
<pdfrwt beam="1">  1        1 0.39122857E-02 0.46801715E+02</pdfrwt>
<totfact> 0.50047684E+03</totfact>
</mgrwt>
</event>
<event>
 5    1  0.8891499E-003  0.1266914E+03  0.7546771E-02  0.1314416E+00
          1   -1    0    0  501    0 -0.00000000000E+00  0.00000000000E+00  0.68985082088E+03  0.68985082088E+03  0.00000000000E+00 0. -1.
          2   -1    0    0  502    0  0.00000000000E+00 -0.00000000000E+00 -0.15314632578E+04  0.15314632578E+04  0.00000000000E+00 0. -1.
         25    1    1    2    0    0  0.27640954475E+02 -0.68376019394E+02 -0.10773143094E+03  0.18074944980E+03  0.12500000000E+03 0.  0.
          2    1    1    2  501    0  0.17165228768E+02 -0.54933193657E+02  0.64896344630E+03  0.65151044157E+03  0.00000000000E+00 0. -1.
          1    1    1    2  502    0 -0.44806183243E+02  0.12330921305E+03 -0.13828444522E+04  0.13890541873E+04  0.00000000000E+00 0. -1.
<mgrwt>
<rscale>  0 0.85389800E+02</rscale>
<asrwt>0</asrwt>
<pdfrwt beam="2">  1        2 0.23560973E+00 0.12669139E+03</pdfrwt>
<pdfrwt beam="1">  1        1 0.10613090E+00 0.57552592E+02</pdfrwt>
<totfact> 0.58801825E+01</totfact>
</mgrwt>
</event>
<event>
 5    1  0.8891499E-003  0.1019323E+03  0.7546771E-02  0.1303394E+00
          1   -1    0    0  501    0 -0.00000000000E+00  0.00000000000E+00  0.14057770518E+03  0.14057770518E+03  0.00000000000E+00 0. -1.
          2   -1    0    0  502    0  0.00000000000E+00 -0.00000000000E+00 -0.52124635267E+03  0.52124635267E+03  0.00000000000E+00 0. -1.
         25    1    1    2    0    0 -0.12626368917E+03 -0.11770274094E+03 -0.12630201102E+03  0.24773706306E+03  0.12500000000E+03 0.  0.
          2    1    1    2  501    0  0.60722768882E+02  0.50643742921E+02  0.51371701458E+02  0.94292603467E+02  0.00000000000E+00 0. -1.
          1    1    1    2  502    0  0.65540920286E+02  0.67058998016E+02 -0.30573833792E+03  0.31979439133E+03  0.00000000000E+00 0. -1.
<mgrwt>
<rscale>  0 0.89776234E+02</rscale>
<asrwt>0</asrwt>
<pdfrwt beam="2">  1        2 0.80191747E-01 0.10193229E+03</pdfrwt>
<pdfrwt beam="1">  1        1 0.21627339E-01 0.79069864E+02</pdfrwt>
<totfact> 0.18223951E+03</totfact>
</mgrwt>
</event>
<event>
 5    1  0.8891499E-003  0.6970626E+02  0.7546771E-02  0.1369816E+00
          1   -1    0    0  501    0 -0.00000000000E+00  0.00000000000E+00  0.15481187747E+03  0.15481187747E+03  0.00000000000E+00 0. -1.
          2   -1    0    0  502    0  0.00000000000E+00 -0.00000000000E+00 -0.45220929801E+03  0.45220929801E+03  0.00000000000E+00 0. -1.
         25    1    1    2    0    0  0.69664041115E+02 -0.24160418426E+02 -0.48185372753E+02  0.15291708404E+03  0.12500000000E+03 0.  0.
          2    1    1    2  501    0 -0.60587890333E+02 -0.40020162620E+02  0.86073386244E+02  0.11261053987E+03  0.00000000000E+00 0. -1.
          1    1    1    2  502    0 -0.90761507820E+01  0.64180581046E+02 -0.33528543402E+03  0.34149355157E+03  0.00000000000E+00 0. -1.
<mgrwt>
<rscale>  0 0.67218311E+02</rscale>
<asrwt>0</asrwt>
<pdfrwt beam="2">  1        2 0.69570660E-01 0.64819160E+02</pdfrwt>
<pdfrwt beam="1">  1        1 0.23817212E-01 0.69706263E+02</pdfrwt>
<totfact> 0.18858675E+03</totfact>
</mgrwt>
</event>
<event>
 5    1  0.8891499E-003  0.1405442E+03  0.7546771E-02  0.1424766E+00
          1   -1    0    0  501    0 -0.00000000000E+00  0.00000000000E+00  0.36539518068E+03  0.36539518068E+03  0.00000000000E+00 0. -1.
          2   -1    0    0  502    0  0.00000000000E+00 -0.00000000000E+00 -0.51097457068E+03  0.51097457068E+03  0.00000000000E+00 0. -1.
         25    1    1    2    0    0  0.10599001841E+03 -0.91607733697E+02  0.25673298415E+03  0.31806082127E+03  0.12500000000E+03 0.  0.
          2    1    1    2  501    0 -0.14333003739E+02 -0.15028000654E+02  0.66079430547E+02  0.69265914714E+02  0.00000000000E+00 0. -1.
          3    1    1    2  502    0 -0.91657014673E+02  0.10663573435E+03 -0.46839180470E+03  0.48904301537E+03  0.00000000000E+00 0. -1.
<mgrwt>
<rscale>  0 0.54025059E+02</rscale>
<asrwt>0</asrwt>
<pdfrwt beam="2">  1        2 0.78611472E-01 0.14054421E+03</pdfrwt>
<pdfrwt beam="1">  1        1 0.56214643E-01 0.20767181E+02</pdfrwt>
<totfact> 0.57918419E+02</totfact>
</mgrwt>
</event>
<event>
 5    1  0.8891499E-003  0.1020119E+03  0.7546771E-02  0.1344983E+00
         -1   -1    0    0    0  501 -0.00000000000E+00  0.00000000000E+00  0.77861630283E+03  0.77861630283E+03  0.00000000000E+00 0.  1.
          1   -1    0    0  502    0  0.00000000000E+00 -0.00000000000E+00 -0.69854511136E+03  0.69854511136E+03  0.00000000000E+00 0. -1.
         25    1    1    2    0    0 -0.13238047074E+03 -0.59639443610E+02 -0.14503901140E+03  0.24029724737E+03  0.12500000000E+03 0.  0.
          2    1    1    2  502    0  0.96235003536E+02  0.18696177375E+02 -0.50009095784E+03  0.50960934947E+03  0.00000000000E+00 0. -1.
         -2    1    1    2    0  501  0.36145467203E+02  0.40943266235E+02  0.72520116071E+03  0.72725481734E+03  0.00000000000E+00 0.  1.
<mgrwt>
<rscale>  0 0.74641957E+02</rscale>
<asrwt>0</asrwt>
<pdfrwt beam="2">  1        1 0.10746848E+00 0.10201185E+03</pdfrwt>
<pdfrwt beam="1">  1       -1 0.11978712E+00 0.54615436E+02</pdfrwt>
<totfact> 0.21590638E+01</totfact>
</mgrwt>
</event>
<event>
 5    1  0.8891499E-003  0.4963577E+02  0.7546771E-02  0.1493957E+00
          2   -1    0    0  502    0  0.00000000000E+00  0.00000000000E+00  0.83408776262E+03  0.83408776262E+03  0.00000000000E+00 0. -1.
         -2   -1    0    0    0  501 -0.00000000000E+00 -0.00000000000E+00 -0.49772571577E+03  0.49772571577E+03  0.00000000000E+00 0.  1.
         25    1    1    2    0    0 -0.59647946569E+02 -0.21149592457E+02 -0.71308717135E+02  0.15721041928E+03  0.12500000000E+03 0.  0.
          1    1    1    2  502    0  0.30239556747E+02 -0.18685231484E+02  0.78913678487E+03  0.78993698097E+03  0.00000000000E+00 0. -1.
         -1    1    1    2    0  501  0.29408389823E+02  0.39834823941E+02 -0.38146602088E+03  0.38466607814E+03  0.00000000000E+00 0.  1.
<mgrwt>
<rscale>  0 0.42004624E+02</rscale>
<asrwt>0</asrwt>
<pdfrwt beam="1">  1        2 0.12832119E+00 0.35546711E+02</pdfrwt>
<pdfrwt beam="2">  1       -2 0.76573187E-01 0.49635771E+02</pdfrwt>
<totfact> 0.59625694E+01</totfact>
</mgrwt>
</event>
<event>
 5    1  0.8891499E-003  0.3095180E+02  0.7546771E-02  0.1640187E+00
          2   -1    0    0  502    0  0.00000000000E+00  0.00000000000E+00  0.73094335105E+02  0.73094335105E+02  0.00000000000E+00 0. -1.
          1   -1    0    0  501    0 -0.00000000000E+00 -0.00000000000E+00 -0.16868571723E+04  0.16868571723E+04  0.00000000000E+00 0. -1.
         25    1    1    2    0    0  0.58179203846E+00 -0.84853564996E+01 -0.20511168843E+03  0.24035004574E+03  0.12500000000E+03 0.  0.
          2    1    1    2  501    0 -0.50162141042E+01  0.30757389955E+02 -0.14616291851E+04  0.14619613723E+04  0.00000000000E+00 0. -1.
          3    1    1    2  502    0  0.44344220657E+01 -0.22272033455E+02  0.52978036297E+02  0.57640089375E+02  0.00000000000E+00 0. -1.
<mgrwt>
<rscale>  0 0.26512084E+02</rscale>
<asrwt>0</asrwt>
<pdfrwt beam="1">  1        2 0.11245284E-01 0.22709196E+02</pdfrwt>
<pdfrwt beam="2">  1        1 0.25951645E+00 0.30951805E+02</pdfrwt>
<totfact> 0.43777671E+02</totfact>
</mgrwt>
</event>
<event>
 5    1  0.8891499E-003  0.3885939E+02  0.7546771E-02  0.1583115E+00
         -2   -1    0    0    0  501 -0.00000000000E+00  0.00000000000E+00  0.25270893819E+02  0.25270893819E+02  0.00000000000E+00 0.  1.
          2   -1    0    0  502    0  0.00000000000E+00 -0.00000000000E+00 -0.27294791815E+04  0.27294791815E+04  0.00000000000E+00 0. -1.
         25    1    1    2    0    0  0.29170812482E+02 -0.56064584842E+02 -0.12479624939E+04  0.12557983756E+04  0.12500000000E+03 0.  0.
          3    1    1    2  502    0 -0.15603005339E+02  0.20006800143E+02 -0.14600208027E+04  0.14602412370E+04  0.00000000000E+00 0. -1.
         -1    1    1    2    0  501 -0.13567807143E+02  0.36057784699E+02  0.37750089907E+01  0.38710462680E+02  0.00000000000E+00 0.  1.
<mgrwt>
<rscale>  0 0.31399536E+02</rscale>
<asrwt>0</asrwt>
<pdfrwt beam="2">  1        2 0.41991988E+00 0.25371753E+02</pdfrwt>
<pdfrwt beam="1">  1       -2 0.38878298E-02 0.38859390E+02</pdfrwt>
<totfact> 0.10013151E+03</totfact>
</mgrwt>
</event>
<event>
 5    1  0.8891499E-003  0.1495007E+03  0.7546771E-02  0.1305148E+00
          2   -1    0    0  502    0  0.00000000000E+00  0.00000000000E+00  0.12347637389E+04  0.12347637389E+04  0.00000000000E+00 0. -1.
          1   -1    0    0  501    0 -0.00000000000E+00 -0.00000000000E+00 -0.18064892082E+03  0.18064892082E+03  0.00000000000E+00 0. -1.
         25    1    1    2    0    0 -0.10024196599E+03 -0.10330639155E+02  0.39243767305E+03  0.42401356238E+03  0.12500000000E+03 0.  0.
          2    1    1    2  501    0  0.15280616064E+03  0.17513513414E+02 -0.12790273907E+03  0.20003888758E+03  0.00000000000E+00 0. -1.
          1    1    1    2  502    0 -0.52564194652E+02 -0.71828742593E+01  0.78957988413E+03  0.79136020981E+03  0.00000000000E+00 0. -1.
<mgrwt>
<rscale>  0 0.89058493E+02</rscale>
<asrwt>0</asrwt>
<pdfrwt beam="1">  1        2 0.18996365E+00 0.53052693E+02</pdfrwt>
<pdfrwt beam="2">  1        1 0.27792142E-01 0.14950071E+03</pdfrwt>
<totfact> 0.47834010E+02</totfact>
</mgrwt>
</event>
<event>
 5    1  0.8891499E-003  0.9704995E+02  0.7546771E-02  0.1380232E+00
          2   -1    0    0  502    0  0.00000000000E+00  0.00000000000E+00  0.20411261424E+04  0.20411261424E+04  0.00000000000E+00 0. -1.
          1   -1    0    0  501    0 -0.00000000000E+00 -0.00000000000E+00 -0.31604113217E+03  0.31604113217E+03  0.00000000000E+00 0. -1.
         25    1    1    2    0    0  0.43498363904E+02 -0.59291365851E+02 -0.14541611065E+03  0.20537385171E+03  0.12500000000E+03 0.  0.
          2    1    1    2  501    0 -0.23287078139E+02 -0.35836489834E+02 -0.13619445038E+03  0.14274267170E+03  0.00000000000E+00 0. -1.
          1    1    1    2  502    0 -0.20211285766E+02  0.95127855685E+02  0.20066955713E+04  0.20090507512E+04  0.00000000000E+00 0. -1.
<mgrwt>
<rscale>  0 0.64402849E+02</rscale>
<asrwt>0</asrwt>
<pdfrwt beam="1">  1        2 0.31401940E+00 0.97049952E+02</pdfrwt>
<pdfrwt beam="2">  1        1 0.48621714E-01 0.42738063E+02</pdfrwt>
<totfact> 0.88784777E+01</totfact>
</mgrwt>
</event>
<event>
 5    1  0.8891499E-003  0.1223936E+03  0.7546771E-02  0.1323613E+00
         -2   -1    0    0    0  501 -0.00000000000E+00  0.00000000000E+00  0.48099990150E+03  0.48099990150E+03  0.00000000000E+00 0.  1.
          2   -1    0    0  502    0  0.00000000000E+00 -0.00000000000E+00 -0.10969982959E+04  0.10969982959E+04  0.00000000000E+00 0. -1.
         25    1    1    2    0    0  0.46210678162E+02  0.58298037238E+02 -0.11319583205E+03  0.18431599039E+03  0.12500000000E+03 0.  0.
          3    1    1    2  502    0 -0.68823894893E+02 -0.10828914206E+03 -0.94218783094E+03  0.95088441756E+03  0.00000000000E+00 0. -1.
         -1    1    1    2    0  501  0.22613216731E+02  0.49991104817E+02  0.43938526856E+03  0.44279778947E+03  0.00000000000E+00 0.  1.
<mgrwt>
<rscale>  0 0.81947895E+02</rscale>
<asrwt>0</asrwt>
<pdfrwt beam="2">  1        2 0.16876897E+00 0.12239357E+03</pdfrwt>
<pdfrwt beam="1">  1       -2 0.73999985E-01 0.54867733E+02</pdfrwt>
<totfact> 0.42179101E+01</totfact>
</mgrwt>
</event>
<event>
 5    1  0.8891499E-003  0.1701511E+03  0.7546771E-02  0.1191622E+00
          2   -1    0    0  502    0  0.00000000000E+00  0.00000000000E+00  0.20676886599E+04  0.20676886599E+04  0.00000000000E+00 0. -1.
          1   -1    0    0  501    0 -0.00000000000E+00 -0.00000000000E+00 -0.60350467392E+02  0.60350467392E+02  0.00000000000E+00 0. -1.
         25    1    1    2    0    0 -0.40729367041E+01  0.30451760471E+02  0.62540133519E+03  0.63851055480E+03  0.12500000000E+03 0.  0.
          2    1    1    2  501    0  0.17217603160E+03 -0.56772145120E+02  0.12285112011E+03  0.21899785394E+03  0.00000000000E+00 0. -1.
          1    1    1    2  502    0 -0.16810309489E+03  0.26320384649E+02  0.12590857372E+04  0.12705307185E+04  0.00000000000E+00 0. -1.
<mgrwt>
<rscale>  0 0.15743615E+03</rscale>
<asrwt>0</asrwt>
<pdfrwt beam="1">  1        2 0.31810589E+00 0.17015115E+03</pdfrwt>
<pdfrwt beam="2">  1        1 0.92846889E-02 0.14567131E+03</pdfrwt>
<totfact> 0.66768724E+02</totfact>
</mgrwt>
</event>
<event>
 5    1  0.8891499E-003  0.4554703E+02  0.7546771E-02  0.1534855E+00
         -2   -1    0    0    0  501 -0.00000000000E+00  0.00000000000E+00  0.13439253899E+03  0.13439253899E+03  0.00000000000E+00 0.  1.
          2   -1    0    0  502    0  0.00000000000E+00 -0.00000000000E+00 -0.15465720624E+04  0.15465720624E+04  0.00000000000E+00 0. -1.
         25    1    1    2    0    0  0.19943462991E+02  0.62646084588E+02 -0.49056014046E+03  0.51048655715E+03  0.12500000000E+03 0.  0.
          1    1    1    2  502    0  0.33245252357E+01 -0.44664352220E+02 -0.10438243530E+04  0.10447847801E+04  0.00000000000E+00 0. -1.
         -1    1    1    2    0  501 -0.23267988226E+02 -0.17981732368E+02  0.12220496998E+03  0.12569326419E+03  0.00000000000E+00 0.  1.
<mgrwt>
<rscale>  0 0.36597522E+02</rscale>
<asrwt>0</asrwt>
<pdfrwt beam="2">  1        2 0.23793415E+00 0.45547032E+02</pdfrwt>
<pdfrwt beam="1">  1       -2 0.20675776E-01 0.29406495E+02</pdfrwt>
<totfact> 0.27346783E+02</totfact>
</mgrwt>
</event>
<event>
 5    1  0.8891499E-003  0.5068431E+02  0.7546771E-02  0.1472273E+00
          2   -1    0    0  502    0  0.00000000000E+00  0.00000000000E+00  0.42000765598E+03  0.42000765598E+03  0.00000000000E+00 0. -1.
         -2   -1    0    0    0  501 -0.00000000000E+00 -0.00000000000E+00 -0.14067000136E+03  0.14067000136E+03  0.00000000000E+00 0.  1.
         25    1    1    2    0    0 -0.58161915501E+02 -0.54735218750E+02 -0.48597307083E+02  0.15609436518E+03  0.12500000000E+03 0.  0.
          1    1    1    2  502    0  0.47851751800E+02  0.15521172993E+02  0.35322940544E+03  0.35679365160E+03  0.00000000000E+00 0. -1.
         -1    1    1    2    0  501  0.10310163701E+02  0.39214045756E+02 -0.25294443738E+02  0.47789640552E+02  0.00000000000E+00 0.  1.
<mgrwt>
<rscale>  0 0.45333050E+02</rscale>
<asrwt>0</asrwt>
<pdfrwt beam="1">  1        2 0.64616562E-01 0.50684314E+02</pdfrwt>
<pdfrwt beam="2">  1       -2 0.21641539E-01 0.40546774E+02</pdfrwt>
<totfact> 0.13124668E+03</totfact>
</mgrwt>
</event>
<event>
 5    1  0.8891499E-003  0.7230410E+02  0.7546771E-02  0.1356122E+00
          1   -1    0    0  501    0 -0.00000000000E+00  0.00000000000E+00  0.14436709558E+04  0.14436709558E+04  0.00000000000E+00 0. -1.
          2   -1    0    0  502    0  0.00000000000E+00 -0.00000000000E+00 -0.17116429696E+03  0.17116429696E+03  0.00000000000E+00 0. -1.
         25    1    1    2    0    0 -0.54839284607E+01 -0.11899702927E+02  0.40971927655E+03  0.42856336985E+03  0.12500000000E+03 0.  0.
          2    1    1    2  501    0  0.21938384976E+02  0.80015953663E+02  0.10151668228E+04  0.10185516794E+04  0.00000000000E+00 0. -1.
          1    1    1    2  502    0 -0.16454456515E+02 -0.68116250736E+02 -0.15237944052E+03  0.16772020345E+03  0.00000000000E+00 0. -1.
<mgrwt>
<rscale>  0 0.71181069E+02</rscale>
<asrwt>0</asrwt>
<pdfrwt beam="2">  1        2 0.26332970E-01 0.70075479E+02</pdfrwt>
<pdfrwt beam="1">  1        1 0.22210322E+00 0.72304102E+02</pdfrwt>
<totfact> 0.23510044E+02</totfact>
</mgrwt>
</event>
<event>
 5    1  0.8891499E-003  0.1094282E+03  0.7546771E-02  0.1364439E+00
          1   -1    0    0  502    0  0.00000000000E+00  0.00000000000E+00  0.15348449182E+04  0.15348449182E+04  0.00000000000E+00 0. -1.
         -1   -1    0    0    0  501 -0.00000000000E+00 -0.00000000000E+00 -0.18759882357E+03  0.18759882357E+03  0.00000000000E+00 0.  1.
         25    1    1    2    0    0  0.99010732832E+02  0.24738820270E+02  0.81520725416E+02  0.18079204384E+03  0.12500000000E+03 0.  0.
          2    1    1    2  502    0 -0.93172324338E+01  0.42160695374E+02  0.13806073176E+04  0.13812823391E+04  0.00000000000E+00 0. -1.
         -2    1    1    2    0  501 -0.89693500398E+02 -0.66899515644E+02 -0.11488194831E+03  0.16036935884E+03  0.00000000000E+00 0.  1.
<mgrwt>
<rscale>  0 0.68737810E+02</rscale>
<asrwt>0</asrwt>
<pdfrwt beam="1">  1        1 0.23612998E+00 0.43177946E+02</pdfrwt>
<pdfrwt beam="2">  1       -1 0.28861358E-01 0.10942824E+03</pdfrwt>
<totfact> 0.88377113E+01</totfact>
</mgrwt>
</event>
<event>
 5    1  0.8891499E-003  0.7204750E+02  0.7546771E-02  0.1519234E+00
         -1   -1    0    0    0  501 -0.00000000000E+00  0.00000000000E+00  0.29182965177E+03  0.29182965177E+03  0.00000000000E+00 0.  1.
          1   -1    0    0  502    0  0.00000000000E+00 -0.00000000000E+00 -0.29864398821E+04  0.29864398821E+04  0.00000000000E+00 0. -1.
         25    1    1    2    0    0  0.92156219348E+02  0.80289896156E+01  0.17949486641E+03  0.23748819025E+03  0.12500000000E+03 0.  0.
          2    1    1    2  502    0 -0.71539984040E+02 -0.81660807454E+01 -0.29557229440E+04  0.29565998674E+04  0.00000000000E+00 0. -1.
         -2    1    1    2    0  501 -0.20616235307E+02  0.13709112977E+00  0.81617847251E+02  0.84181476241E+02  0.00000000000E+00 0.  1.
<mgrwt>
<rscale>  0 0.38540641E+02</rscale>
<asrwt>0</asrwt>
<pdfrwt beam="2">  1        1 0.45945235E+00 0.72047497E+02</pdfrwt>
<pdfrwt beam="1">  1       -1 0.44896864E-01 0.20616691E+02</pdfrwt>
<totfact> 0.46457812E+00</totfact>
</mgrwt>
</event>
<event>
 5    1  0.8891499E-003  0.2332327E+03  0.7546771E-02  0.1205128E+00
         -1   -1    0    0    0  501 -0.00000000000E+00  0.00000000000E+00  0.13706334412E+04  0.13706334412E+04  0.00000000000E+00 0.  1.
          1   -1    0    0  502    0  0.00000000000E+00 -0.00000000000E+00 -0.16993969448E+03  0.16993969448E+03  0.00000000000E+00 0. -1.
         25    1    1    2    0    0 -0.19770905609E+03 -0.17858748493E+03  0.93766598440E+03  0.98276388768E+03  0.12500000000E+03 0.  0.
          2    1    1    2  502    0  0.91301375672E+02  0.89291909429E+01 -0.10462680788E+03  0.13914898698E+03  0.00000000000E+00 0. -1.
         -2    1    1    2    0  501  0.10640768042E+03  0.16965829399E+03  0.36765457014E+03  0.41866026097E+03  0.00000000000E+00 0.  1.
<mgrwt>
<rscale>  0 0.14627393E+03</rscale>
<asrwt>0</asrwt>
<pdfrwt beam="2">  1        1 0.26144569E-01 0.91736970E+02</pdfrwt>
<pdfrwt beam="1">  1       -1 0.21086668E+00 0.23323271E+03</pdfrwt>
<totfact> 0.25543754E+01</totfact>
</mgrwt>
</event>
<event>
 5    1  0.8891499E-003  0.5239269E+02  0.7546771E-02  0.1458025E+00
          1   -1    0    0  501    0 -0.00000000000E+00  0.00000000000E+00  0.59797265774E+03  0.59797265774E+03  0.00000000000E+00 0. -1.
          2   -1    0    0  502    0  0.00000000000E+00 -0.00000000000E+00 -0.74465775691E+03  0.74465775691E+03  0.00000000000E+00 0. -1.
         25    1    1    2    0    0  0.36742776523E+02  0.40039198778E+02 -0.37119159031E+03  0.39542555024E+03  0.12500000000E+03 0.  0.
          2    1    1    2  501    0  0.17891914112E+02 -0.39616543075E+02  0.58297657985E+03  0.58459497409E+03  0.00000000000E+00 0. -1.
          1    1    1    2  502    0 -0.54634690635E+02 -0.42265570360E+00 -0.35847008871E+03  0.36260989032E+03  0.00000000000E+00 0. -1.
<mgrwt>
<rscale>  0 0.47722952E+02</rscale>
<asrwt>0</asrwt>
<pdfrwt beam="2">  1        2 0.11456273E+00 0.52392689E+02</pdfrwt>
<pdfrwt beam="1">  1        1 0.91995793E-01 0.43469427E+02</pdfrwt>
<totfact> 0.21090924E+02</totfact>
</mgrwt>
</event>
<event>
 5    1  0.8891499E-003  0.9415727E+02  0.7546771E-02  0.1411980E+00
          1   -1    0    0  502    0  0.00000000000E+00  0.00000000000E+00  0.65870071612E+03  0.65870071612E+03  0.00000000000E+00 0. -1.
         -1   -1    0    0    0  501 -0.00000000000E+00 -0.00000000000E+00 -0.10423712603E+04  0.10423712603E+04  0.00000000000E+00 0.  1.
         25    1    1    2    0    0 -0.34904851479E+02  0.66613401013E+02 -0.21952873245E+02  0.14752160010E+03  0.12500000000E+03 0.  0.
          2    1    1    2  502    0  0.69094846223E+02 -0.65466083891E+02  0.59180683646E+03  0.59941241028E+03  0.00000000000E+00 0. -1.
         -2    1    1    2    0  501 -0.34189994743E+02 -0.11473171212E+01 -0.95352450739E+03  0.95413796605E+03  0.00000000000E+00 0.  1.
<mgrwt>
<rscale>  0 0.56754282E+02</rscale>
<asrwt>0</asrwt>
<pdfrwt beam="1">  1        1 0.10133857E+00 0.94157267E+02</pdfrwt>
<pdfrwt beam="2">  1       -1 0.16036481E+00 0.34209240E+02</pdfrwt>
<totfact> 0.11927814E+01</totfact>
</mgrwt>
</event>
<event>
 5    1  0.8891499E-003  0.7353556E+02  0.7546771E-02  0.1410208E+00
          1   -1    0    0  501    0 -0.00000000000E+00  0.00000000000E+00  0.32321808273E+03  0.32321808273E+03  0.00000000000E+00 0. -1.
          2   -1    0    0  502    0  0.00000000000E+00 -0.00000000000E+00 -0.62755819301E+03  0.62755819301E+03  0.00000000000E+00 0. -1.
         25    1    1    2    0    0 -0.89813839885E+02 -0.61903653726E+02 -0.27672784305E+03  0.32264824081E+03  0.12500000000E+03 0.  0.
          2    1    1    2  501    0  0.42593355526E+02  0.12577515465E+02  0.29502234072E+03  0.29834639156E+03  0.00000000000E+00 0. -1.
          1    1    1    2  502    0  0.47220484359E+02  0.49326138261E+02 -0.32263460796E+03  0.32978164338E+03  0.00000000000E+00 0. -1.
<mgrwt>
<rscale>  0 0.57147439E+02</rscale>
<asrwt>0</asrwt>
<pdfrwt beam="2">  1        2 0.96547412E-01 0.73535558E+02</pdfrwt>
<pdfrwt beam="1">  1        1 0.49725860E-01 0.44411573E+02</pdfrwt>
<totfact> 0.53995802E+02</totfact>
</mgrwt>
</event>
<event>
 5    1  0.8891499E-003  0.3683177E+02  0.7546771E-02  0.1589934E+00
         -2   -1    0    0    0  501 -0.00000000000E+00  0.00000000000E+00  0.45940860067E+03  0.45940860067E+03  0.00000000000E+00 0.  1.
          2   -1    0    0  502    0  0.00000000000E+00 -0.00000000000E+00 -0.61271460921E+03  0.61271460921E+03  0.00000000000E+00 0. -1.
         25    1    1    2    0    0 -0.29981464170E+02  0.52943529916E+02  0.11981862168E+02  0.13953662808E+03  0.12500000000E+03 0.  0.
          1    1    1    2  502    0  0.17771941983E+02 -0.18528498500E+02 -0.54776694008E+03  0.54836827755E+03  0.00000000000E+00 0. -1.
         -1    1    1    2    0  501  0.12209522187E+02 -0.34415031416E+02  0.38247906937E+03  0.38421830426E+03  0.00000000000E+00 0.  1.
<mgrwt>
<rscale>  0 0.30750833E+02</rscale>
<asrwt>0</asrwt>
<pdfrwt beam="2">  1        2 0.94263786E-01 0.25673862E+02</pdfrwt>
<pdfrwt beam="1">  1       -2 0.70678247E-01 0.36831768E+02</pdfrwt>
<totfact> 0.10064951E+02</totfact>
</mgrwt>
</event>
<event>
 5    1  0.8891499E-003  0.4140611E+02  0.7546771E-02  0.1578773E+00
          1   -1    0    0  501    0 -0.00000000000E+00  0.00000000000E+00  0.16594467841E+03  0.16594467841E+03  0.00000000000E+00 0. -1.
          2   -1    0    0  502    0  0.00000000000E+00 -0.00000000000E+00 -0.76224984671E+02  0.76224984671E+02  0.00000000000E+00 0. -1.
         25    1    1    2    0    0  0.33717719565E+02  0.13112861872E+02  0.55786948031E+02  0.14158395153E+03  0.12500000000E+03 0.  0.
          2    1    1    2  501    0  0.82196599555E+01 -0.23034675907E+02  0.49136992194E+02  0.54887185261E+02  0.00000000000E+00 0. -1.
          1    1    1    2  502    0 -0.41937379520E+02  0.99218140357E+01 -0.15204246481E+02  0.45698526298E+02  0.00000000000E+00 0. -1.
<mgrwt>
<rscale>  0 0.31822652E+02</rscale>
<asrwt>0</asrwt>
<pdfrwt beam="2">  1        2 0.11726921E-01 0.41406105E+02</pdfrwt>
<pdfrwt beam="1">  1        1 0.25529950E-01 0.24457291E+02</pdfrwt>
<totfact> 0.11049352E+04</totfact>
</mgrwt>
</event>
<event>
 5    1  0.8891499E-003  0.3744654E+02  0.7546771E-02  0.1561859E+00
          1   -1    0    0  501    0 -0.00000000000E+00  0.00000000000E+00  0.26946104743E+04  0.26946104743E+04  0.00000000000E+00 0. -1.
          2   -1    0    0  502    0  0.00000000000E+00 -0.00000000000E+00 -0.33336885494E+02  0.33336885494E+02  0.00000000000E+00 0. -1.
         25    1    1    2    0    0 -0.44422055447E+02  0.13741597713E+02  0.19818347043E+03  0.23888038528E+03  0.12500000000E+03 0.  0.
          2    1    1    2  501    0  0.20201131397E+02 -0.31545548971E+02  0.24583495991E+04  0.24586349788E+04  0.00000000000E+00 0. -1.
          1    1    1    2  502    0  0.24220924049E+02  0.17803951258E+02  0.47405192597E+01  0.30431995745E+02  0.00000000000E+00 0. -1.
<mgrwt>
<rscale>  0 0.33550886E+02</rscale>
<asrwt>0</asrwt>
<pdfrwt beam="2">  1        2 0.51287537E-02 0.30060503E+02</pdfrwt>
<pdfrwt beam="1">  1        1 0.41455529E+00 0.37446544E+02</pdfrwt>
<totfact> 0.27005325E+02</totfact>
</mgrwt>
</event>
<event>
 5    1  0.8891499E-003  0.6031923E+02  0.7546771E-02  0.1401390E+00
          1   -1    0    0  502    0  0.00000000000E+00  0.00000000000E+00  0.18183206280E+04  0.18183206280E+04  0.00000000000E+00 0. -1.
         -1   -1    0    0    0  501 -0.00000000000E+00 -0.00000000000E+00 -0.92155243591E+02  0.92155243591E+02  0.00000000000E+00 0.  1.
         25    1    1    2    0    0 -0.71632298985E+02 -0.38200210307E+02  0.21709821346E+03  0.26333833108E+03  0.12500000000E+03 0.  0.
          2    1    1    2  502    0  0.13982485651E+02  0.56313680062E+02  0.15642369302E+04  0.15653127209E+04  0.00000000000E+00 0. -1.
         -2    1    1    2    0  501  0.57649813334E+02 -0.18113469755E+02 -0.55169759261E+02  0.81824819590E+02  0.00000000000E+00 0.  1.
<mgrwt>
<rscale>  0 0.59160289E+02</rscale>
<asrwt>0</asrwt>
<pdfrwt beam="1">  1        1 0.27974161E+00 0.58023620E+02</pdfrwt>
<pdfrwt beam="2">  1       -1 0.14177731E-01 0.60319225E+02</pdfrwt>
<totfact> 0.17284618E+02</totfact>
</mgrwt>
</event>
<event>
 5    1  0.8891499E-003  0.1948325E+03  0.7546771E-02  0.1222136E+00
          2   -1    0    0  502    0  0.00000000000E+00  0.00000000000E+00  0.16617691360E+04  0.16617691360E+04  0.00000000000E+00 0. -1.
          1   -1    0    0  501    0 -0.00000000000E+00 -0.00000000000E+00 -0.25124374204E+03  0.25124374204E+03  0.00000000000E+00 0. -1.
         25    1    1    2    0    0  0.30094880738E+02 -0.16257560239E+03  0.48608427993E+03  0.52843112658E+03  0.12500000000E+03 0.  0.
          2    1    1    2  501    0  0.57267058643E+02  0.19039002758E+03 -0.18487124500E+03  0.27148711910E+03  0.00000000000E+00 0. -1.
          1    1    1    2  502    0 -0.87361939381E+02 -0.27814425198E+02  0.11093123590E+04  0.11130946323E+04  0.00000000000E+00 0. -1.
<mgrwt>
<rscale>  0 0.13365181E+03</rscale>
<asrwt>0</asrwt>
<pdfrwt beam="1">  1        2 0.25565678E+00 0.91682881E+02</pdfrwt>
<pdfrwt beam="2">  1        1 0.38652884E-01 0.19483250E+03</pdfrwt>
<totfact> 0.18416065E+02</totfact>
</mgrwt>
</event>
<event>
 5    1  0.8891499E-003  0.8216631E+02  0.7546771E-02  0.1337213E+00
          2   -1    0    0  502    0  0.00000000000E+00  0.00000000000E+00  0.34153316531E+03  0.34153316531E+03  0.00000000000E+00 0. -1.
          1   -1    0    0  501    0 -0.00000000000E+00 -0.00000000000E+00 -0.16498831417E+03  0.16498831417E+03  0.00000000000E+00 0. -1.
         25    1    1    2    0    0  0.48980837739E+02 -0.10729941030E+02 -0.38005143048E+01  0.13473565975E+03  0.12500000000E+03 0.  0.
          2    1    1    2  501    0 -0.57398889103E+02  0.82759545453E+02 -0.62372543711E+02  0.11846564499E+03  0.00000000000E+00 0. -1.
          1    1    1    2  502    0  0.84180513643E+01 -0.72029604422E+02  0.24271790916E+03  0.25332017473E+03  0.00000000000E+00 0. -1.
<mgrwt>
<rscale>  0 0.77192536E+02</rscale>
<asrwt>0</asrwt>
<pdfrwt beam="1">  1        2 0.52543564E-01 0.72519842E+02</pdfrwt>
<pdfrwt beam="2">  1        1 0.25382818E-01 0.82166306E+02</pdfrwt>
<totfact> 0.23459399E+03</totfact>
</mgrwt>
</event>
<event>
 5    1  0.8891499E-003  0.4641670E+02  0.7546771E-02  0.1492339E+00
          1   -1    0    0  501    0 -0.00000000000E+00  0.00000000000E+00  0.22740767158E+02  0.22740767158E+02  0.00000000000E+00 0. -1.
          2   -1    0    0  502    0  0.00000000000E+00 -0.00000000000E+00 -0.26860972038E+04  0.26860972038E+04  0.00000000000E+00 0. -1.
         25    1    1    2    0    0  0.39325012702E+02  0.64081115045E+02 -0.11215185028E+04  0.11309648969E+04  0.12500000000E+03 0.  0.
          2    1    1    2  501    0 -0.56854213317E+01 -0.45477404406E+02 -0.11765061513E+02  0.47317385808E+02  0.00000000000E+00 0. -1.
          1    1    1    2  502    0 -0.33639591370E+02 -0.18603710639E+02 -0.15300728724E+04  0.15305556883E+04  0.00000000000E+00 0. -1.
<mgrwt>
<rscale>  0 0.42241094E+02</rscale>
<asrwt>0</asrwt>
<pdfrwt beam="2">  1        2 0.41324539E+00 0.38441126E+02</pdfrwt>
<pdfrwt beam="1">  1        1 0.34985824E-02 0.46416695E+02</pdfrwt>
<totfact> 0.12997260E+03</totfact>
</mgrwt>
</event>
<event>
 5    1  0.8891499E-003  0.9511242E+02  0.7546771E-02  0.1332062E+00
          1   -1    0    0  501    0 -0.00000000000E+00  0.00000000000E+00  0.71485224713E+03  0.71485224713E+03  0.00000000000E+00 0. -1.
          2   -1    0    0  502    0  0.00000000000E+00 -0.00000000000E+00 -0.18737583761E+04  0.18737583761E+04  0.00000000000E+00 0. -1.
         25    1    1    2    0    0  0.26967135795E+02 -0.13798915867E+03 -0.54239354700E+03  0.57409406385E+03  0.12500000000E+03 0.  0.
          2    1    1    2  501    0 -0.44377694528E+02  0.48218479679E+02  0.69587162515E+03  0.69895044191E+03  0.00000000000E+00 0. -1.
          1    1    1    2  502    0  0.17410558734E+02  0.89770678987E+02 -0.13123842071E+04  0.13155661175E+04  0.00000000000E+00 0. -1.
<mgrwt>
<rscale>  0 0.78948571E+02</rscale>
<asrwt>0</asrwt>
<pdfrwt beam="2">  1        2 0.28827052E+00 0.95112418E+02</pdfrwt>
<pdfrwt beam="1">  1        1 0.10997727E+00 0.65531684E+02</pdfrwt>
<totfact> 0.38288525E+01</totfact>
</mgrwt>
</event>
<event>
 5    1  0.8891499E-003  0.7022866E+02  0.7546771E-02  0.1417745E+00
          1   -1    0    0  502    0  0.00000000000E+00  0.00000000000E+00  0.13248475820E+04  0.13248475820E+04  0.00000000000E+00 0. -1.
         -1   -1    0    0    0  501 -0.00000000000E+00 -0.00000000000E+00 -0.42877500000E+02  0.42877500000E+02  0.00000000000E+00 0.  1.
         25    1    1    2    0    0 -0.27797946903E+02 -0.12454703674E+02  0.20791795242E+03  0.24450505196E+03  0.12500000000E+03 0.  0.
          2    1    1    2  502    0  0.71636978828E+02  0.13859489334E+02  0.10768030404E+04  0.10792723151E+04  0.00000000000E+00 0. -1.
         -2    1    1    2    0  501 -0.43839031925E+02 -0.14047856604E+01 -0.27509108326E+01  0.43947714995E+02  0.00000000000E+00 0.  1.
<mgrwt>
<rscale>  0 0.55500782E+02</rscale>
<asrwt>0</asrwt>
<pdfrwt beam="1">  1        1 0.20382267E+00 0.70228662E+02</pdfrwt>
<pdfrwt beam="2">  1       -1 0.65965395E-02 0.43861534E+02</pdfrwt>
<totfact> 0.10466570E+03</totfact>
</mgrwt>
</event>
<event>
 5    1  0.8891499E-003  0.1152833E+03  0.7546771E-02  0.1282806E+00
         -2   -1    0    0    0  501 -0.00000000000E+00  0.00000000000E+00  0.19652007683E+03  0.19652007683E+03  0.00000000000E+00 0.  1.
          2   -1    0    0  502    0  0.00000000000E+00 -0.00000000000E+00 -0.13660788089E+04  0.13660788089E+04  0.00000000000E+00 0. -1.
         25    1    1    2    0    0 -0.31215644936E+02  0.13964044559E+03 -0.18499472658E+03  0.26518280373E+03  0.12500000000E+03 0.  0.
          1    1    1    2  502    0 -0.46264548057E+02 -0.10541985157E+03 -0.11263709702E+04  0.11322390720E+04  0.00000000000E+00 0. -1.
         -1    1    1    2    0  501  0.77480192994E+02 -0.34220594028E+02  0.14180696479E+03  0.16517700997E+03  0.00000000000E+00 0.  1.
<mgrwt>
<rscale>  0 0.98815945E+02</rscale>
<asrwt>0</asrwt>
<pdfrwt beam="2">  1        2 0.21016597E+00 0.11528331E+03</pdfrwt>
<pdfrwt beam="1">  1       -2 0.30233859E-01 0.84700823E+02</pdfrwt>
<totfact> 0.17096305E+02</totfact>
</mgrwt>
</event>
<event>
 5    1  0.8891499E-003  0.4670211E+02  0.7546771E-02  0.1546964E+00
         -1   -1    0    0    0  501 -0.00000000000E+00  0.00000000000E+00  0.37071711884E+03  0.37071711884E+03  0.00000000000E+00 0.  1.
          1   -1    0    0  502    0  0.00000000000E+00 -0.00000000000E+00 -0.70102969111E+03  0.70102969111E+03  0.00000000000E+00 0. -1.
         25    1    1    2    0    0 -0.63551155692E+02  0.14708038909E+02 -0.49890554021E+03  0.51844653904E+03  0.12500000000E+03 0.  0.
          2    1    1    2  502    0  0.24319151599E+02  0.10547768758E+02 -0.18992145608E+03  0.19176244689E+03  0.00000000000E+00 0. -1.
         -2    1    1    2    0  501  0.39232004093E+02 -0.25255807666E+02  0.35851442401E+03  0.36153782401E+03  0.00000000000E+00 0.  1.
<mgrwt>
<rscale>  0 0.35184966E+02</rscale>
<asrwt>0</asrwt>
<pdfrwt beam="2">  1        1 0.10785072E+00 0.26508047E+02</pdfrwt>
<pdfrwt beam="1">  1       -1 0.57033403E-01 0.46702114E+02</pdfrwt>
<totfact> 0.10291807E+02</totfact>
</mgrwt>
</event>
<event>
 5    1  0.8891499E-003  0.8510687E+02  0.7546771E-02  0.1489534E+00
          1   -1    0    0  501    0 -0.00000000000E+00  0.00000000000E+00  0.25468661244E+03  0.25468661244E+03  0.00000000000E+00 0. -1.
          2   -1    0    0  502    0  0.00000000000E+00 -0.00000000000E+00 -0.53033933274E+03  0.53033933274E+03  0.00000000000E+00 0. -1.
         25    1    1    2    0    0 -0.53081376528E+02  0.49232333066E+02 -0.28257653051E+03  0.31735776459E+03  0.12500000000E+03 0.  0.
          2    1    1    2  501    0  0.48798033361E+02 -0.70177388253E+02  0.22906888992E+03  0.24449676933E+03  0.00000000000E+00 0. -1.
          1    1    1    2  502    0  0.42833431676E+01  0.20945055187E+02 -0.22214507971E+03  0.22317141126E+03  0.00000000000E+00 0. -1.
<mgrwt>
<rscale>  0 0.42655145E+02</rscale>
<asrwt>0</asrwt>
<pdfrwt beam="2">  1        2 0.81590666E-01 0.21378549E+02</pdfrwt>
<pdfrwt beam="1">  1        1 0.39182556E-01 0.85106868E+02</pdfrwt>
<totfact> 0.88282785E+02</totfact>
</mgrwt>
</event>
<event>
 5    1  0.8891499E-003  0.1009359E+03  0.7546771E-02  0.1383414E+00
          2   -1    0    0  502    0  0.00000000000E+00  0.00000000000E+00  0.37105808305E+03  0.37105808305E+03  0.00000000000E+00 0. -1.
          1   -1    0    0  501    0 -0.00000000000E+00 -0.00000000000E+00 -0.13824331357E+04  0.13824331357E+04  0.00000000000E+00 0. -1.
         25    1    1    2    0    0 -0.63041819575E+02  0.23279751965E+02 -0.17960770886E+03  0.22891078382E+03  0.12500000000E+03 0.  0.
          2    1    1    2  501    0 -0.22038709700E+02  0.33432364057E+02 -0.11702786957E+04  0.11709635576E+04  0.00000000000E+00 0. -1.
          1    1    1    2  502    0  0.85080529276E+02 -0.56712116022E+02  0.33851135189E+03  0.35361687732E+03  0.00000000000E+00 0. -1.
<mgrwt>
<rscale>  0 0.63574834E+02</rscale>
<asrwt>0</asrwt>
<pdfrwt beam="1">  1        2 0.57085859E-01 0.10093593E+03</pdfrwt>
<pdfrwt beam="2">  1        1 0.21268202E+00 0.40042823E+02</pdfrwt>
<totfact> 0.12113651E+02</totfact>
</mgrwt>
</event>
<event>
 5    1  0.8891499E-003  0.1292734E+03  0.7546771E-02  0.1312814E+00
          1   -1    0    0  502    0  0.00000000000E+00  0.00000000000E+00  0.17749469969E+03  0.17749469969E+03  0.00000000000E+00 0. -1.
         -1   -1    0    0    0  501 -0.00000000000E+00 -0.00000000000E+00 -0.95474379024E+03  0.95474379024E+03  0.00000000000E+00 0.  1.
         25    1    1    2    0    0  0.11703747441E+03  0.89669456437E+02 -0.26484493256E+03  0.32788141170E+03  0.12500000000E+03 0.  0.
          2    1    1    2  502    0 -0.64094495531E+02 -0.11138707095E+03  0.11613859729E+03  0.17321477336E+03  0.00000000000E+00 0. -1.
         -2    1    1    2    0  501 -0.52942978877E+02  0.21717614513E+02 -0.62854275528E+03  0.63114230488E+03  0.00000000000E+00 0.  1.
<mgrwt>
<rscale>  0 0.86009131E+02</rscale>
<asrwt>0</asrwt>
<pdfrwt beam="1">  1        1 0.27306877E-01 0.12927337E+03</pdfrwt>
<pdfrwt beam="2">  1       -1 0.14688366E+00 0.57224241E+02</pdfrwt>
<totfact> 0.75017982E+01</totfact>
</mgrwt>
</event>
<event>
 5    1  0.8891499E-003  0.1983656E+03  0.7546771E-02  0.1231259E+00
          1   -1    0    0  501    0 -0.00000000000E+00  0.00000000000E+00  0.47657187700E+03  0.47657187700E+03  0.00000000000E+00 0. -1.
          2   -1    0    0  502    0  0.00000000000E+00 -0.00000000000E+00 -0.16884191283E+04  0.16884191283E+04  0.00000000000E+00 0. -1.
         25    1    1    2    0    0 -0.17609169186E+03 -0.40256475568E+02 -0.13545389884E+03  0.25807290923E+03  0.12500000000E+03 0.  0.
          2    1    1    2  501    0 -0.22108777243E+02  0.78872003551E+02  0.40430257970E+03  0.41251686866E+03  0.00000000000E+00 0. -1.
          1    1    1    2  502    0  0.19820046910E+03 -0.38615527982E+02 -0.14806959322E+04  0.14944012274E+04  0.00000000000E+00 0. -1.
<mgrwt>
<rscale>  0 0.12746978E+03</rscale>
<asrwt>0</asrwt>
<pdfrwt beam="2">  1        2 0.25975679E+00 0.19836565E+03</pdfrwt>
<pdfrwt beam="1">  1        1 0.73318750E-01 0.81912093E+02</pdfrwt>
<totfact> 0.75492524E+01</totfact>
</mgrwt>
</event>
<event>
 5    1  0.8891499E-003  0.1382073E+03  0.7546771E-02  0.1346999E+00
          2   -1    0    0  502    0  0.00000000000E+00  0.00000000000E+00  0.31616279698E+04  0.31616279698E+04  0.00000000000E+00 0. -1.
          1   -1    0    0  501    0 -0.00000000000E+00 -0.00000000000E+00 -0.14724298048E+04  0.14724298048E+04  0.00000000000E+00 0. -1.
         25    1    1    2    0    0  0.15547127999E+03  0.85934421362E+02  0.82555423187E+03  0.85365147070E+03  0.12500000000E+03 0.  0.
          2    1    1    2  501    0 -0.12152165172E+03 -0.65508417180E+02 -0.14549444294E+04  0.14614794413E+04  0.00000000000E+00 0. -1.
          1    1    1    2  502    0 -0.33949628271E+02 -0.20426004181E+02  0.23185883626E+04  0.23189268626E+04  0.00000000000E+00 0. -1.
<mgrwt>
<rscale>  0 0.73999102E+02</rscale>
<asrwt>0</asrwt>
<pdfrwt beam="1">  1        2 0.48640430E+00 0.39620688E+02</pdfrwt>
<pdfrwt beam="2">  1        1 0.22652766E+00 0.13820727E+03</pdfrwt>
<totfact> 0.25289922E+00</totfact>
</mgrwt>
</event>
<event>
 5    1  0.8891499E-003  0.2549805E+03  0.7546771E-02  0.1339358E+00
          1   -1    0    0  501    0 -0.00000000000E+00  0.00000000000E+00  0.16856847701E+04  0.16856847701E+04  0.00000000000E+00 0. -1.
          2   -1    0    0  502    0  0.00000000000E+00 -0.00000000000E+00 -0.22097238757E+03  0.22097238757E+03  0.00000000000E+00 0. -1.
         25    1    1    2    0    0  0.24692705472E+03 -0.12262926714E+03  0.75690899176E+03  0.81519760140E+03  0.12500000000E+03 0.  0.
          2    1    1    2  501    0 -0.20941776948E+02  0.93585617579E+01  0.81612315281E+03  0.81644543066E+03  0.00000000000E+00 0. -1.
          1    1    1    2  502    0 -0.22598527778E+03  0.11327070538E+03 -0.10831976199E+03  0.27501412565E+03  0.00000000000E+00 0. -1.
<mgrwt>
<rscale>  0 0.76476674E+02</rscale>
<asrwt>0</asrwt>
<pdfrwt beam="2">  1        2 0.33995753E-01 0.25498054E+03</pdfrwt>
<pdfrwt beam="1">  1        1 0.25933611E+00 0.22937757E+02</pdfrwt>
<totfact> 0.14776627E+02</totfact>
</mgrwt>
</event>
<event>
 5    1  0.8891499E-003  0.9861336E+02  0.7546771E-02  0.1381123E+00
          1   -1    0    0  501    0 -0.00000000000E+00  0.00000000000E+00  0.20952679428E+04  0.20952679428E+04  0.00000000000E+00 0. -1.
          2   -1    0    0  502    0  0.00000000000E+00 -0.00000000000E+00 -0.81261199335E+03  0.81261199335E+03  0.00000000000E+00 0. -1.
         25    1    1    2    0    0  0.77582360688E+02  0.11624088003E+03  0.17640904731E+03  0.25744148239E+03  0.12500000000E+03 0.  0.
          2    1    1    2  501    0 -0.22136111582E+02 -0.35405979303E+02  0.18749980940E+04  0.18754629944E+04  0.00000000000E+00 0. -1.
          1    1    1    2  502    0 -0.55446249106E+02 -0.80834900725E+02 -0.76875119184E+03  0.77497545940E+03  0.00000000000E+00 0. -1.
<mgrwt>
<rscale>  0 0.64169554E+02</rscale>
<asrwt>0</asrwt>
<pdfrwt beam="2">  1        2 0.12501723E+00 0.98613360E+02</pdfrwt>
<pdfrwt beam="1">  1        1 0.32234891E+00 0.41756327E+02</pdfrwt>
<totfact> 0.18466383E+01</totfact>
</mgrwt>
</event>
<event>
 5    1  0.8891499E-003  0.1260144E+03  0.7546771E-02  0.1360382E+00
          2   -1    0    0  502    0  0.00000000000E+00  0.00000000000E+00  0.12341594561E+04  0.12341594561E+04  0.00000000000E+00 0. -1.
          1   -1    0    0  501    0 -0.00000000000E+00 -0.00000000000E+00 -0.16354107547E+04  0.16354107547E+04  0.00000000000E+00 0. -1.
         25    1    1    2    0    0 -0.79700893442E+02  0.38379831614E+02  0.51209926082E+02  0.16147043203E+03  0.12500000000E+03 0.  0.
          2    1    1    2  501    0  0.11685508061E+03 -0.49525775392E+02 -0.15773974048E+04  0.15824950190E+04  0.00000000000E+00 0. -1.
          1    1    1    2  502    0 -0.37154187172E+02  0.11145943778E+02  0.11249361802E+04  0.11256047598E+04  0.00000000000E+00 0. -1.
<mgrwt>
<rscale>  0 0.69914970E+02</rscale>
<asrwt>0</asrwt>
<pdfrwt beam="1">  1        2 0.18987069E+00 0.38790020E+02</pdfrwt>
<pdfrwt beam="2">  1        1 0.25160165E+00 0.12601445E+03</pdfrwt>
<totfact> 0.18795275E+01</totfact>
</mgrwt>
</event>
<event>
 5    1  0.8891499E-003  0.5478419E+02  0.7546771E-02  0.1493731E+00
          2   -1    0    0  502    0  0.00000000000E+00  0.00000000000E+00  0.51995019501E+03  0.51995019501E+03  0.00000000000E+00 0. -1.
          1   -1    0    0  501    0 -0.00000000000E+00 -0.00000000000E+00 -0.22041813755E+03  0.22041813755E+03  0.00000000000E+00 0. -1.
         25    1    1    2    0    0 -0.28240333123E+02  0.11327890252E+02  0.66461051666E+02  0.14480300032E+03  0.12500000000E+03 0.  0.
          2    1    1    2  501    0  0.36263590286E+02 -0.42570793268E+02 -0.17628393478E+03  0.18494146663E+03  0.00000000000E+00 0. -1.
          1    1    1    2  502    0 -0.80232571624E+01  0.31242903015E+02  0.40935494057E+03  0.41062386561E+03  0.00000000000E+00 0. -1.
<mgrwt>
<rscale>  0 0.42037539E+02</rscale>
<asrwt>0</asrwt>
<pdfrwt beam="1">  1        2 0.79992337E-01 0.32256653E+02</pdfrwt>
<pdfrwt beam="2">  1        1 0.33910483E-01 0.54784194E+02</pdfrwt>
<totfact> 0.10620496E+03</totfact>
</mgrwt>
</event>
<event>
 5    1  0.8891499E-003  0.8716141E+02  0.7546771E-02  0.1316732E+00
          1   -1    0    0  501    0 -0.00000000000E+00  0.00000000000E+00  0.11992362463E+02  0.11992362463E+02  0.00000000000E+00 0. -1.
          2   -1    0    0  502    0  0.00000000000E+00 -0.00000000000E+00 -0.41053157309E+04  0.41053157309E+04  0.00000000000E+00 0. -1.
         25    1    1    2    0    0  0.32002429442E+02  0.19988683190E+02 -0.66224183052E+03  0.67499107034E+03  0.12500000000E+03 0.  0.
          2    1    1    2  501    0 -0.33427268737E+02  0.74800155140E+02 -0.33817558189E+03  0.34795857468E+03  0.00000000000E+00 0. -1.
          1    1    1    2  502    0  0.14248392952E+01 -0.94788838331E+02 -0.30929059560E+04  0.30943584483E+04  0.00000000000E+00 0. -1.
<mgrwt>
<rscale>  0 0.84504982E+02</rscale>
<asrwt>0</asrwt>
<pdfrwt beam="2">  1        2 0.63158741E+00 0.87161409E+02</pdfrwt>
<pdfrwt beam="1">  1        1 0.18449778E-02 0.81929515E+02</pdfrwt>
<totfact> 0.37427075E+02</totfact>
</mgrwt>
</event>
<event>
 5    1  0.8891499E-003  0.9972727E+02  0.7546771E-02  0.1284812E+00
          2   -1    0    0  502    0  0.00000000000E+00  0.00000000000E+00  0.24827488765E+03  0.24827488765E+03  0.00000000000E+00 0. -1.
          1   -1    0    0  501    0 -0.00000000000E+00 -0.00000000000E+00 -0.12520273337E+04  0.12520273337E+04  0.00000000000E+00 0. -1.
         25    1    1    2    0    0  0.96631684305E+02 -0.87520971947E+02 -0.58828325152E+03  0.61538588460E+03  0.12500000000E+03 0.  0.
          2    1    1    2  501    0 -0.13582996935E+01  0.99885760614E+02 -0.63629933490E+03  0.64409304743E+03  0.00000000000E+00 0. -1.
          1    1    1    2  502    0 -0.95273384612E+02 -0.12364788666E+02  0.22083014033E+03  0.24082328935E+03  0.00000000000E+00 0. -1.
<mgrwt>
<rscale>  0 0.97882777E+02</rscale>
<asrwt>0</asrwt>
<pdfrwt beam="1">  1        2 0.38196136E-01 0.96072399E+02</pdfrwt>
<pdfrwt beam="2">  1        1 0.19261959E+00 0.99727269E+02</pdfrwt>
<totfact> 0.20662272E+02</totfact>
</mgrwt>
</event>
<event>
 5    1  0.8891499E-003  0.9643480E+02  0.7546771E-02  0.1390360E+00
         -1   -1    0    0    0  501 -0.00000000000E+00  0.00000000000E+00  0.77468985384E+02  0.77468985384E+02  0.00000000000E+00 0.  1.
          1   -1    0    0  502    0  0.00000000000E+00 -0.00000000000E+00 -0.11035482276E+04  0.11035482276E+04  0.00000000000E+00 0. -1.
         25    1    1    2    0    0  0.42358611778E+02  0.82329420539E+02 -0.26889732812E+03  0.31064957516E+03  0.12500000000E+03 0.  0.
          2    1    1    2  502    0 -0.76155469705E+02 -0.61640801738E+02 -0.80347744113E+03  0.80942896069E+03  0.00000000000E+00 0. -1.
         -2    1    1    2    0  501  0.33796857927E+02 -0.20688618801E+02  0.46295527002E+02  0.60938677160E+02  0.00000000000E+00 0.  1.
<mgrwt>
<rscale>  0 0.61817132E+02</rscale>
<asrwt>0</asrwt>
<pdfrwt beam="2">  1        1 0.16977663E+00 0.96434798E+02</pdfrwt>
<pdfrwt beam="1">  1       -1 0.11918307E-01 0.39626337E+02</pdfrwt>
<totfact> 0.59751038E+02</totfact>
</mgrwt>
</event>
<event>
 5    1  0.8891499E-003  0.1004779E+03  0.7546771E-02  0.1373119E+00
          1   -1    0    0  501    0 -0.00000000000E+00  0.00000000000E+00  0.13554247428E+04  0.13554247428E+04  0.00000000000E+00 0. -1.
          2   -1    0    0  502    0  0.00000000000E+00 -0.00000000000E+00 -0.10613418524E+04  0.10613418524E+04  0.00000000000E+00 0. -1.
         25    1    1    2    0    0  0.33702698664E+02  0.99350471205E+02  0.13776151050E+03  0.21356409296E+03  0.12500000000E+03 0.  0.
          2    1    1    2  501    0 -0.68957066584E+02 -0.73429470760E+02  0.11771421586E+04  0.11814442966E+04  0.00000000000E+00 0. -1.
          1    1    1    2  502    0  0.35254367920E+02 -0.25921000445E+02 -0.10208207787E+04  0.10217582057E+04  0.00000000000E+00 0. -1.
<mgrwt>
<rscale>  0 0.66307760E+02</rscale>
<asrwt>0</asrwt>
<pdfrwt beam="2">  1        2 0.16328336E+00 0.43758070E+02</pdfrwt>
<pdfrwt beam="1">  1        1 0.20852688E+00 0.10047790E+03</pdfrwt>
<totfact> 0.35640197E+01</totfact>
</mgrwt>
</event>
<event>
 5    1  0.8891499E-003  0.4368431E+03  0.7546771E-02  0.1277747E+00
         -2   -1    0    0    0  501 -0.00000000000E+00  0.00000000000E+00  0.38612382635E+03  0.38612382635E+03  0.00000000000E+00 0.  1.
          2   -1    0    0  502    0  0.00000000000E+00 -0.00000000000E+00 -0.11012911527E+04  0.11012911527E+04  0.00000000000E+00 0. -1.
         25    1    1    2    0    0 -0.36051981234E+03 -0.22602793258E+03 -0.44185210480E+03  0.62603629600E+03  0.12500000000E+03 0.  0.
          1    1    1    2  502    0  0.37524528823E+03  0.24428362635E+03 -0.47823115300E+03  0.65512483707E+03  0.00000000000E+00 0. -1.
         -1    1    1    2    0  501 -0.14725475889E+02 -0.18255693776E+02  0.20491593148E+03  0.20625384595E+03  0.00000000000E+00 0.  1.
<mgrwt>
<rscale>  0 0.10122205E+03</rscale>
<asrwt>0</asrwt>
<pdfrwt beam="2">  1        2 0.16942941E+00 0.43684314E+03</pdfrwt>
<pdfrwt beam="1">  1       -2 0.59403667E-01 0.23454424E+02</pdfrwt>
<totfact> 0.61382290E+01</totfact>
</mgrwt>
</event>
<event>
 5    1  0.8891499E-003  0.5331042E+02  0.7546771E-02  0.1439656E+00
          1   -1    0    0  502    0  0.00000000000E+00  0.00000000000E+00  0.20207043504E+04  0.20207043504E+04  0.00000000000E+00 0. -1.
         -1   -1    0    0    0  501 -0.00000000000E+00 -0.00000000000E+00 -0.38602083258E+02  0.38602083258E+02  0.00000000000E+00 0.  1.
         25    1    1    2    0    0 -0.57083091877E+02  0.39163430626E+02  0.51972130630E+03  0.53900602028E+03  0.12500000000E+03 0.  0.
          2    1    1    2  502    0  0.44848524495E+01 -0.48716951496E+02  0.14659091555E+04  0.14667253006E+04  0.00000000000E+00 0. -1.
         -2    1    1    2    0  501  0.52598239428E+02  0.95535208696E+01 -0.35281946477E+01  0.53575112780E+02  0.00000000000E+00 0.  1.
<mgrwt>
<rscale>  0 0.51069591E+02</rscale>
<asrwt>0</asrwt>
<pdfrwt beam="1">  1        1 0.31087751E+00 0.48922952E+02</pdfrwt>
<pdfrwt beam="2">  1       -1 0.59387836E-02 0.53310420E+02</pdfrwt>
<totfact> 0.47801897E+02</totfact>
</mgrwt>
</event>
<event>
 5    1  0.8891499E-003  0.2995539E+02  0.7546771E-02  0.1631395E+00
          2   -1    0    0  502    0  0.00000000000E+00  0.00000000000E+00  0.55714287054E+03  0.55714287054E+03  0.00000000000E+00 0. -1.
          1   -1    0    0  501    0 -0.00000000000E+00 -0.00000000000E+00 -0.77953068190E+02  0.77953068190E+02  0.00000000000E+00 0. -1.
         25    1    1    2    0    0  0.19185073646E+02  0.28585195732E+02  0.42688597630E+03  0.44614102840E+03  0.12500000000E+03 0.  0.
          2    1    1    2  501    0  0.10833316823E+02 -0.22176393522E+02 -0.64039288640E+02  0.68630777881E+02  0.00000000000E+00 0. -1.
          1    1    1    2  502    0 -0.30018390470E+02 -0.64088022104E+01  0.11634311469E+03  0.12032413244E+03  0.00000000000E+00 0. -1.
<mgrwt>
<rscale>  0 0.27190620E+02</rscale>
<asrwt>0</asrwt>
<pdfrwt beam="1">  1        2 0.85714285E-01 0.29955389E+02</pdfrwt>
<pdfrwt beam="2">  1        1 0.11992780E-01 0.24681029E+02</pdfrwt>
<totfact> 0.33654268E+03</totfact>
</mgrwt>
</event>
<event>
 5    1  0.8891499E-003  0.7928329E+02  0.7546771E-02  0.1331436E+00
         -2   -1    0    0    0  501 -0.00000000000E+00  0.00000000000E+00  0.29772076461E+03  0.29772076461E+03  0.00000000000E+00 0.  1.
          2   -1    0    0  502    0  0.00000000000E+00 -0.00000000000E+00 -0.33215663942E+03  0.33215663942E+03  0.00000000000E+00 0. -1.
         25    1    1    2    0    0 -0.17781830697E+02 -0.10349201309E+03  0.10668751304E+03  0.19502311585E+03  0.12500000000E+03 0.  0.
          3    1    1    2  502    0 -0.49772275452E+02  0.61713537584E+02 -0.27114073229E+03  0.28249448991E+03  0.00000000000E+00 0. -1.
         -1    1    1    2    0  501  0.67554106149E+02  0.41778475507E+02  0.13001734444E+03  0.15235979827E+03  0.00000000000E+00 0.  1.
<mgrwt>
<rscale>  0 0.79165641E+02</rscale>
<asrwt>0</asrwt>
<pdfrwt beam="2">  1        2 0.51101021E-01 0.79283290E+02</pdfrwt>
<pdfrwt beam="1">  1       -2 0.45803195E-01 0.79048167E+02</pdfrwt>
<totfact> 0.44848486E+02</totfact>
</mgrwt>
</event>
<event>
 5    1  0.8891499E-003  0.6158106E+02  0.7546771E-02  0.1433757E+00
         -1   -1    0    0    0  501 -0.00000000000E+00  0.00000000000E+00  0.62955585030E+03  0.62955585030E+03  0.00000000000E+00 0.  1.
          1   -1    0    0  502    0  0.00000000000E+00 -0.00000000000E+00 -0.51813245360E+03  0.51813245360E+03  0.00000000000E+00 0. -1.
         25    1    1    2    0    0  0.85644789322E+01 -0.31443119095E+02 -0.13825030122E+03  0.18920931749E+03  0.12500000000E+03 0.  0.
          2    1    1    2  502    0 -0.37682520122E+02 -0.23235795895E+02 -0.35142199880E+03  0.35419951408E+03  0.00000000000E+00 0. -1.
         -2    1    1    2    0  501  0.29118041190E+02  0.54678914991E+02  0.60109569672E+03  0.60427947233E+03  0.00000000000E+00 0.  1.
<mgrwt>
<rscale>  0 0.52213242E+02</rscale>
<asrwt>0</asrwt>
<pdfrwt beam="2">  1        1 0.79712685E-01 0.44270470E+02</pdfrwt>
<pdfrwt beam="1">  1       -1 0.96854746E-01 0.61581065E+02</pdfrwt>
<totfact> 0.52457075E+01</totfact>
</mgrwt>
</event>
<event>
 5    1  0.8891499E-003  0.1680081E+03  0.7546771E-02  0.1281592E+00
          1   -1    0    0  502    0  0.00000000000E+00  0.00000000000E+00  0.57438189572E+03  0.57438189572E+03  0.00000000000E+00 0. -1.
         -1   -1    0    0    0  501 -0.00000000000E+00 -0.00000000000E+00 -0.25040281069E+03  0.25040281069E+03  0.00000000000E+00 0.  1.
         25    1    1    2    0    0 -0.83796335984E+01 -0.21559358116E+03  0.13535177203E+03  0.28371801615E+03  0.12500000000E+03 0.  0.
          2    1    1    2  502    0  0.71419946318E+01  0.15681403041E+03  0.34227475114E+03  0.37655498070E+03  0.00000000000E+00 0. -1.
         -2    1    1    2    0  501  0.12376389666E+01  0.58779550746E+02 -0.15364743814E+03  0.16451170956E+03  0.00000000000E+00 0.  1.
<mgrwt>
<rscale>  0 0.99386252E+02</rscale>
<asrwt>0</asrwt>
<pdfrwt beam="1">  1        1 0.88366445E-01 0.16800806E+03</pdfrwt>
<pdfrwt beam="2">  1       -1 0.38523509E-01 0.58792579E+02</pdfrwt>
<totfact> 0.25080044E+02</totfact>
</mgrwt>
</event>
<event>
 5    1  0.8891499E-003  0.2057772E+03  0.7546771E-02  0.1184786E+00
         -2   -1    0    0    0  501 -0.00000000000E+00  0.00000000000E+00  0.83982186749E+02  0.83982186749E+02  0.00000000000E+00 0.  1.
          2   -1    0    0  502    0  0.00000000000E+00 -0.00000000000E+00 -0.17380962501E+04  0.17380962501E+04  0.00000000000E+00 0. -1.
         25    1    1    2    0    0  0.17991826562E+03  0.52448831188E+01 -0.32551536128E+03  0.39240711198E+03  0.12500000000E+03 0.  0.
          1    1    1    2  502    0  0.23413280721E+02  0.12780410714E+03 -0.10581378648E+04  0.10660852745E+04  0.00000000000E+00 0. -1.
         -1    1    1    2    0  501 -0.20333154634E+03 -0.13304899026E+03 -0.27046083727E+03  0.36358605040E+03  0.00000000000E+00 0.  1.
<mgrwt>
<rscale>  0 0.16351404E+03</rscale>
<asrwt>0</asrwt>
<pdfrwt beam="2">  1        2 0.26739942E+00 0.12993103E+03</pdfrwt>
<pdfrwt beam="1">  1       -2 0.12920337E-01 0.20577719E+03</pdfrwt>
<totfact> 0.47299235E+02</totfact>
</mgrwt>
</event>
<event>
 5    1  0.8891499E-003  0.1532496E+03  0.7546771E-02  0.1277636E+00
         -2   -1    0    0    0  501 -0.00000000000E+00  0.00000000000E+00  0.21487127012E+02  0.21487127012E+02  0.00000000000E+00 0.  1.
          2   -1    0    0  502    0  0.00000000000E+00 -0.00000000000E+00 -0.25000400904E+04  0.25000400904E+04  0.00000000000E+00 0. -1.
         25    1    1    2    0    0 -0.17412429943E+03  0.29011958325E+02 -0.12899781520E+04  0.13079868494E+04  0.12500000000E+03 0.  0.
          1    1    1    2  502    0  0.47644892117E+02  0.47004076463E+02 -0.69933989625E+03  0.70253520157E+03  0.00000000000E+00 0. -1.
         -1    1    1    2    0  501  0.12647940732E+03 -0.76016034788E+02 -0.48923491512E+03  0.51100516650E+03  0.00000000000E+00 0.  1.
<mgrwt>
<rscale>  0 0.10127565E+03</rscale>
<asrwt>0</asrwt>
<pdfrwt beam="2">  1        2 0.38462131E+00 0.66928461E+02</pdfrwt>
<pdfrwt beam="1">  1       -2 0.33057139E-02 0.15324956E+03</pdfrwt>
<totfact> 0.16709457E+03</totfact>
</mgrwt>
</event>
<event>
 5    1  0.8891499E-003  0.7230084E+02  0.7546771E-02  0.1371750E+00
          1   -1    0    0  502    0  0.00000000000E+00  0.00000000000E+00  0.56266369155E+03  0.56266369155E+03  0.00000000000E+00 0. -1.
         -3   -1    0    0    0  501 -0.00000000000E+00 -0.00000000000E+00 -0.13452833886E+03  0.13452833886E+03  0.00000000000E+00 0.  1.
         25    1    1    2    0    0  0.10451680240E+03 -0.75752145697E+02  0.26459452512E+03  0.31983966653E+03  0.12500000000E+03 0.  0.
          2    1    1    2  502    0 -0.41260224387E+02  0.45608046357E+02  0.25490034175E+03  0.26221495806E+03  0.00000000000E+00 0. -1.
         -2    1    1    2    0  501 -0.63256578016E+02  0.30144099340E+02 -0.91359514173E+02  0.11513740581E+03  0.00000000000E+00 0.  1.
<mgrwt>
<rscale>  0 0.66683196E+02</rscale>
<asrwt>0</asrwt>
<pdfrwt beam="1">  1        1 0.86563643E-01 0.61502033E+02</pdfrwt>
<pdfrwt beam="2">  1       -3 0.20696668E-01 0.72300840E+02</pdfrwt>
<totfact> 0.42233138E+02</totfact>
</mgrwt>
</event>
<event>
 5    1  0.8891499E-003  0.8807543E+02  0.7546771E-02  0.1332829E+00
          2   -1    0    0  502    0  0.00000000000E+00  0.00000000000E+00  0.83075042037E+03  0.83075042037E+03  0.00000000000E+00 0. -1.
          1   -1    0    0  501    0 -0.00000000000E+00 -0.00000000000E+00 -0.64733449461E+03  0.64733449461E+03  0.00000000000E+00 0. -1.
         25    1    1    2    0    0  0.13153840481E+02 -0.31912693800E+02  0.13425798430E+03  0.18665918111E+03  0.12500000000E+03 0.  0.
          2    1    1    2  501    0  0.36671018980E+02  0.81497069552E+02 -0.61605797695E+03  0.62250619832E+03  0.00000000000E+00 0. -1.
          1    1    1    2  502    0 -0.49824859461E+02 -0.49584375752E+02  0.66521591841E+03  0.66891953555E+03  0.00000000000E+00 0. -1.
<mgrwt>
<rscale>  0 0.78683539E+02</rscale>
<asrwt>0</asrwt>
<pdfrwt beam="1">  1        2 0.12780776E+00 0.70293150E+02</pdfrwt>
<pdfrwt beam="2">  1        1 0.99589921E-01 0.88075428E+02</pdfrwt>
<totfact> 0.16079271E+02</totfact>
</mgrwt>
</event>
<event>
 5    1  0.8891499E-003  0.1118819E+03  0.7546771E-02  0.1308623E+00
         -1   -1    0    0    0  501 -0.00000000000E+00  0.00000000000E+00  0.26554618311E+03  0.26554618311E+03  0.00000000000E+00 0.  1.
          1   -1    0    0  502    0  0.00000000000E+00 -0.00000000000E+00 -0.26286886101E+03  0.26286886101E+03  0.00000000000E+00 0. -1.
         25    1    1    2    0    0 -0.97819231378E+02 -0.13607554605E+03 -0.38294116301E+02  0.21254786662E+03  0.12500000000E+03 0.  0.
          2    1    1    2  502    0  0.51323956615E+02  0.85527918318E+02 -0.11091864050E+03  0.14917143877E+03  0.00000000000E+00 0. -1.
         -2    1    1    2    0  501  0.46495274763E+02  0.50547627731E+02  0.15189007890E+03  0.16669573874E+03  0.00000000000E+00 0.  1.
<mgrwt>
<rscale>  0 0.87658378E+02</rscale>
<asrwt>0</asrwt>
<pdfrwt beam="2">  1        1 0.40441363E-01 0.11188188E+03</pdfrwt>
<pdfrwt beam="1">  1       -1 0.40853259E-01 0.68679497E+02</pdfrwt>
<totfact> 0.61552327E+02</totfact>
</mgrwt>
</event>
<event>
 5    1  0.8891499E-003  0.7445177E+02  0.7546771E-02  0.1362663E+00
          2   -1    0    0  502    0  0.00000000000E+00  0.00000000000E+00  0.25038700110E+04  0.25038700110E+04  0.00000000000E+00 0. -1.
         -2   -1    0    0    0  501 -0.00000000000E+00 -0.00000000000E+00 -0.10651834810E+03  0.10651834810E+03  0.00000000000E+00 0.  1.
         25    1    1    2    0    0  0.79518368837E+01  0.69749661032E+02  0.17809291633E+03  0.22862706264E+03  0.12500000000E+03 0.  0.
          1    1    1    2  502    0  0.54051658271E+02 -0.52303117027E+02  0.22870285276E+04  0.22882649942E+04  0.00000000000E+00 0. -1.
         -1    1    1    2    0  501 -0.62003495155E+02 -0.17446544005E+02 -0.67769781031E+02  0.93496302227E+02  0.00000000000E+00 0.  1.
<mgrwt>
<rscale>  0 0.69249802E+02</rscale>
<asrwt>0</asrwt>
<pdfrwt beam="1">  1        2 0.38521073E+00 0.74451769E+02</pdfrwt>
<pdfrwt beam="2">  1       -2 0.16387440E-01 0.64411298E+02</pdfrwt>
<totfact> 0.13179678E+02</totfact>
</mgrwt>
</event>
<event>
 5    1  0.8891499E-003  0.8034317E+02  0.7546771E-02  0.1449439E+00
          2   -1    0    0  502    0  0.00000000000E+00  0.00000000000E+00  0.15185242134E+04  0.15185242134E+04  0.00000000000E+00 0. -1.
          1   -1    0    0  501    0 -0.00000000000E+00 -0.00000000000E+00 -0.66308148135E+03  0.66308148135E+03  0.00000000000E+00 0. -1.
         25    1    1    2    0    0  0.40919272032E+02 -0.35036074397E+02  0.39617249157E+02  0.14176191225E+03  0.12500000000E+03 0.  0.
          2    1    1    2  501    0  0.29891975700E+02 -0.42155941965E+01 -0.61048818822E+03  0.61123410360E+03  0.00000000000E+00 0. -1.
          1    1    1    2  502    0 -0.70811247732E+02  0.39251668593E+02  0.14263136711E+04  0.14286096789E+04  0.00000000000E+00 0. -1.
<mgrwt>
<rscale>  0 0.49248160E+02</rscale>
<asrwt>0</asrwt>
<pdfrwt beam="1">  1        2 0.23361911E+00 0.80343173E+02</pdfrwt>
<pdfrwt beam="2">  1        1 0.10201254E+00 0.30187770E+02</pdfrwt>
<totfact> 0.67090167E+01</totfact>
</mgrwt>
</event>
<event>
 5    1  0.8891499E-003  0.4741090E+02  0.7546771E-02  0.1568645E+00
          2   -1    0    0  502    0  0.00000000000E+00  0.00000000000E+00  0.10478470667E+03  0.10478470667E+03  0.00000000000E+00 0. -1.
         -2   -1    0    0    0  501 -0.00000000000E+00 -0.00000000000E+00 -0.14544108707E+03  0.14544108707E+03  0.00000000000E+00 0.  1.
         25    1    1    2    0    0 -0.61698467677E+02 -0.29100089749E+02  0.97840770489E+01  0.14273837711E+03  0.12500000000E+03 0.  0.
          1    1    1    2  502    0  0.20333325712E+02  0.10203333758E+02  0.15396994837E+02  0.27470340447E+02  0.00000000000E+00 0. -1.
         -1    1    1    2    0  501  0.41365141965E+02  0.18896755991E+02 -0.65837452281E+02  0.80017076175E+02  0.00000000000E+00 0.  1.
<mgrwt>
<rscale>  0 0.32841851E+02</rscale>
<asrwt>0</asrwt>
<pdfrwt beam="1">  1        2 0.16120724E-01 0.22749773E+02</pdfrwt>
<pdfrwt beam="2">  1       -2 0.22375552E-01 0.47410900E+02</pdfrwt>
<totfact> 0.51310182E+03</totfact>
</mgrwt>
</event>
<event>
 5    1  0.8891499E-003  0.3303913E+02  0.7546771E-02  0.1635654E+00
          2   -1    0    0  502    0  0.00000000000E+00  0.00000000000E+00  0.14103116039E+04  0.14103116039E+04  0.00000000000E+00 0. -1.
          1   -1    0    0  501    0 -0.00000000000E+00 -0.00000000000E+00 -0.70550641008E+02  0.70550641008E+02  0.00000000000E+00 0. -1.
         25    1    1    2    0    0 -0.21161244238E+02 -0.48228267947E+02  0.19372152306E+03  0.23648846184E+03  0.12500000000E+03 0.  0.
          2    1    1    2  501    0  0.66889958863E+01  0.31878733404E+02 -0.43661141427E+02  0.54472851771E+02  0.00000000000E+00 0. -1.
          1    1    1    2  502    0  0.14472248352E+02  0.16349534543E+02  0.11897005813E+04  0.11899009313E+04  0.00000000000E+00 0. -1.
<mgrwt>
<rscale>  0 0.26858868E+02</rscale>
<asrwt>0</asrwt>
<pdfrwt beam="1">  1        2 0.21697099E+00 0.21834680E+02</pdfrwt>
<pdfrwt beam="2">  1        1 0.10853946E-01 0.33039127E+02</pdfrwt>
<totfact> 0.12734539E+03</totfact>
</mgrwt>
</event>
<event>
 5    1  0.8891499E-003  0.1065627E+03  0.7546771E-02  0.1349369E+00
          2   -1    0    0  502    0  0.00000000000E+00  0.00000000000E+00  0.14119951789E+04  0.14119951789E+04  0.00000000000E+00 0. -1.
          1   -1    0    0  501    0 -0.00000000000E+00 -0.00000000000E+00 -0.11081223267E+04  0.11081223267E+04  0.00000000000E+00 0. -1.
         25    1    1    2    0    0 -0.85734594390E+02 -0.10713278598E+03  0.51730836086E+03  0.54960057744E+03  0.12500000000E+03 0.  0.
          2    1    1    2  501    0  0.11483395594E+01  0.50341556502E+02 -0.10884383954E+04  0.10896025567E+04  0.00000000000E+00 0. -1.
          3    1    1    2  502    0  0.84586254830E+02  0.56791229474E+02  0.87500288671E+03  0.88091437155E+03  0.00000000000E+00 0. -1.
<mgrwt>
<rscale>  0 0.73252504E+02</rscale>
<asrwt>0</asrwt>
<pdfrwt beam="1">  1        2 0.21723003E+00 0.10656273E+03</pdfrwt>
<pdfrwt beam="2">  1        1 0.17048036E+00 0.50354652E+02</pdfrwt>
<totfact> 0.33707568E+01</totfact>
</mgrwt>
</event>
<event>
 5    1  0.8891499E-003  0.6144573E+02  0.7546771E-02  0.1442543E+00
          2   -1    0    0  502    0  0.00000000000E+00  0.00000000000E+00  0.96372014924E+03  0.96372014924E+03  0.00000000000E+00 0. -1.
          1   -1    0    0  501    0 -0.00000000000E+00 -0.00000000000E+00 -0.68264802783E+03  0.68264802783E+03  0.00000000000E+00 0. -1.
         25    1    1    2    0    0 -0.26083410303E+02 -0.17899896058E+02 -0.17333935233E+03  0.21603768569E+03  0.12500000000E+03 0.  0.
          2    1    1    2  501    0  0.64855783740E+02  0.29872797504E+01 -0.48533901640E+03  0.48966228910E+03  0.00000000000E+00 0. -1.
          1    1    1    2  502    0 -0.38772373437E+02  0.14912616308E+02  0.93975049014E+03  0.94066820229E+03  0.00000000000E+00 0. -1.
<mgrwt>
<rscale>  0 0.50522649E+02</rscale>
<asrwt>0</asrwt>
<pdfrwt beam="1">  1        2 0.14826464E+00 0.41541342E+02</pdfrwt>
<pdfrwt beam="2">  1        1 0.10502277E+00 0.61445730E+02</pdfrwt>
<totfact> 0.12902154E+02</totfact>
</mgrwt>
</event>
<event>
 5    1  0.8891499E-003  0.6522001E+02  0.7546771E-02  0.1466966E+00
          1   -1    0    0  501    0 -0.00000000000E+00  0.00000000000E+00  0.20509960617E+03  0.20509960617E+03  0.00000000000E+00 0. -1.
          2   -1    0    0  502    0  0.00000000000E+00 -0.00000000000E+00 -0.12756458179E+04  0.12756458179E+04  0.00000000000E+00 0. -1.
         25    1    1    2    0    0  0.67736622044E+02 -0.68582903099E+02 -0.26371919638E+03  0.30735106817E+03  0.12500000000E+03 0.  0.
          2    1    1    2  501    0 -0.21549544306E+02  0.24636963142E+02  0.18078628654E+03  0.18372545881E+03  0.00000000000E+00 0. -1.
          1    1    1    2  502    0 -0.46187077738E+02  0.43945939957E+02 -0.98761330189E+03  0.98966889708E+03  0.00000000000E+00 0. -1.
<mgrwt>
<rscale>  0 0.46203469E+02</rscale>
<asrwt>0</asrwt>
<pdfrwt beam="2">  1        2 0.19625321E+00 0.65220012E+02</pdfrwt>
<pdfrwt beam="1">  1        1 0.31553785E-01 0.32731679E+02</pdfrwt>
<totfact> 0.37199699E+02</totfact>
</mgrwt>
</event>
<event>
 5    1  0.8891499E-003  0.9991290E+02  0.7546771E-02  0.1476098E+00
          1   -1    0    0  501    0 -0.00000000000E+00  0.00000000000E+00  0.22341937151E+02  0.22341937151E+02  0.00000000000E+00 0. -1.
          2   -1    0    0  502    0  0.00000000000E+00 -0.00000000000E+00 -0.33297393556E+04  0.33297393556E+04  0.00000000000E+00 0. -1.
         25    1    1    2    0    0  0.10045053313E+03  0.80341604525E+01 -0.92613463776E+03  0.93994958620E+03  0.12500000000E+03 0.  0.
          2    1    1    2  501    0 -0.11207893586E+01 -0.19984655619E+02  0.74256454783E+01  0.21349071168E+02  0.00000000000E+00 0. -1.
          1    1    1    2  502    0 -0.99329743774E+02  0.11950495166E+02 -0.23886884262E+04  0.23907826354E+04  0.00000000000E+00 0. -1.
<mgrwt>
<rscale>  0 0.44719823E+02</rscale>
<asrwt>0</asrwt>
<pdfrwt beam="2">  1        2 0.51226762E+00 0.99912902E+02</pdfrwt>
<pdfrwt beam="1">  1        1 0.34372209E-02 0.20016059E+02</pdfrwt>
<totfact> 0.43383164E+02</totfact>
</mgrwt>
</event>
<event>
 5    1  0.8891499E-003  0.6608162E+02  0.7546771E-02  0.1430189E+00
          1   -1    0    0  501    0 -0.00000000000E+00  0.00000000000E+00  0.14774616730E+04  0.14774616730E+04  0.00000000000E+00 0. -1.
          2   -1    0    0  502    0  0.00000000000E+00 -0.00000000000E+00 -0.19250087107E+03  0.19250087107E+03  0.00000000000E+00 0. -1.
         25    1    1    2    0    0 -0.38944231268E+02  0.93062151041E+02  0.19580926424E+03  0.25326564131E+03  0.12500000000E+03 0.  0.
          2    1    1    2  501    0  0.74106882487E+01 -0.64743187705E+02  0.12493186161E+04  0.12510170276E+04  0.00000000000E+00 0. -1.
          1    1    1    2  502    0  0.31533543020E+02 -0.28318963336E+02 -0.16016707845E+03  0.16567987518E+03  0.00000000000E+00 0. -1.
<mgrwt>
<rscale>  0 0.52922061E+02</rscale>
<asrwt>0</asrwt>
<pdfrwt beam="2">  1        2 0.29615520E-01 0.42383110E+02</pdfrwt>
<pdfrwt beam="1">  1        1 0.22730179E+00 0.66081619E+02</pdfrwt>
<totfact> 0.19629206E+02</totfact>
</mgrwt>
</event>
<event>
 5    1  0.8891499E-003  0.9990600E+02  0.7546771E-02  0.1326046E+00
         -2   -1    0    0    0  501 -0.00000000000E+00  0.00000000000E+00  0.71924088863E+02  0.71924088863E+02  0.00000000000E+00 0.  1.
          2   -1    0    0  502    0  0.00000000000E+00 -0.00000000000E+00 -0.44691502457E+04  0.44691502457E+04  0.00000000000E+00 0. -1.
         25    1    1    2    0    0  0.22973829765E+02 -0.32538621050E+02 -0.16159990029E+03  0.20814919286E+03  0.12500000000E+03 0.  0.
          1    1    1    2  502    0 -0.84063631168E+02  0.56940474065E+02 -0.42611533234E+04  0.42623627905E+04  0.00000000000E+00 0. -1.
         -1    1    1    2    0  501  0.61089801403E+02 -0.24401853014E+02  0.25527066906E+02  0.70562351228E+02  0.00000000000E+00 0.  1.
<mgrwt>
<rscale>  0 0.81068641E+02</rscale>
<asrwt>0</asrwt>
<pdfrwt beam="2">  1        2 0.68756168E+00 0.99905996E+02</pdfrwt>
<pdfrwt beam="1">  1       -2 0.11065243E-01 0.65783085E+02</pdfrwt>
<totfact> 0.11917892E+01</totfact>
</mgrwt>
</event>
<event>
 5    1  0.8891499E-003  0.4600090E+02  0.7546771E-02  0.1561809E+00
          2   -1    0    0  502    0  0.00000000000E+00  0.00000000000E+00  0.12556799292E+04  0.12556799292E+04  0.00000000000E+00 0. -1.
          1   -1    0    0  501    0 -0.00000000000E+00 -0.00000000000E+00 -0.56854511746E+03  0.56854511746E+03  0.00000000000E+00 0. -1.
         25    1    1    2    0    0 -0.19925293637E+02  0.18886932780E+02  0.68611987373E+02  0.14521135757E+03  0.12500000000E+03 0.  0.
          2    1    1    2  501    0 -0.24052993297E+02 -0.45425490921E+01 -0.52949688369E+03  0.53006238413E+03  0.00000000000E+00 0. -1.
          3    1    1    2  502    0  0.43978286934E+02 -0.14344383688E+02  0.11480197081E+04  0.11489513050E+04  0.00000000000E+00 0. -1.
<mgrwt>
<rscale>  0 0.33556195E+02</rscale>
<asrwt>0</asrwt>
<pdfrwt beam="1">  1        2 0.19318153E+00 0.46000898E+02</pdfrwt>
<pdfrwt beam="2">  1        1 0.87468480E-01 0.24478179E+02</pdfrwt>
<totfact> 0.11687658E+02</totfact>
</mgrwt>
</event>
<event>
 5    1  0.8891499E-003  0.6503113E+02  0.7546771E-02  0.1395940E+00
         -2   -1    0    0    0  501 -0.00000000000E+00  0.00000000000E+00  0.90318651410E+02  0.90318651410E+02  0.00000000000E+00 0.  1.
          2   -1    0    0  502    0  0.00000000000E+00 -0.00000000000E+00 -0.11103635166E+04  0.11103635166E+04  0.00000000000E+00 0. -1.
         25    1    1    2    0    0  0.26936900374E+02  0.35038759261E+01 -0.39728757397E+03  0.41737308272E+03  0.12500000000E+03 0.  0.
          1    1    1    2  502    0 -0.48559592705E+02 -0.55374843416E+02 -0.69099517533E+03  0.69490915928E+03  0.00000000000E+00 0. -1.
         -1    1    1    2    0  501  0.21622692330E+02  0.51870967490E+02  0.68237884104E+02  0.88399926012E+02  0.00000000000E+00 0.  1.
<mgrwt>
<rscale>  0 0.60453079E+02</rscale>
<asrwt>0</asrwt>
<pdfrwt beam="2">  1        2 0.17082515E+00 0.65031128E+02</pdfrwt>
<pdfrwt beam="1">  1       -2 0.13895178E-01 0.56197314E+02</pdfrwt>
<totfact> 0.87929630E+02</totfact>
</mgrwt>
</event>
<event>
 5    1  0.8891499E-003  0.1475206E+03  0.7546771E-02  0.1388395E+00
          1   -1    0    0  501    0 -0.00000000000E+00  0.00000000000E+00  0.11642446981E+04  0.11642446981E+04  0.00000000000E+00 0. -1.
          2   -1    0    0  502    0  0.00000000000E+00 -0.00000000000E+00 -0.10056408749E+03  0.10056408749E+03  0.00000000000E+00 0. -1.
         25    1    1    2    0    0  0.17134210590E+01 -0.17049569649E+03  0.22157415358E+03  0.30625450832E+03  0.12500000000E+03 0.  0.
          2    1    1    2  501    0 -0.43060842345E+01  0.14430699341E+03  0.89121814062E+03  0.90283599002E+03  0.00000000000E+00 0. -1.
          1    1    1    2  502    0  0.25926631755E+01  0.26188703080E+02 -0.49111683577E+02  0.55718287259E+02  0.00000000000E+00 0. -1.
<mgrwt>
<rscale>  0 0.62307773E+02</rscale>
<asrwt>0</asrwt>
<pdfrwt beam="2">  1        2 0.15471399E-01 0.26316726E+02</pdfrwt>
<pdfrwt beam="1">  1        1 0.17911456E+00 0.14752057E+03</pdfrwt>
<totfact> 0.57618563E+02</totfact>
</mgrwt>
</event>
<event>
 5    1  0.8891499E-003  0.5673950E+02  0.7546771E-02  0.1413328E+00
          1   -1    0    0  502    0  0.00000000000E+00  0.00000000000E+00  0.28364523605E+03  0.28364523605E+03  0.00000000000E+00 0. -1.
         -1   -1    0    0    0  501 -0.00000000000E+00 -0.00000000000E+00 -0.20298541762E+03  0.20298541762E+03  0.00000000000E+00 0.  1.
         25    1    1    2    0    0 -0.23410578840E+02 -0.32673085161E+02  0.53276182100E+02  0.14170016681E+03  0.12500000000E+03 0.  0.
          2    1    1    2  502    0 -0.28538790112E+02  0.54054946920E+02  0.17586073753E+03  0.18618109150E+03  0.00000000000E+00 0. -1.
         -2    1    1    2    0  501  0.51949368952E+02 -0.21381861758E+02 -0.14847710120E+03  0.15874939536E+03  0.00000000000E+00 0.  1.
<mgrwt>
<rscale>  0 0.56457844E+02</rscale>
<asrwt>0</asrwt>
<pdfrwt beam="1">  1        1 0.43637729E-01 0.56739501E+02</pdfrwt>
<pdfrwt beam="2">  1       -1 0.31228526E-01 0.56177584E+02</pdfrwt>
<totfact> 0.87682356E+02</totfact>
</mgrwt>
</event>
<event>
 5    1  0.8891499E-003  0.9236303E+02  0.7546771E-02  0.1323852E+00
          1   -1    0    0  501    0 -0.00000000000E+00  0.00000000000E+00  0.31934173805E+04  0.31934173805E+04  0.00000000000E+00 0. -1.
          2   -1    0    0  502    0  0.00000000000E+00 -0.00000000000E+00 -0.30742566482E+02  0.30742566482E+02  0.00000000000E+00 0. -1.
         25    1    1    2    0    0  0.27118111795E+02  0.61324248785E+01  0.32370697309E+03  0.34811521520E+03  0.12500000000E+03 0.  0.
          2    1    1    2  501    0 -0.95054021181E+02  0.19335935161E+02  0.27822835038E+04  0.27839738937E+04  0.00000000000E+00 0. -1.
          1    1    1    2  502    0  0.67935909386E+02 -0.25468360040E+02  0.56684337100E+02  0.92070838052E+02  0.00000000000E+00 0. -1.
<mgrwt>
<rscale>  0 0.81860901E+02</rscale>
<asrwt>0</asrwt>
<pdfrwt beam="2">  1        2 0.47296281E-02 0.72552913E+02</pdfrwt>
<pdfrwt beam="1">  1        1 0.49129472E+00 0.92363034E+02</pdfrwt>
<totfact> 0.13005707E+02</totfact>
</mgrwt>
</event>
<event>
 5    1  0.8891499E-003  0.2365684E+03  0.7546771E-02  0.1243033E+00
          1   -1    0    0  501    0 -0.00000000000E+00  0.00000000000E+00  0.50613390678E+03  0.50613390678E+03  0.00000000000E+00 0. -1.
          2   -1    0    0  502    0  0.00000000000E+00 -0.00000000000E+00 -0.65763657246E+03  0.65763657246E+03  0.00000000000E+00 0. -1.
         25    1    1    2    0    0  0.18816813823E+03 -0.39619638097E+01 -0.59388958261E+02  0.23361291438E+03  0.12500000000E+03 0.  0.
          2    1    1    2  501    0 -0.24854532561E+03  0.11998012294E+02  0.37994953676E+03  0.45418100100E+03  0.00000000000E+00 0. -1.
          1    1    1    2  502    0  0.60377187386E+02 -0.80360484848E+01 -0.47206324418E+03  0.47597656386E+03  0.00000000000E+00 0. -1.
<mgrwt>
<rscale>  0 0.12003872E+03</rscale>
<asrwt>0</asrwt>
<pdfrwt beam="2">  1        2 0.10117486E+00 0.60909628E+02</pdfrwt>
<pdfrwt beam="1">  1        1 0.77866755E-01 0.23656841E+03</pdfrwt>
<totfact> 0.28720357E+02</totfact>
</mgrwt>
</event>
<event>
 5    1  0.8891499E-003  0.4308234E+02  0.7546771E-02  0.1558318E+00
          1   -1    0    0  501    0 -0.00000000000E+00  0.00000000000E+00  0.43293248952E+03  0.43293248952E+03  0.00000000000E+00 0. -1.
          2   -1    0    0  502    0  0.00000000000E+00 -0.00000000000E+00 -0.20761936145E+03  0.20761936145E+03  0.00000000000E+00 0. -1.
         25    1    1    2    0    0  0.67865428183E+02  0.11515423199E+02 -0.10845251508E+03  0.17923523465E+03  0.12500000000E+03 0.  0.
          2    1    1    2  501    0 -0.41149637935E+02 -0.12049716995E+02  0.39352560240E+03  0.39585463004E+03  0.00000000000E+00 0. -1.
          1    1    1    2  502    0 -0.26715790247E+02  0.53429379609E+00 -0.59759959244E+02  0.65461986276E+02  0.00000000000E+00 0. -1.
<mgrwt>
<rscale>  0 0.33929469E+02</rscale>
<asrwt>0</asrwt>
<pdfrwt beam="2">  1        2 0.31941440E-01 0.26721132E+02</pdfrwt>
<pdfrwt beam="1">  1        1 0.66604998E-01 0.43082339E+02</pdfrwt>
<totfact> 0.11866828E+03</totfact>
</mgrwt>
</event>
<event>
 5    1  0.8891499E-003  0.1691342E+03  0.7546771E-02  0.1267681E+00
         -2   -1    0    0    0  501 -0.00000000000E+00  0.00000000000E+00  0.13007575519E+04  0.13007575519E+04  0.00000000000E+00 0.  1.
          2   -1    0    0  502    0  0.00000000000E+00 -0.00000000000E+00 -0.48612400199E+03  0.48612400199E+03  0.00000000000E+00 0. -1.
         25    1    1    2    0    0  0.16181944495E+03  0.15925107594E+03 -0.15676005332E+02  0.25964817560E+03  0.12500000000E+03 0.  0.
          1    1    1    2  502    0 -0.11259903327E+03 -0.11417339131E+03 -0.32900283802E+03  0.36600132923E+03  0.00000000000E+00 0. -1.
         -1    1    1    2    0  501 -0.49220411679E+02 -0.45077684629E+02  0.11593123932E+04  0.11612320490E+04  0.00000000000E+00 0.  1.
<mgrwt>
<rscale>  0 0.10624758E+03</rscale>
<asrwt>0</asrwt>
<pdfrwt beam="2">  1        2 0.74788309E-01 0.16913422E+03</pdfrwt>
<pdfrwt beam="1">  1       -2 0.20011654E+00 0.66743139E+02</pdfrwt>
<totfact> 0.10370114E+01</totfact>
</mgrwt>
</event>
<event>
 5    1  0.8891499E-003  0.9577602E+02  0.7546771E-02  0.1358315E+00
          1   -1    0    0  501    0 -0.00000000000E+00  0.00000000000E+00  0.75924715510E+02  0.75924715510E+02  0.00000000000E+00 0. -1.
          2   -1    0    0  502    0  0.00000000000E+00 -0.00000000000E+00 -0.57795176312E+03  0.57795176312E+03  0.00000000000E+00 0. -1.
         25    1    1    2    0    0  0.18899250082E+02  0.69033691984E+02 -0.56673385552E+02  0.15478922738E+03  0.12500000000E+03 0.  0.
          2    1    1    2  501    0  0.51923010529E+02  0.96199676743E+00 -0.10505329964E+02  0.52983831664E+02  0.00000000000E+00 0. -1.
          1    1    1    2  502    0 -0.70822260610E+02 -0.69995688752E+02 -0.43484833209E+03  0.44610341958E+03  0.00000000000E+00 0. -1.
<mgrwt>
<rscale>  0 0.70525405E+02</rscale>
<asrwt>0</asrwt>
<pdfrwt beam="2">  1        2 0.88915654E-01 0.95776021E+02</pdfrwt>
<pdfrwt beam="1">  1        1 0.11680726E-01 0.51931921E+02</pdfrwt>
<totfact> 0.34630698E+03</totfact>
</mgrwt>
</event>
<event>
 5    1  0.8891499E-003  0.1974663E+03  0.7546771E-02  0.1326986E+00
         -2   -1    0    0    0  501 -0.00000000000E+00  0.00000000000E+00  0.33319077329E+03  0.33319077329E+03  0.00000000000E+00 0.  1.
          2   -1    0    0  502    0  0.00000000000E+00 -0.00000000000E+00 -0.60548093269E+03  0.60548093269E+03  0.00000000000E+00 0. -1.
         25    1    1    2    0    0 -0.17927115146E+03 -0.10698839457E+03  0.17788009931E+03  0.30141498312E+03  0.12500000000E+03 0.  0.
          1    1    1    2  502    0  0.14895396130E+02  0.29454536092E+02 -0.45426895584E+03  0.45546649357E+03  0.00000000000E+00 0. -1.
         -1    1    1    2    0  501  0.16437575533E+03  0.77533858480E+02  0.40986971305E+01  0.18179022930E+03  0.00000000000E+00 0.  1.
<mgrwt>
<rscale>  0 0.80732344E+02</rscale>
<asrwt>0</asrwt>
<pdfrwt beam="2">  1        2 0.93150911E-01 0.33006704E+02</pdfrwt>
<pdfrwt beam="1">  1       -2 0.51260120E-01 0.19746629E+03</pdfrwt>
<totfact> 0.19349483E+02</totfact>
</mgrwt>
</event>
<event>
 5    1  0.8891499E-003  0.7997593E+02  0.7546771E-02  0.1355538E+00
          1   -1    0    0  501    0 -0.00000000000E+00  0.00000000000E+00  0.50772836424E+03  0.50772836424E+03  0.00000000000E+00 0. -1.
          2   -1    0    0  502    0  0.00000000000E+00 -0.00000000000E+00 -0.82240415369E+03  0.82240415369E+03  0.00000000000E+00 0. -1.
         25    1    1    2    0    0 -0.45351461912E+02  0.28127222906E+01  0.10672173192E+03  0.17052622839E+03  0.12500000000E+03 0.  0.
          2    1    1    2  501    0 -0.48660375611E+00  0.63665090658E+02  0.36427407719E+03  0.36979600304E+03  0.00000000000E+00 0. -1.
          1    1    1    2  502    0  0.45838065668E+02 -0.66477812949E+02 -0.78567159856E+03  0.78981028650E+03  0.00000000000E+00 0. -1.
<mgrwt>
<rscale>  0 0.71357014E+02</rscale>
<asrwt>0</asrwt>
<pdfrwt beam="2">  1        2 0.12652372E+00 0.79975929E+02</pdfrwt>
<pdfrwt beam="1">  1        1 0.78112056E-01 0.63666950E+02</pdfrwt>
<totfact> 0.22513676E+02</totfact>
</mgrwt>
</event>
<event>
 5    1  0.8891499E-003  0.6872241E+02  0.7546771E-02  0.1405317E+00
         -2   -1    0    0    0  501 -0.00000000000E+00  0.00000000000E+00  0.42872097580E+02  0.42872097580E+02  0.00000000000E+00 0.  1.
          2   -1    0    0  502    0  0.00000000000E+00 -0.00000000000E+00 -0.24382186790E+04  0.24382186790E+04  0.00000000000E+00 0. -1.
         25    1    1    2    0    0  0.38998183175E+02  0.64937578792E+02 -0.82687654465E+03  0.83969492527E+03  0.12500000000E+03 0.  0.
          1    1    1    2  502    0 -0.49259502525E+02  0.34019780435E+01 -0.15714504225E+04  0.15722259706E+04  0.00000000000E+00 0. -1.
         -1    1    1    2    0  501  0.10261319350E+02 -0.68339556835E+02  0.29803857613E+01  0.69169880747E+02  0.00000000000E+00 0.  1.
<mgrwt>
<rscale>  0 0.58251996E+02</rscale>
<asrwt>0</asrwt>
<pdfrwt beam="2">  1        2 0.37511045E+00 0.49376837E+02</pdfrwt>
<pdfrwt beam="1">  1       -2 0.65957094E-02 0.68722405E+02</pdfrwt>
<totfact> 0.62231208E+02</totfact>
</mgrwt>
</event>
<event>
 5    1  0.8891499E-003  0.8824960E+02  0.7546771E-02  0.1452019E+00
         -2   -1    0    0    0  501 -0.00000000000E+00  0.00000000000E+00  0.28057486052E+02  0.28057486052E+02  0.00000000000E+00 0.  1.
          2   -1    0    0  502    0  0.00000000000E+00 -0.00000000000E+00 -0.43173383364E+04  0.43173383364E+04  0.00000000000E+00 0. -1.
         25    1    1    2    0    0 -0.10471509163E+03 -0.34774497170E+01 -0.10439673927E+04  0.10566315631E+04  0.12500000000E+03 0.  0.
          1    1    1    2  502    0  0.84324988601E+02  0.21124700570E+02 -0.32578617435E+04  0.32590213403E+04  0.00000000000E+00 0. -1.
         -1    1    1    2    0  501  0.20390103029E+02 -0.17647250853E+02  0.12548285779E+02  0.29742919161E+02  0.00000000000E+00 0.  1.
<mgrwt>
<rscale>  0 0.48782843E+02</rscale>
<asrwt>0</asrwt>
<pdfrwt beam="2">  1        2 0.66420525E+00 0.88249595E+02</pdfrwt>
<pdfrwt beam="1">  1       -2 0.43165406E-02 0.26966308E+02</pdfrwt>
<totfact> 0.60863927E+01</totfact>
</mgrwt>
</event>
<event>
 5    1  0.8891499E-003  0.5315314E+02  0.7546771E-02  0.1498444E+00
         -2   -1    0    0    0  501 -0.00000000000E+00  0.00000000000E+00  0.54078050525E+02  0.54078050525E+02  0.00000000000E+00 0.  1.
          2   -1    0    0  502    0  0.00000000000E+00 -0.00000000000E+00 -0.62967955349E+03  0.62967955349E+03  0.00000000000E+00 0. -1.
         25    1    1    2    0    0  0.20026000476E+01 -0.24890252218E+02 -0.18127252273E+03  0.22160384148E+03  0.12500000000E+03 0.  0.
          1    1    1    2  502    0  0.11707400991E+02 -0.29976330533E+02 -0.40356921750E+03  0.40485028955E+03  0.00000000000E+00 0. -1.
         -1    1    1    2    0  501 -0.13710001039E+02  0.54866582751E+02  0.92402372690E+01  0.57303472984E+02  0.00000000000E+00 0.  1.
<mgrwt>
<rscale>  0 0.41358717E+02</rscale>
<asrwt>0</asrwt>
<pdfrwt beam="2">  1        2 0.96873773E-01 0.32181417E+02</pdfrwt>
<pdfrwt beam="1">  1       -2 0.83197004E-02 0.53153142E+02</pdfrwt>
<totfact> 0.39604525E+03</totfact>
</mgrwt>
</event>
<event>
 5    1  0.8891499E-003  0.3023762E+02  0.7546771E-02  0.1618613E+00
          2   -1    0    0  502    0  0.00000000000E+00  0.00000000000E+00  0.12360177527E+04  0.12360177527E+04  0.00000000000E+00 0. -1.
          1   -1    0    0  501    0 -0.00000000000E+00 -0.00000000000E+00 -0.31712110895E+03  0.31712110895E+03  0.00000000000E+00 0. -1.
         25    1    1    2    0    0  0.76903320997E+01  0.46350981807E+02  0.51630226334E+03  0.53329221057E+03  0.12500000000E+03 0.  0.
          2    1    1    2  501    0  0.11662507644E+02 -0.23618903658E+02 -0.30774996249E+03  0.30887522741E+03  0.00000000000E+00 0. -1.
          1    1    1    2  502    0 -0.19352839743E+02 -0.22732078149E+02  0.71034434293E+03  0.71097142370E+03  0.00000000000E+00 0. -1.
<mgrwt>
<rscale>  0 0.28222326E+02</rscale>
<asrwt>0</asrwt>
<pdfrwt beam="1">  1        2 0.19015658E+00 0.30237620E+02</pdfrwt>
<pdfrwt beam="2">  1        1 0.48787863E-01 0.26341350E+02</pdfrwt>
<totfact> 0.24668210E+02</totfact>
</mgrwt>
</event>
<event>
 5    1  0.8891499E-003  0.1561566E+03  0.7546771E-02  0.1263341E+00
         -2   -1    0    0    0  501 -0.00000000000E+00  0.00000000000E+00  0.31877802587E+03  0.31877802587E+03  0.00000000000E+00 0.  1.
          2   -1    0    0  502    0  0.00000000000E+00 -0.00000000000E+00 -0.40608302477E+04  0.40608302477E+04  0.00000000000E+00 0. -1.
         25    1    1    2    0    0 -0.81475367149E+02  0.39788052221E+02 -0.23575075463E+04  0.23625596618E+04  0.12500000000E+03 0.  0.
          1    1    1    2  502    0 -0.32066351261E+02  0.68253791413E+02 -0.16804803328E+04  0.16821715073E+04  0.00000000000E+00 0. -1.
         -1    1    1    2    0  501  0.11354171841E+03 -0.10804184363E+03  0.29593565736E+03  0.33487710446E+03  0.00000000000E+00 0.  1.
<mgrwt>
<rscale>  0 0.10851698E+03</rscale>
<asrwt>0</asrwt>
<pdfrwt beam="2">  1        2 0.62474314E+00 0.75411080E+02</pdfrwt>
<pdfrwt beam="1">  1       -2 0.49042771E-01 0.15615658E+03</pdfrwt>
<totfact> 0.21355385E+00</totfact>
</mgrwt>
</event>
<event>
 5    1  0.8891499E-003  0.1972087E+03  0.7546771E-02  0.1263125E+00
          1   -1    0    0  501    0 -0.00000000000E+00  0.00000000000E+00  0.10161285543E+04  0.10161285543E+04  0.00000000000E+00 0. -1.
          2   -1    0    0  502    0  0.00000000000E+00 -0.00000000000E+00 -0.47623280550E+03  0.47623280550E+03  0.00000000000E+00 0. -1.
         25    1    1    2    0    0 -0.24139016887E+03 -0.17124516411E+02  0.20756364744E+03  0.34244726663E+03  0.12500000000E+03 0.  0.
          2    1    1    2  501    0  0.48515022620E+02  0.35029369442E+02  0.71685973797E+03  0.71935293706E+03  0.00000000000E+00 0. -1.
          1    1    1    2  502    0  0.19287514624E+03 -0.17904853031E+02 -0.38452763662E+03  0.43056115608E+03  0.00000000000E+00 0. -1.
<mgrwt>
<rscale>  0 0.10863178E+03</rscale>
<asrwt>0</asrwt>
<pdfrwt beam="2">  1        2 0.73266586E-01 0.19720865E+03</pdfrwt>
<pdfrwt beam="1">  1        1 0.15632747E+00 0.59839486E+02</pdfrwt>
<totfact> 0.15512459E+02</totfact>
</mgrwt>
</event>
<event>
 5    1  0.8891499E-003  0.9871837E+02  0.7546771E-02  0.1425382E+00
          2   -1    0    0  502    0  0.00000000000E+00  0.00000000000E+00  0.22930212296E+04  0.22930212296E+04  0.00000000000E+00 0. -1.
          1   -1    0    0  501    0 -0.00000000000E+00 -0.00000000000E+00 -0.55456501707E+02  0.55456501707E+02  0.00000000000E+00 0. -1.
         25    1    1    2    0    0 -0.88603791840E+02 -0.26002025150E+02  0.40111161255E+03  0.43016539025E+03  0.12500000000E+03 0.  0.
          2    1    1    2  501    0  0.10018019997E+03 -0.10526536286E+01  0.20676278099E+02  0.10229706262E+03  0.00000000000E+00 0. -1.
          1    1    1    2  502    0 -0.11576408126E+02  0.27054678779E+02  0.18157768372E+04  0.18160152784E+04  0.00000000000E+00 0. -1.
<mgrwt>
<rscale>  0 0.53898236E+02</rscale>
<asrwt>0</asrwt>
<pdfrwt beam="1">  1        2 0.35277242E+00 0.29427349E+02</pdfrwt>
<pdfrwt beam="2">  1        1 0.85317713E-02 0.98718367E+02</pdfrwt>
<totfact> 0.69872154E+02</totfact>
</mgrwt>
</event>
<event>
 5    1  0.8891499E-003  0.1321502E+03  0.7546771E-02  0.1423009E+00
          2   -1    0    0  502    0  0.00000000000E+00  0.00000000000E+00  0.25640141030E+04  0.25640141030E+04  0.00000000000E+00 0. -1.
          1   -1    0    0  501    0 -0.00000000000E+00 -0.00000000000E+00 -0.69508061113E+03  0.69508061113E+03  0.00000000000E+00 0. -1.
         25    1    1    2    0    0 -0.71935606275E+02  0.85109219134E+02 -0.32765798943E+03  0.36797155960E+03  0.12500000000E+03 0.  0.
          2    1    1    2  501    0 -0.20086761080E+02  0.98800117023E+01 -0.34518410389E+03  0.34590917620E+03  0.00000000000E+00 0. -1.
          1    1    1    2  502    0  0.92022367355E+02 -0.94989230836E+02  0.25417755852E+04  0.25452139783E+04  0.00000000000E+00 0. -1.
<mgrwt>
<rscale>  0 0.54389286E+02</rscale>
<asrwt>0</asrwt>
<pdfrwt beam="1">  1        2 0.39446370E+00 0.13215017E+03</pdfrwt>
<pdfrwt beam="2">  1        1 0.10693548E+00 0.22385098E+02</pdfrwt>
<totfact> 0.17637769E+01</totfact>
</mgrwt>
</event>
<event>
 5    1  0.8891499E-003  0.1422780E+03  0.7546771E-02  0.1276351E+00
          2   -1    0    0  502    0  0.00000000000E+00  0.00000000000E+00  0.79356609349E+03  0.79356609349E+03  0.00000000000E+00 0. -1.
          1   -1    0    0  501    0 -0.00000000000E+00 -0.00000000000E+00 -0.33845715585E+03  0.33845715585E+03  0.00000000000E+00 0. -1.
         25    1    1    2    0    0 -0.12630560352E+01 -0.15600478523E+03  0.51824152083E+02  0.20651835527E+03  0.12500000000E+03 0.  0.
          2    1    1    2  501    0 -0.66303285822E+02  0.30496622606E+02 -0.24814936627E+03  0.25865861223E+03  0.00000000000E+00 0. -1.
          1    1    1    2  502    0  0.67566341858E+02  0.12550816262E+03  0.65143415183E+03  0.66684628184E+03  0.00000000000E+00 0. -1.
<mgrwt>
<rscale>  0 0.10189964E+03</rscale>
<asrwt>0</asrwt>
<pdfrwt beam="1">  1        2 0.12208709E+00 0.14227801E+03</pdfrwt>
<pdfrwt beam="2">  1        1 0.52070332E-01 0.72980612E+02</pdfrwt>
<totfact> 0.37954012E+02</totfact>
</mgrwt>
</event>
<event>
 5    1  0.8891499E-003  0.6066916E+02  0.7546771E-02  0.1427996E+00
         -2   -1    0    0    0  501 -0.00000000000E+00  0.00000000000E+00  0.48721803988E+02  0.48721803988E+02  0.00000000000E+00 0.  1.
          2   -1    0    0  502    0  0.00000000000E+00 -0.00000000000E+00 -0.67490147260E+03  0.67490147260E+03  0.00000000000E+00 0. -1.
         25    1    1    2    0    0  0.79614002529E+02  0.52459928367E+02 -0.10695888412E+03  0.19014635514E+03  0.12500000000E+03 0.  0.
          1    1    1    2  502    0 -0.58307455194E+02 -0.10635117412E+02 -0.41451887374E+03  0.41873471523E+03  0.00000000000E+00 0. -1.
         -1    1    1    2    0  501 -0.21306547335E+02 -0.41824810955E+02 -0.10470191076E+03  0.11474220622E+03  0.00000000000E+00 0.  1.
<mgrwt>
<rscale>  0 0.53364398E+02</rscale>
<asrwt>0</asrwt>
<pdfrwt beam="2">  1        2 0.10383099E+00 0.60669164E+02</pdfrwt>
<pdfrwt beam="1">  1       -2 0.74956624E-02 0.46939150E+02</pdfrwt>
<totfact> 0.41726437E+03</totfact>
</mgrwt>
</event>
<event>
 5    1  0.8891499E-003  0.9309621E+02  0.7546771E-02  0.1419328E+00
          1   -1    0    0  502    0  0.00000000000E+00  0.00000000000E+00  0.78302560433E+03  0.78302560433E+03  0.00000000000E+00 0. -1.
         -1   -1    0    0    0  501 -0.00000000000E+00 -0.00000000000E+00 -0.10597051243E+04  0.10597051243E+04  0.00000000000E+00 0.  1.
         25    1    1    2    0    0  0.34793364171E+01  0.65781313511E+02 -0.27856389211E+03  0.31234937006E+03  0.12500000000E+03 0.  0.
          2    1    1    2  502    0  0.75774045329E+01  0.31796171849E+02  0.76262673118E+03  0.76332689244E+03  0.00000000000E+00 0. -1.
         -2    1    1    2    0  501 -0.11056740950E+02 -0.97577485360E+02 -0.76074235903E+03  0.76705446612E+03  0.00000000000E+00 0.  1.
<mgrwt>
<rscale>  0 0.55163378E+02</rscale>
<asrwt>0</asrwt>
<pdfrwt beam="1">  1        1 0.12046548E+00 0.32686597E+02</pdfrwt>
<pdfrwt beam="2">  1       -1 0.16303156E+00 0.93096211E+02</pdfrwt>
<totfact> 0.87493830E+00</totfact>
</mgrwt>
</event>
<event>
 5    1  0.8891499E-003  0.5874883E+02  0.7546771E-02  0.1425046E+00
          1   -1    0    0  501    0 -0.00000000000E+00  0.00000000000E+00  0.29256009408E+04  0.29256009408E+04  0.00000000000E+00 0. -1.
          2   -1    0    0  502    0  0.00000000000E+00 -0.00000000000E+00 -0.59293675275E+02  0.59293675275E+02  0.00000000000E+00 0. -1.
         25    1    1    2    0    0 -0.56593066027E+02  0.49682112449E+02  0.82303329840E+02  0.16754081748E+03  0.12500000000E+03 0.  0.
          2    1    1    2  501    0  0.58762363968E+02 -0.15443590822E+00  0.27628157193E+04  0.27634405617E+04  0.00000000000E+00 0. -1.
          1    1    1    2  502    0 -0.21692979411E+01 -0.49527676540E+02  0.21188216371E+02  0.53913236872E+02  0.00000000000E+00 0. -1.
<mgrwt>
<rscale>  0 0.53967424E+02</rscale>
<asrwt>0</asrwt>
<pdfrwt beam="2">  1        2 0.91221062E-02 0.49575161E+02</pdfrwt>
<pdfrwt beam="1">  1        1 0.45009234E+00 0.58748834E+02</pdfrwt>
<totfact> 0.91769343E+01</totfact>
</mgrwt>
</event>
<event>
 5    1  0.8891499E-003  0.6831743E+02  0.7546771E-02  0.1498972E+00
          1   -1    0    0  501    0 -0.00000000000E+00  0.00000000000E+00  0.16306569538E+04  0.16306569538E+04  0.00000000000E+00 0. -1.
          2   -1    0    0  502    0  0.00000000000E+00 -0.00000000000E+00 -0.11098219930E+03  0.11098219930E+03  0.00000000000E+00 0. -1.
         25    1    1    2    0    0  0.39152206027E+02 -0.75499778468E+02  0.54759929117E+03  0.56808722523E+03  0.12500000000E+03 0.  0.
          2    1    1    2  501    0  0.56341742544E+01  0.24302803326E+02  0.10611677500E+04  0.10614609573E+04  0.00000000000E+00 0. -1.
          1    1    1    2  502    0 -0.44786380282E+02  0.51196975142E+02 -0.89092286731E+02  0.11209097054E+03  0.00000000000E+00 0. -1.
<mgrwt>
<rscale>  0 0.41283638E+02</rscale>
<asrwt>0</asrwt>
<pdfrwt beam="2">  1        2 0.17074186E-01 0.68317434E+02</pdfrwt>
<pdfrwt beam="1">  1        1 0.25087028E+00 0.24947348E+02</pdfrwt>
<totfact> 0.32581964E+02</totfact>
</mgrwt>
</event>
<event>
 5    1  0.8891499E-003  0.3304624E+03  0.7546771E-02  0.1246179E+00
         -1   -1    0    0    0  501 -0.00000000000E+00  0.00000000000E+00  0.19652240591E+04  0.19652240591E+04  0.00000000000E+00 0.  1.
          1   -1    0    0  502    0  0.00000000000E+00 -0.00000000000E+00 -0.36802380973E+03  0.36802380973E+03  0.00000000000E+00 0. -1.
         25    1    1    2    0    0  0.28223621188E+03  0.15683464890E+03  0.57422724244E+03  0.67053434837E+03  0.12500000000E+03 0.  0.
          2    1    1    2  502    0 -0.26745480853E+03 -0.19640690629E+03 -0.23336308589E+03  0.40566744669E+03  0.00000000000E+00 0. -1.
         -2    1    1    2    0  501 -0.14781403341E+02  0.39572257393E+02  0.12563360928E+04  0.12570460738E+04  0.00000000000E+00 0.  1.
<mgrwt>
<rscale>  0 0.11815099E+03</rscale>
<asrwt>0</asrwt>
<pdfrwt beam="2">  1        1 0.56619049E-01 0.33046245E+03</pdfrwt>
<pdfrwt beam="1">  1       -1 0.30234216E+00 0.42242792E+02</pdfrwt>
<totfact> 0.32243369E+00</totfact>
</mgrwt>
</event>
<event>
 5    1  0.8891499E-003  0.3494080E+02  0.7546771E-02  0.1563102E+00
          1   -1    0    0  501    0 -0.00000000000E+00  0.00000000000E+00  0.10136139215E+04  0.10136139215E+04  0.00000000000E+00 0. -1.
          2   -1    0    0  502    0  0.00000000000E+00 -0.00000000000E+00 -0.23538908619E+04  0.23538908619E+04  0.00000000000E+00 0. -1.
         25    1    1    2    0    0 -0.71222470193E+01  0.12965147275E+02 -0.12071429816E+03  0.17440115604E+03  0.12500000000E+03 0.  0.
          2    1    1    2  501    0  0.28163572813E+02  0.15117133083E+02  0.98637206175E+03  0.98688984124E+03  0.00000000000E+00 0. -1.
          1    1    1    2  502    0 -0.21041325794E+02 -0.28082280358E+02 -0.22059347040E+04  0.22062137861E+04  0.00000000000E+00 0. -1.
<mgrwt>
<rscale>  0 0.33419411E+02</rscale>
<asrwt>0</asrwt>
<pdfrwt beam="2">  1        2 0.36213706E+00 0.34940796E+02</pdfrwt>
<pdfrwt beam="1">  1        1 0.15594060E+00 0.31964270E+02</pdfrwt>
<totfact> 0.15549735E+01</totfact>
</mgrwt>
</event>
<event>
 5    1  0.8891499E-003  0.9416446E+02  0.7546771E-02  0.1346320E+00
          2   -1    0    0  502    0  0.00000000000E+00  0.00000000000E+00  0.29963903691E+04  0.29963903691E+04  0.00000000000E+00 0. -1.
          1   -1    0    0  501    0 -0.00000000000E+00 -0.00000000000E+00 -0.31153703054E+03  0.31153703054E+03  0.00000000000E+00 0. -1.
         25    1    1    2    0    0  0.67486259102E+02 -0.86275156403E+02 -0.17274078840E+02  0.16709635418E+03  0.12500000000E+03 0.  0.
          2    1    1    2  501    0 -0.94554909415E+01  0.93604940932E+02 -0.20895649014E+03  0.22915956460E+03  0.00000000000E+00 0. -1.
          1    1    1    2  502    0 -0.58030768161E+02 -0.73297845292E+01  0.29110839075E+04  0.29116714809E+04  0.00000000000E+00 0. -1.
<mgrwt>
<rscale>  0 0.74214910E+02</rscale>
<asrwt>0</asrwt>
<pdfrwt beam="1">  1        2 0.46098311E+00 0.58491844E+02</pdfrwt>
<pdfrwt beam="2">  1        1 0.47928776E-01 0.94164459E+02</pdfrwt>
<totfact> 0.30594799E+01</totfact>
</mgrwt>
</event>
<event>
 5    1  0.8891499E-003  0.3580048E+02  0.7546771E-02  0.1567395E+00
         -2   -1    0    0    0  501 -0.00000000000E+00  0.00000000000E+00  0.31359486230E+03  0.31359486230E+03  0.00000000000E+00 0.  1.
          2   -1    0    0  502    0  0.00000000000E+00 -0.00000000000E+00 -0.11970316196E+03  0.11970316196E+03  0.00000000000E+00 0. -1.
         25    1    1    2    0    0 -0.14387292658E+01 -0.28138978870E+02  0.17148233289E+03  0.21406789243E+03  0.12500000000E+03 0.  0.
          1    1    1    2  502    0  0.30233588339E+02  0.28219025011E+01 -0.92887715566E+02  0.97724923641E+02  0.00000000000E+00 0. -1.
         -1    1    1    2    0  501 -0.28794859073E+02  0.25317076369E+02  0.11529708302E+03  0.12150520819E+03  0.00000000000E+00 0.  1.
<mgrwt>
<rscale>  0 0.32970917E+02</rscale>
<asrwt>0</asrwt>
<pdfrwt beam="2">  1        2 0.18415871E-01 0.30364996E+02</pdfrwt>
<pdfrwt beam="1">  1       -2 0.48245363E-01 0.35800478E+02</pdfrwt>
<totfact> 0.11430197E+03</totfact>
</mgrwt>
</event>
<event>
 5    1  0.8891499E-003  0.8228963E+02  0.7546771E-02  0.1342123E+00
          1   -1    0    0  501    0 -0.00000000000E+00  0.00000000000E+00  0.13293639686E+04  0.13293639686E+04  0.00000000000E+00 0. -1.
          2   -1    0    0  502    0  0.00000000000E+00 -0.00000000000E+00 -0.26142049347E+04  0.26142049347E+04  0.00000000000E+00 0. -1.
         25    1    1    2    0    0 -0.30546226651E+02  0.38992751963E+01  0.35290384036E+02  0.13348665669E+03  0.12500000000E+03 0.  0.
          2    1    1    2  501    0 -0.26078331974E+02 -0.64307955141E+02  0.12433395168E+04  0.12452745668E+04  0.00000000000E+00 0. -1.
          1    1    1    2  502    0  0.56624558626E+02  0.60408679944E+02 -0.25634708669E+04  0.25648076799E+04  0.00000000000E+00 0. -1.
<mgrwt>
<rscale>  0 0.75567487E+02</rscale>
<asrwt>0</asrwt>
<pdfrwt beam="2">  1        2 0.40218537E+00 0.82289627E+02</pdfrwt>
<pdfrwt beam="1">  1        1 0.20451753E+00 0.69394470E+02</pdfrwt>
<totfact> 0.58719087E+00</totfact>
</mgrwt>
</event>
<event>
 5    1  0.8891499E-003  0.5116085E+02  0.7546771E-02  0.1534807E+00
         -2   -1    0    0    0  501 -0.00000000000E+00  0.00000000000E+00  0.10288808081E+03  0.10288808081E+03  0.00000000000E+00 0.  1.
          2   -1    0    0  502    0  0.00000000000E+00 -0.00000000000E+00 -0.17916079200E+03  0.17916079200E+03  0.00000000000E+00 0. -1.
         25    1    1    2    0    0 -0.36247988465E+02 -0.80099860844E+01  0.15646777720E+02  0.13133125370E+03  0.12500000000E+03 0.  0.
          1    1    1    2  502    0 -0.23257441924E+02  0.12037727177E+02 -0.87019954227E+02  0.90875122636E+02  0.00000000000E+00 0. -1.
         -1    1    1    2    0  501  0.59505430389E+02 -0.40277410925E+01 -0.48995346764E+01  0.59842496474E+02  0.00000000000E+00 0.  1.
<mgrwt>
<rscale>  0 0.36603337E+02</rscale>
<asrwt>0</asrwt>
<pdfrwt beam="2">  1        2 0.27563198E-01 0.26188079E+02</pdfrwt>
<pdfrwt beam="1">  1       -2 0.15828936E-01 0.51160847E+02</pdfrwt>
<totfact> 0.51932383E+03</totfact>
</mgrwt>
</event>
<event>
 5    1  0.8891499E-003  0.1294736E+03  0.7546771E-02  0.1302909E+00
          2   -1    0    0  502    0  0.00000000000E+00  0.00000000000E+00  0.14369033763E+04  0.14369033763E+04  0.00000000000E+00 0. -1.
          1   -1    0    0  501    0 -0.00000000000E+00 -0.00000000000E+00 -0.10030117069E+04  0.10030117069E+04  0.00000000000E+00 0. -1.
         25    1    1    2    0    0  0.17226419902E+03  0.17464415052E+02  0.23288558794E+03  0.31597572237E+03  0.12500000000E+03 0.  0.
          2    1    1    2  501    0 -0.55026785375E+02  0.29695720025E+02 -0.95700914871E+03  0.95904968255E+03  0.00000000000E+00 0. -1.
          1    1    1    2  502    0 -0.11723741364E+03 -0.47160135076E+02  0.11580152301E+04  0.11648896783E+04  0.00000000000E+00 0. -1.
<mgrwt>
<rscale>  0 0.89976418E+02</rscale>
<asrwt>0</asrwt>
<pdfrwt beam="1">  1        2 0.22106206E+00 0.12947356E+03</pdfrwt>
<pdfrwt beam="2">  1        1 0.15430949E+00 0.62528257E+02</pdfrwt>
<totfact> 0.37502657E+01</totfact>
</mgrwt>
</event>
<event>
 5    1  0.8891499E-003  0.8204007E+02  0.7546771E-02  0.1356304E+00
          1   -1    0    0  501    0 -0.00000000000E+00  0.00000000000E+00  0.55698670305E+03  0.55698670305E+03  0.00000000000E+00 0. -1.
          2   -1    0    0  502    0  0.00000000000E+00 -0.00000000000E+00 -0.24165361898E+04  0.24165361898E+04  0.00000000000E+00 0. -1.
         25    1    1    2    0    0  0.22499909608E+02 -0.97521228729E+02 -0.84386939574E+02  0.18100494898E+03  0.12500000000E+03 0.  0.
          2    1    1    2  501    0 -0.63775914354E+02  0.51708747191E+02  0.50494505608E+03  0.51157665256E+03  0.00000000000E+00 0. -1.
          1    1    1    2  502    0  0.41276004746E+02  0.45812481537E+02 -0.22801076032E+04  0.22809412913E+04  0.00000000000E+00 0. -1.
<mgrwt>
<rscale>  0 0.71126281E+02</rscale>
<asrwt>0</asrwt>
<pdfrwt beam="2">  1        2 0.37177480E+00 0.61664350E+02</pdfrwt>
<pdfrwt beam="1">  1        1 0.85690262E-01 0.82040073E+02</pdfrwt>
<totfact> 0.29851834E+01</totfact>
</mgrwt>
</event>
<event>
 5    1  0.8891499E-003  0.6949030E+02  0.7546771E-02  0.1368548E+00
          1   -1    0    0  501    0 -0.00000000000E+00  0.00000000000E+00  0.31763459076E+04  0.31763459076E+04  0.00000000000E+00 0. -1.
          2   -1    0    0  502    0  0.00000000000E+00 -0.00000000000E+00 -0.61655077926E+03  0.61655077926E+03  0.00000000000E+00 0. -1.
         25    1    1    2    0    0  0.58098052344E+02 -0.52170791277E+02 -0.32652166990E+03  0.35824373834E+03  0.12500000000E+03 0.  0.
          2    1    1    2  501    0 -0.68338463560E+02 -0.12734161523E+02  0.31561597216E+04  0.31569251642E+04  0.00000000000E+00 0. -1.
          1    1    1    2  502    0  0.10240411216E+02  0.64904952800E+02 -0.26984292331E+03  0.27772778432E+03  0.00000000000E+00 0. -1.
<mgrwt>
<rscale>  0 0.67572603E+02</rscale>
<asrwt>0</asrwt>
<pdfrwt beam="2">  1        2 0.94853967E-01 0.65707830E+02</pdfrwt>
<pdfrwt beam="1">  1        1 0.48866859E+00 0.69490297E+02</pdfrwt>
<totfact> 0.47756427E+00</totfact>
</mgrwt>
</event>
<event>
 5    1  0.8891499E-003  0.7864346E+02  0.7546771E-02  0.1339895E+00
          1   -1    0    0  501    0 -0.00000000000E+00  0.00000000000E+00  0.63326250095E+03  0.63326250095E+03  0.00000000000E+00 0. -1.
          2   -1    0    0  502    0  0.00000000000E+00 -0.00000000000E+00 -0.18664677999E+03  0.18664677999E+03  0.00000000000E+00 0. -1.
         25    1    1    2    0    0 -0.17618043241E+02  0.13347755128E+03  0.11882555617E+03  0.21879480099E+03  0.12500000000E+03 0.  0.
          2    1    1    2  501    0 -0.23950682462E+02 -0.70042527351E+02  0.45067292030E+03  0.45671180401E+03  0.00000000000E+00 0. -1.
          1    1    1    2  502    0  0.41568725703E+02 -0.63435023927E+02 -0.12288275551E+03  0.14440267594E+03  0.00000000000E+00 0. -1.
<mgrwt>
<rscale>  0 0.76298913E+02</rscale>
<asrwt>0</asrwt>
<pdfrwt beam="2">  1        2 0.28714889E-01 0.78643465E+02</pdfrwt>
<pdfrwt beam="1">  1        1 0.97424999E-01 0.74024258E+02</pdfrwt>
<totfact> 0.83243071E+02</totfact>
</mgrwt>
</event>
<event>
 5    1  0.8891499E-003  0.9110419E+02  0.7546771E-02  0.1347634E+00
         -2   -1    0    0    0  501 -0.00000000000E+00  0.00000000000E+00  0.24461206342E+02  0.24461206342E+02  0.00000000000E+00 0.  1.
          2   -1    0    0  502    0  0.00000000000E+00 -0.00000000000E+00 -0.11970158110E+04  0.11970158110E+04  0.00000000000E+00 0. -1.
         25    1    1    2    0    0 -0.34781726232E+02  0.11621237662E+03 -0.80490308015E+03  0.82353448829E+03  0.12500000000E+03 0.  0.
          1    1    1    2  502    0  0.51211838335E+02 -0.30836542298E+02 -0.20466814167E+03  0.21321958855E+03  0.00000000000E+00 0. -1.
         -1    1    1    2    0  501 -0.16430112103E+02 -0.85375834322E+02 -0.16298338287E+03  0.18472294054E+03  0.00000000000E+00 0.  1.
<mgrwt>
<rscale>  0 0.73797896E+02</rscale>
<asrwt>0</asrwt>
<pdfrwt beam="2">  1        2 0.18415627E+00 0.59779133E+02</pdfrwt>
<pdfrwt beam="1">  1       -2 0.37632626E-02 0.91104190E+02</pdfrwt>
<totfact> 0.59763022E+03</totfact>
</mgrwt>
</event>
<event>
 5    1  0.8891499E-003  0.4933218E+02  0.7546771E-02  0.1560045E+00
          2   -1    0    0  502    0  0.00000000000E+00  0.00000000000E+00  0.48463155334E+03  0.48463155334E+03  0.00000000000E+00 0. -1.
          1   -1    0    0  501    0 -0.00000000000E+00 -0.00000000000E+00 -0.76045201713E+03  0.76045201713E+03  0.00000000000E+00 0. -1.
         25    1    1    2    0    0  0.60839469745E+02  0.25895790669E+02 -0.32247203108E+03  0.35211538433E+03  0.12500000000E+03 0.  0.
          2    1    1    2  501    0 -0.47435070031E+02 -0.71053461391E+01 -0.42151390816E+03  0.42423407051E+03  0.00000000000E+00 0. -1.
          1    1    1    2  502    0 -0.13404399714E+02 -0.18790444530E+02  0.46816547546E+03  0.46873411562E+03  0.00000000000E+00 0. -1.
<mgrwt>
<rscale>  0 0.33744096E+02</rscale>
<asrwt>0</asrwt>
<pdfrwt beam="1">  1        2 0.74558701E-01 0.23081567E+02</pdfrwt>
<pdfrwt beam="2">  1        1 0.11699262E+00 0.49332178E+02</pdfrwt>
<totfact> 0.24452762E+02</totfact>
</mgrwt>
</event>
<event>
 5    1  0.8891499E-003  0.1467723E+03  0.7546771E-02  0.1249633E+00
         -2   -1    0    0    0  501 -0.00000000000E+00  0.00000000000E+00  0.80188660228E+02  0.80188660228E+02  0.00000000000E+00 0.  1.
          2   -1    0    0  502    0  0.00000000000E+00 -0.00000000000E+00 -0.13314782979E+04  0.13314782979E+04  0.00000000000E+00 0. -1.
         25    1    1    2    0    0 -0.25748972613E+02  0.67305602674E+02 -0.98861694648E+02  0.17490479813E+03  0.12500000000E+03 0.  0.
          1    1    1    2  502    0  0.94738178586E+01 -0.15772666792E+03 -0.11315715464E+04  0.11425504888E+04  0.00000000000E+00 0. -1.
         -1    1    1    2    0  501  0.16275154754E+02  0.90421065249E+02 -0.20856396676E+02  0.94211671174E+02  0.00000000000E+00 0.  1.
<mgrwt>
<rscale>  0 0.11612307E+03</rscale>
<asrwt>0</asrwt>
<pdfrwt beam="2">  1        2 0.20484281E+00 0.14677225E+03</pdfrwt>
<pdfrwt beam="1">  1       -2 0.12336717E-01 0.91874097E+02</pdfrwt>
<totfact> 0.78789581E+02</totfact>
</mgrwt>
</event>
<event>
 5    1  0.8891499E-003  0.1261824E+03  0.7546771E-02  0.1392689E+00
          2   -1    0    0  502    0  0.00000000000E+00  0.00000000000E+00  0.20136701906E+03  0.20136701906E+03  0.00000000000E+00 0. -1.
          1   -1    0    0  501    0 -0.00000000000E+00 -0.00000000000E+00 -0.82016278535E+03  0.82016278535E+03  0.00000000000E+00 0. -1.
         25    1    1    2    0    0 -0.99209808857E+02  0.22211344165E+02 -0.25037726356E+03  0.29774100169E+03  0.12500000000E+03 0.  0.
          2    1    1    2  501    0 -0.28398427588E+02 -0.87789698679E+01 -0.52246103268E+03  0.52330590640E+03  0.00000000000E+00 0. -1.
          1    1    1    2  502    0  0.12760823644E+03 -0.13432374297E+02  0.15404252995E+03  0.20048289633E+03  0.00000000000E+00 0. -1.
<mgrwt>
<rscale>  0 0.61242936E+02</rscale>
<asrwt>0</asrwt>
<pdfrwt beam="1">  1        2 0.30979542E-01 0.12618236E+03</pdfrwt>
<pdfrwt beam="2">  1        1 0.12617889E+00 0.29724418E+02</pdfrwt>
<totfact> 0.56512753E+02</totfact>
</mgrwt>
</event>
<event>
 5    1  0.8891499E-003  0.1260712E+03  0.7546771E-02  0.1275470E+00
          1   -1    0    0  501    0 -0.00000000000E+00  0.00000000000E+00  0.16761794898E+04  0.16761794898E+04  0.00000000000E+00 0. -1.
          2   -1    0    0  502    0  0.00000000000E+00 -0.00000000000E+00 -0.26891793481E+03  0.26891793481E+03  0.00000000000E+00 0. -1.
         25    1    1    2    0    0 -0.57766270302E+02  0.44111737345E+02  0.35129239719E+02  0.14880138050E+03  0.12500000000E+03 0.  0.
          2    1    1    2  501    0 -0.48007472108E+01  0.82921408706E+02  0.15593478975E+04  0.15615584756E+04  0.00000000000E+00 0. -1.
          1    1    1    2  502    0  0.62567017513E+02 -0.12703314605E+03 -0.18721558220E+03  0.23473756857E+03  0.00000000000E+00 0. -1.
<mgrwt>
<rscale>  0 0.10233038E+03</rscale>
<asrwt>0</asrwt>
<pdfrwt beam="2">  1        2 0.41371991E-01 0.12607120E+03</pdfrwt>
<pdfrwt beam="1">  1        1 0.25787376E+00 0.83060262E+02</pdfrwt>
<totfact> 0.10343520E+02</totfact>
</mgrwt>
</event>
<event>
 5    1  0.8891499E-003  0.6725146E+02  0.7546771E-02  0.1431278E+00
          1   -1    0    0  501    0 -0.00000000000E+00  0.00000000000E+00  0.11060574935E+03  0.11060574935E+03  0.00000000000E+00 0. -1.
          2   -1    0    0  502    0  0.00000000000E+00 -0.00000000000E+00 -0.24761128344E+04  0.24761128344E+04  0.00000000000E+00 0. -1.
         25    1    1    2    0    0  0.35862288948E+02  0.23415700208E+02  0.31032648804E+01  0.13217045448E+03  0.12500000000E+03 0.  0.
          2    1    1    2  501    0 -0.76265794670E+02 -0.31992859856E+02  0.28254762394E+01  0.82752630377E+02  0.00000000000E+00 0. -1.
          1    1    1    2  502    0  0.40403505722E+02  0.85771596476E+01 -0.23714358262E+04  0.23717954989E+04  0.00000000000E+00 0. -1.
<mgrwt>
<rscale>  0 0.52704330E+02</rscale>
<asrwt>0</asrwt>
<pdfrwt beam="2">  1        2 0.38094042E+00 0.41303885E+02</pdfrwt>
<pdfrwt beam="1">  1        1 0.17016270E-01 0.67251457E+02</pdfrwt>
<totfact> 0.21652052E+02</totfact>
</mgrwt>
</event>
<event>
 5    1  0.8891499E-003  0.3097707E+02  0.7546771E-02  0.1594282E+00
          1   -1    0    0  501    0 -0.00000000000E+00  0.00000000000E+00  0.34254083553E+02  0.34254083553E+02  0.00000000000E+00 0. -1.
          2   -1    0    0  502    0  0.00000000000E+00 -0.00000000000E+00 -0.18185191817E+04  0.18185191817E+04  0.00000000000E+00 0. -1.
         25    1    1    2    0    0  0.48549750364E+01 -0.31789659259E+02 -0.48114364874E+03  0.49815495977E+03  0.12500000000E+03 0.  0.
          2    1    1    2  501    0  0.23372524708E+02  0.18374112724E+02  0.16919460330E+02  0.34207470931E+02  0.00000000000E+00 0. -1.
          1    1    1    2  502    0 -0.28227499745E+02  0.13415546535E+02 -0.13200409097E+04  0.13204108346E+04  0.00000000000E+00 0. -1.
<mgrwt>
<rscale>  0 0.30347214E+02</rscale>
<asrwt>0</asrwt>
<pdfrwt beam="2">  1        2 0.27977226E+00 0.30977066E+02</pdfrwt>
<pdfrwt beam="1">  1        1 0.52698575E-02 0.29730169E+02</pdfrwt>
<totfact> 0.19639469E+03</totfact>
</mgrwt>
</event>
<event>
 5    1  0.8891499E-003  0.7879074E+02  0.7546771E-02  0.1362557E+00
          1   -1    0    0  501    0 -0.00000000000E+00  0.00000000000E+00  0.21693522341E+02  0.21693522341E+02  0.00000000000E+00 0. -1.
          2   -1    0    0  502    0  0.00000000000E+00 -0.00000000000E+00 -0.31836109007E+04  0.31836109007E+04  0.00000000000E+00 0. -1.
         25    1    1    2    0    0  0.62174247766E+01  0.25504008088E+02 -0.74861880758E+03  0.75943678464E+03  0.12500000000E+03 0.  0.
          2    1    1    2  501    0 -0.15821007530E+01  0.60897493912E+02 -0.44380740651E+02  0.75370139633E+02  0.00000000000E+00 0. -1.
          1    1    1    2  502    0 -0.46353240236E+01 -0.86401502000E+02 -0.23689178301E+04  0.23704974988E+04  0.00000000000E+00 0. -1.
<mgrwt>
<rscale>  0 0.69280429E+02</rscale>
<asrwt>0</asrwt>
<pdfrwt beam="2">  1        2 0.48978618E+00 0.78790744E+02</pdfrwt>
<pdfrwt beam="1">  1        1 0.33374657E-02 0.60918042E+02</pdfrwt>
<totfact> 0.67381034E+02</totfact>
</mgrwt>
</event>
<event>
 5    1  0.8891499E-003  0.7044673E+02  0.7546771E-02  0.1422364E+00
          1   -1    0    0  501    0 -0.00000000000E+00  0.00000000000E+00  0.42551458410E+03  0.42551458410E+03  0.00000000000E+00 0. -1.
          2   -1    0    0  502    0  0.00000000000E+00 -0.00000000000E+00 -0.65081956722E+03  0.65081956722E+03  0.00000000000E+00 0. -1.
         25    1    1    2    0    0  0.57660751580E+02 -0.80829975793E+02 -0.45898257535E+02  0.16610206893E+03  0.12500000000E+03 0.  0.
          2    1    1    2  501    0 -0.17631322801E+02  0.67469898066E+02  0.36125587501E+03  0.36792507107E+03  0.00000000000E+00 0. -1.
          1    1    1    2  502    0 -0.40029428780E+02  0.13360077727E+02 -0.54066260059E+03  0.54230701132E+03  0.00000000000E+00 0. -1.
<mgrwt>
<rscale>  0 0.54523918E+02</rscale>
<asrwt>0</asrwt>
<pdfrwt beam="2">  1        2 0.10012609E+00 0.42200081E+02</pdfrwt>
<pdfrwt beam="1">  1        1 0.65463782E-01 0.70446729E+02</pdfrwt>
<totfact> 0.37554265E+02</totfact>
</mgrwt>
</event>
<event>
 5    1  0.8891499E-003  0.9530612E+02  0.7546771E-02  0.1368748E+00
          1   -1    0    0  501    0 -0.00000000000E+00  0.00000000000E+00  0.27026433026E+03  0.27026433026E+03  0.00000000000E+00 0. -1.
          2   -1    0    0  502    0  0.00000000000E+00 -0.00000000000E+00 -0.31554487191E+03  0.31554487191E+03  0.00000000000E+00 0. -1.
         25    1    1    2    0    0 -0.92477408011E+02  0.73005203930E+02 -0.10762363557E+03  0.20270588972E+03  0.12500000000E+03 0.  0.
          2    1    1    2  501    0  0.90963645792E+02 -0.25199160837E+02  0.20874112463E+03  0.22909002526E+03  0.00000000000E+00 0. -1.
          1    1    1    2  502    0  0.15137622186E+01 -0.47806043094E+02 -0.14639803071E+03  0.15401328718E+03  0.00000000000E+00 0. -1.
<mgrwt>
<rscale>  0 0.67516605E+02</rscale>
<asrwt>0</asrwt>
<pdfrwt beam="2">  1        2 0.48545365E-01 0.47830003E+02</pdfrwt>
<pdfrwt beam="1">  1        1 0.41579128E-01 0.95306117E+02</pdfrwt>
<totfact> 0.13896293E+03</totfact>
</mgrwt>
</event>
<event>
 5    1  0.8891499E-003  0.9919840E+02  0.7546771E-02  0.1386581E+00
          2   -1    0    0  502    0  0.00000000000E+00  0.00000000000E+00  0.18454025006E+04  0.18454025006E+04  0.00000000000E+00 0. -1.
         -2   -1    0    0    0  501 -0.00000000000E+00 -0.00000000000E+00 -0.79222227999E+03  0.79222227999E+03  0.00000000000E+00 0.  1.
         25    1    1    2    0    0  0.55824047690E+02  0.24725324351E+02  0.28594705016E+02  0.14202226276E+03  0.12500000000E+03 0.  0.
          1    1    1    2  502    0  0.37015305433E+02  0.14386600023E+02  0.17564188985E+04  0.17568677964E+04  0.00000000000E+00 0. -1.
         -1    1    1    2    0  501 -0.92839353123E+02 -0.39111924374E+02 -0.73183338296E+03  0.73873472136E+03  0.00000000000E+00 0.  1.
<mgrwt>
<rscale>  0 0.62765014E+02</rscale>
<asrwt>0</asrwt>
<pdfrwt beam="1">  1        2 0.28390808E+00 0.39712808E+02</pdfrwt>
<pdfrwt beam="2">  1       -2 0.12188035E+00 0.99198400E+02</pdfrwt>
<totfact> 0.61478456E+00</totfact>
</mgrwt>
</event>
<event>
 5    1  0.8891499E-003  0.4209886E+02  0.7546771E-02  0.1514635E+00
         -1   -1    0    0    0  501 -0.00000000000E+00  0.00000000000E+00  0.14489730283E+03  0.14489730283E+03  0.00000000000E+00 0.  1.
          1   -1    0    0  502    0  0.00000000000E+00 -0.00000000000E+00 -0.91060604905E+02  0.91060604905E+02  0.00000000000E+00 0. -1.
         25    1    1    2    0    0  0.35111274623E+02 -0.22122152902E+01  0.36194860599E+02  0.13480639242E+03  0.12500000000E+03 0.  0.
          2    1    1    2  502    0 -0.25813991895E+02  0.37394084808E+02 -0.19235768471E+02  0.49342624017E+02  0.00000000000E+00 0. -1.
         -2    1    1    2    0  501 -0.92972827277E+01 -0.35181869518E+02  0.36877605799E+02  0.51808891306E+02  0.00000000000E+00 0.  1.
<mgrwt>
<rscale>  0 0.39140272E+02</rscale>
<asrwt>0</asrwt>
<pdfrwt beam="2">  1        1 0.14009324E-01 0.42098860E+02</pdfrwt>
<pdfrwt beam="1">  1       -1 0.22291893E-01 0.36389606E+02</pdfrwt>
<totfact> 0.58477411E+03</totfact>
</mgrwt>
</event>
<event>
 5    1  0.8891499E-003  0.1874092E+03  0.7546771E-02  0.1286826E+00
          1   -1    0    0  501    0 -0.00000000000E+00  0.00000000000E+00  0.29912809593E+03  0.29912809593E+03  0.00000000000E+00 0. -1.
          2   -1    0    0  502    0  0.00000000000E+00 -0.00000000000E+00 -0.13582725096E+04  0.13582725096E+04  0.00000000000E+00 0. -1.
         25    1    1    2    0    0  0.29143008222E+02 -0.21740538232E+03 -0.56857046000E+03  0.62210271111E+03  0.12500000000E+03 0.  0.
          2    1    1    2  501    0 -0.27933471112E+02  0.41665220650E+02  0.25981014672E+03  0.26460835542E+03  0.00000000000E+00 0. -1.
          1    1    1    2  502    0 -0.12095371104E+01  0.17574016166E+03 -0.75038410040E+03  0.77068953900E+03  0.00000000000E+00 0. -1.
<mgrwt>
<rscale>  0 0.96958236E+02</rscale>
<asrwt>0</asrwt>
<pdfrwt beam="2">  1        2 0.20896500E+00 0.18740917E+03</pdfrwt>
<pdfrwt beam="1">  1        1 0.46019708E-01 0.50162430E+02</pdfrwt>
<totfact> 0.20115076E+02</totfact>
</mgrwt>
</event>
<event>
 5    1  0.8891499E-003  0.8239675E+02  0.7546771E-02  0.1326881E+00
          2   -1    0    0  502    0  0.00000000000E+00  0.00000000000E+00  0.98475699316E+03  0.98475699316E+03  0.00000000000E+00 0. -1.
          1   -1    0    0  501    0 -0.00000000000E+00 -0.00000000000E+00 -0.11773458450E+04  0.11773458450E+04  0.00000000000E+00 0. -1.
         25    1    1    2    0    0  0.13017373672E+02 -0.63298815638E+02 -0.17974589685E+03  0.22827566562E+03  0.12500000000E+03 0.  0.
          2    1    1    2  501    0  0.67887844264E+02  0.47692104664E+02 -0.96979348955E+03  0.97333586630E+03  0.00000000000E+00 0. -1.
          1    1    1    2  502    0 -0.80905217936E+02  0.15606710973E+02  0.95695053458E+03  0.96049130623E+03  0.00000000000E+00 0. -1.
<mgrwt>
<rscale>  0 0.80769864E+02</rscale>
<asrwt>0</asrwt>
<pdfrwt beam="1">  1        2 0.15150108E+00 0.82396746E+02</pdfrwt>
<pdfrwt beam="2">  1        1 0.18113013E+00 0.79175104E+02</pdfrwt>
<totfact> 0.50937064E+01</totfact>
</mgrwt>
</event>
<event>
 5    1  0.8891499E-003  0.3656253E+02  0.7546771E-02  0.1552371E+00
          2   -1    0    0  502    0  0.00000000000E+00  0.00000000000E+00  0.48540363060E+03  0.48540363060E+03  0.00000000000E+00 0. -1.
          1   -1    0    0  501    0 -0.00000000000E+00 -0.00000000000E+00 -0.32682269978E+03  0.32682269978E+03  0.00000000000E+00 0. -1.
         25    1    1    2    0    0  0.15162730282E+02  0.14356931864E+02 -0.20952216165E+03  0.24486846694E+03  0.12500000000E+03 0.  0.
          2    1    1    2  501    0  0.15364330945E+02 -0.34479479230E+02 -0.95305720046E+02  0.10250891389E+03  0.00000000000E+00 0. -1.
          1    1    1    2  502    0 -0.30527061227E+02  0.20122547366E+02  0.46340881251E+03  0.46484894955E+03  0.00000000000E+00 0. -1.
<mgrwt>
<rscale>  0 0.34579023E+02</rscale>
<asrwt>0</asrwt>
<pdfrwt beam="1">  1        2 0.74677482E-01 0.36562527E+02</pdfrwt>
<pdfrwt beam="2">  1        1 0.50280415E-01 0.32703124E+02</pdfrwt>
<totfact> 0.70971123E+02</totfact>
</mgrwt>
</event>
<event>
 5    1  0.8891499E-003  0.6083793E+02  0.7546771E-02  0.1495265E+00
          1   -1    0    0  502    0  0.00000000000E+00  0.00000000000E+00  0.11021263573E+04  0.11021263573E+04  0.00000000000E+00 0. -1.
         -1   -1    0    0    0  501 -0.00000000000E+00 -0.00000000000E+00 -0.11355173018E+03  0.11355173018E+03  0.00000000000E+00 0.  1.
         25    1    1    2    0    0  0.25182429702E+02 -0.81166122672E+02  0.50806801443E+02  0.15946292769E+03  0.12500000000E+03 0.  0.
          2    1    1    2  502    0 -0.55169588060E+01  0.60207598381E+02  0.99252986667E+03  0.99436961335E+03  0.00000000000E+00 0. -1.
         -2    1    1    2    0  501 -0.19665470896E+02  0.20958524291E+02 -0.54762040967E+02  0.61845546459E+02  0.00000000000E+00 0.  1.
<mgrwt>
<rscale>  0 0.41814891E+02</rscale>
<asrwt>0</asrwt>
<pdfrwt beam="1">  1        1 0.16955789E+00 0.60837927E+02</pdfrwt>
<pdfrwt beam="2">  1       -1 0.17469498E-01 0.28740050E+02</pdfrwt>
<totfact> 0.34111570E+02</totfact>
</mgrwt>
</event>
<event>
 5    1  0.8891499E-003  0.7292179E+02  0.7546771E-02  0.1422275E+00
          1   -1    0    0  502    0  0.00000000000E+00  0.00000000000E+00  0.32796455789E+02  0.32796455789E+02  0.00000000000E+00 0. -1.
         -1   -1    0    0    0  501 -0.00000000000E+00 -0.00000000000E+00 -0.90871831798E+03  0.90871831798E+03  0.00000000000E+00 0.  1.
         25    1    1    2    0    0  0.66194477403E+02 -0.74675771044E+02 -0.53429964714E+03  0.55772689782E+03  0.12500000000E+03 0.  0.
          2    1    1    2  502    0 -0.26512872749E+02  0.65207422171E+02 -0.43200712493E+02  0.82590809946E+02  0.00000000000E+00 0. -1.
         -2    1    1    2    0  501 -0.39681604654E+02  0.94683488730E+01 -0.29842150256E+03  0.30119706600E+03  0.00000000000E+00 0.  1.
<mgrwt>
<rscale>  0 0.54542521E+02</rscale>
<asrwt>0</asrwt>
<pdfrwt beam="1">  1        1 0.50456095E-02 0.72921785E+02</pdfrwt>
<pdfrwt beam="2">  1       -1 0.13980279E+00 0.40795580E+02</pdfrwt>
<totfact> 0.75077310E+02</totfact>
</mgrwt>
</event>
<event>
 5    1  0.8891499E-003  0.1036796E+03  0.7546771E-02  0.1384355E+00
          1   -1    0    0  501    0 -0.00000000000E+00  0.00000000000E+00  0.18151410580E+03  0.18151410580E+03  0.00000000000E+00 0. -1.
          2   -1    0    0  502    0  0.00000000000E+00 -0.00000000000E+00 -0.10029109265E+04  0.10029109265E+04  0.00000000000E+00 0. -1.
         25    1    1    2    0    0  0.26072061342E+01 -0.85772904422E+02 -0.10304349337E+03  0.18332143951E+03  0.12500000000E+03 0.  0.
          2    1    1    2  501    0 -0.35925267835E+02 -0.14354121933E+02  0.13541794545E+03  0.14083566890E+03  0.00000000000E+00 0. -1.
          1    1    1    2  502    0  0.33318061701E+02  0.10012702636E+03 -0.85377127276E+03  0.86026792386E+03  0.00000000000E+00 0. -1.
<mgrwt>
<rscale>  0 0.63332693E+02</rscale>
<asrwt>0</asrwt>
<pdfrwt beam="2">  1        2 0.15429399E+00 0.10367965E+03</pdfrwt>
<pdfrwt beam="1">  1        1 0.27925247E-01 0.38686764E+02</pdfrwt>
<totfact> 0.59454903E+02</totfact>
</mgrwt>
</event>
<event>
 5    1  0.8891499E-003  0.8556407E+02  0.7546771E-02  0.1315223E+00
          2   -1    0    0  502    0  0.00000000000E+00  0.00000000000E+00  0.62067331132E+03  0.62067331132E+03  0.00000000000E+00 0. -1.
          1   -1    0    0  501    0 -0.00000000000E+00 -0.00000000000E+00 -0.84257780263E+02  0.84257780263E+02  0.00000000000E+00 0. -1.
         25    1    1    2    0    0  0.24752808475E+02 -0.54760272235E+02  0.21246526135E+03  0.25372795712E+03  0.12500000000E+03 0.  0.
          2    1    1    2  501    0  0.57353191367E+02  0.75146514580E+02 -0.20319196465E+02  0.96691555776E+02  0.00000000000E+00 0. -1.
          1    1    1    2  502    0 -0.82105999842E+02 -0.20386242345E+02  0.34426946617E+03  0.35451157869E+03  0.00000000000E+00 0. -1.
<mgrwt>
<rscale>  0 0.85080177E+02</rscale>
<asrwt>0</asrwt>
<pdfrwt beam="1">  1        2 0.95488199E-01 0.84599019E+02</pdfrwt>
<pdfrwt beam="2">  1        1 0.12962736E-01 0.85564071E+02</pdfrwt>
<totfact> 0.28915890E+03</totfact>
</mgrwt>
</event>
<event>
 5    1  0.8891499E-003  0.1590806E+03  0.7546771E-02  0.1256464E+00
          1   -1    0    0  501    0 -0.00000000000E+00  0.00000000000E+00  0.18655135260E+03  0.18655135260E+03  0.00000000000E+00 0. -1.
          2   -1    0    0  502    0  0.00000000000E+00 -0.00000000000E+00 -0.25698536019E+04  0.25698536019E+04  0.00000000000E+00 0. -1.
         25    1    1    2    0    0 -0.58865020484E+02 -0.82384191130E+02 -0.40350074743E+03  0.43438473587E+03  0.12500000000E+03 0.  0.
          2    1    1    2  501    0 -0.24762405196E+01 -0.79162785510E+02  0.15826794935E+03  0.17697915744E+03  0.00000000000E+00 0. -1.
          1    1    1    2  502    0  0.61341261003E+02  0.16154697664E+03 -0.21380694512E+04  0.21450410612E+04  0.00000000000E+00 0. -1.
<mgrwt>
<rscale>  0 0.11224715E+03</rscale>
<asrwt>0</asrwt>
<pdfrwt beam="2">  1        2 0.39536206E+00 0.15908059E+03</pdfrwt>
<pdfrwt beam="1">  1        1 0.28700210E-01 0.79201505E+02</pdfrwt>
<totfact> 0.84190966E+01</totfact>
</mgrwt>
</event>
<event>
 5    1  0.8891499E-003  0.6753582E+02  0.7546771E-02  0.1443082E+00
         -1   -1    0    0    0  501 -0.00000000000E+00  0.00000000000E+00  0.10712432653E+04  0.10712432653E+04  0.00000000000E+00 0.  1.
          1   -1    0    0  502    0  0.00000000000E+00 -0.00000000000E+00 -0.18438618223E+03  0.18438618223E+03  0.00000000000E+00 0. -1.
         25    1    1    2    0    0 -0.56832526696E+02 -0.35331379481E+02  0.19052257518E+03  0.23749125062E+03  0.12500000000E+03 0.  0.
          2    1    1    2  502    0  0.27195799603E+02 -0.26028110846E+02 -0.15732366872E+03  0.16176467726E+03  0.00000000000E+00 0. -1.
         -2    1    1    2    0  501  0.29636727094E+02  0.61359490327E+02  0.85365817659E+03  0.85637351962E+03  0.00000000000E+00 0.  1.
<mgrwt>
<rscale>  0 0.50421438E+02</rscale>
<asrwt>0</asrwt>
<pdfrwt beam="2">  1        1 0.28367106E-01 0.37644044E+02</pdfrwt>
<pdfrwt beam="1">  1       -1 0.16480665E+00 0.67535820E+02</pdfrwt>
<totfact> 0.51000901E+01</totfact>
</mgrwt>
</event>
<event>
 5    1  0.8891499E-003  0.4088769E+02  0.7546771E-02  0.1611227E+00
          1   -1    0    0  501    0 -0.00000000000E+00  0.00000000000E+00  0.50752170254E+03  0.50752170254E+03  0.00000000000E+00 0. -1.
          2   -1    0    0  502    0  0.00000000000E+00 -0.00000000000E+00 -0.77156401329E+02  0.77156401329E+02  0.00000000000E+00 0. -1.
         25    1    1    2    0    0  0.30193904007E+02  0.33935259812E+02  0.16350075300E+03  0.21076235415E+03  0.12500000000E+03 0.  0.
          2    1    1    2  501    0 -0.37983162600E+02 -0.15136911816E+02  0.31709497794E+03  0.31972030242E+03  0.00000000000E+00 0. -1.
          1    1    1    2  502    0  0.77892585926E+01 -0.18798347997E+02 -0.50230429731E+02  0.54195447297E+02  0.00000000000E+00 0. -1.
<mgrwt>
<rscale>  0 0.28844272E+02</rscale>
<asrwt>0</asrwt>
<pdfrwt beam="2">  1        2 0.11870216E-01 0.20348229E+02</pdfrwt>
<pdfrwt beam="1">  1        1 0.78080260E-01 0.40887686E+02</pdfrwt>
<totfact> 0.27557042E+03</totfact>
</mgrwt>
</event>
<event>
 5    1  0.8891499E-003  0.1019410E+03  0.7546771E-02  0.1360097E+00
         -2   -1    0    0    0  501 -0.00000000000E+00  0.00000000000E+00  0.20562740928E+03  0.20562740928E+03  0.00000000000E+00 0.  1.
          2   -1    0    0  502    0  0.00000000000E+00 -0.00000000000E+00 -0.15475902612E+04  0.15475902612E+04  0.00000000000E+00 0. -1.
         25    1    1    2    0    0 -0.10020212112E+03  0.35244214146E+01 -0.62821203378E+03  0.64832726767E+03  0.12500000000E+03 0.  0.
          1    1    1    2  502    0  0.78959258394E+01 -0.47412380365E+02 -0.89527774127E+03  0.89656707138E+03  0.00000000000E+00 0. -1.
         -1    1    1    2    0  501  0.92306195282E+02  0.43887958950E+02  0.18152692309E+03  0.20832333147E+03  0.00000000000E+00 0.  1.
<mgrwt>
<rscale>  0 0.69998800E+02</rscale>
<asrwt>0</asrwt>
<pdfrwt beam="2">  1        2 0.23809081E+00 0.48065366E+02</pdfrwt>
<pdfrwt beam="1">  1       -2 0.31634986E-01 0.10194101E+03</pdfrwt>
<totfact> 0.13732121E+02</totfact>
</mgrwt>
</event>
<event>
 5    1  0.8891499E-003  0.6434814E+02  0.7546771E-02  0.1410802E+00
          2   -1    0    0  502    0  0.00000000000E+00  0.00000000000E+00  0.36845667651E+03  0.36845667651E+03  0.00000000000E+00 0. -1.
          1   -1    0    0  501    0 -0.00000000000E+00 -0.00000000000E+00 -0.89291712788E+03  0.89291712788E+03  0.00000000000E+00 0. -1.
         25    1    1    2    0    0  0.24774041308E+01 -0.18484338825E+02  0.21950904192E+02  0.12827568167E+03  0.12500000000E+03 0.  0.
          2    1    1    2  501    0  0.27826046649E+02 -0.42163518764E+02 -0.83506388328E+03  0.83659054521E+03  0.00000000000E+00 0. -1.
          1    1    1    2  502    0 -0.30303450779E+02  0.60647857589E+02  0.28865252772E+03  0.29650757750E+03  0.00000000000E+00 0. -1.
<mgrwt>
<rscale>  0 0.57015158E+02</rscale>
<asrwt>0</asrwt>
<pdfrwt beam="1">  1        2 0.56685643E-01 0.64348137E+02</pdfrwt>
<pdfrwt beam="2">  1        1 0.13737186E+00 0.50517830E+02</pdfrwt>
<totfact> 0.25477840E+02</totfact>
</mgrwt>
</event>
<event>
 5    1  0.8891499E-003  0.1949710E+03  0.7546771E-02  0.1251768E+00
          2   -1    0    0  502    0  0.00000000000E+00  0.00000000000E+00  0.26856124222E+04  0.26856124222E+04  0.00000000000E+00 0. -1.
          1   -1    0    0  501    0 -0.00000000000E+00 -0.00000000000E+00 -0.14035869315E+03  0.14035869315E+03  0.00000000000E+00 0. -1.
         25    1    1    2    0    0  0.58520371356E+02 -0.20832549504E+03  0.13199319402E+03  0.28261519601E+03  0.12500000000E+03 0.  0.
          2    1    1    2  501    0  0.49650030604E+01  0.18479885612E+03  0.67781597986E+02  0.19690000890E+03  0.00000000000E+00 0. -1.
          1    1    1    2  502    0 -0.63485374416E+02  0.23526638926E+02  0.23454789371E+04  0.23464559104E+04  0.00000000000E+00 0. -1.
<mgrwt>
<rscale>  0 0.11489303E+03</rscale>
<asrwt>0</asrwt>
<pdfrwt beam="1">  1        2 0.41317110E+00 0.67704472E+02</pdfrwt>
<pdfrwt beam="2">  1        1 0.21593647E-01 0.19497098E+03</pdfrwt>
<totfact> 0.12000099E+02</totfact>
</mgrwt>
</event>
<event>
 5    1  0.8891499E-003  0.1389683E+03  0.7546771E-02  0.1297827E+00
          2   -1    0    0  502    0  0.00000000000E+00  0.00000000000E+00  0.11569808212E+04  0.11569808212E+04  0.00000000000E+00 0. -1.
          1   -1    0    0  501    0 -0.00000000000E+00 -0.00000000000E+00 -0.15456354254E+04  0.15456354254E+04  0.00000000000E+00 0. -1.
         25    1    1    2    0    0  0.70984193257E+02 -0.17472088269E+03 -0.39904404139E+03  0.45872354366E+03  0.12500000000E+03 0.  0.
          2    1    1    2  501    0 -0.68297717543E+02  0.11373175787E+03 -0.11119792929E+04  0.11198649199E+04  0.00000000000E+00 0. -1.
          1    1    1    2  502    0 -0.26864757141E+01  0.60989124820E+02  0.11223687301E+04  0.11240277830E+04  0.00000000000E+00 0. -1.
<mgrwt>
<rscale>  0 0.92107416E+02</rscale>
<asrwt>0</asrwt>
<pdfrwt beam="1">  1        2 0.17799705E+00 0.61048264E+02</pdfrwt>
<pdfrwt beam="2">  1        1 0.23779007E+00 0.13896834E+03</pdfrwt>
<totfact> 0.22643156E+01</totfact>
</mgrwt>
</event>
<event>
 5    1  0.8891499E-003  0.8882823E+02  0.7546771E-02  0.1370635E+00
          1   -1    0    0  501    0 -0.00000000000E+00  0.00000000000E+00  0.91028287107E+02  0.91028287107E+02  0.00000000000E+00 0. -1.
          2   -1    0    0  502    0  0.00000000000E+00 -0.00000000000E+00 -0.88223754942E+03  0.88223754942E+03  0.00000000000E+00 0. -1.
         25    1    1    2    0    0 -0.20132444062E+02  0.97888539497E+02 -0.68101811629E+02  0.17392624361E+03  0.12500000000E+03 0.  0.
          2    1    1    2  501    0 -0.28269666067E+02 -0.83406509147E+02 -0.14883567639E+02  0.89315958111E+02  0.00000000000E+00 0. -1.
          1    1    1    2  502    0  0.48402110129E+02 -0.14482030350E+02 -0.70822388305E+03  0.71002363481E+03  0.00000000000E+00 0. -1.
<mgrwt>
<rscale>  0 0.66991033E+02</rscale>
<asrwt>0</asrwt>
<pdfrwt beam="2">  1        2 0.13572885E+00 0.50522208E+02</pdfrwt>
<pdfrwt beam="1">  1        1 0.14004352E-01 0.88828235E+02</pdfrwt>
<totfact> 0.17670306E+03</totfact>
</mgrwt>
</event>
<event>
 5    1  0.8891499E-003  0.1083469E+03  0.7546771E-02  0.1383323E+00
          2   -1    0    0  502    0  0.00000000000E+00  0.00000000000E+00  0.24135852066E+03  0.24135852066E+03  0.00000000000E+00 0. -1.
          1   -1    0    0  501    0 -0.00000000000E+00 -0.00000000000E+00 -0.29434718019E+03  0.29434718019E+03  0.00000000000E+00 0. -1.
         25    1    1    2    0    0  0.12879723587E+03  0.83562463410E+01 -0.61251355994E+02  0.18982961684E+03  0.12500000000E+03 0.  0.
          2    1    1    2  501    0 -0.10227643521E+03  0.17916822553E+02 -0.15046657219E+03  0.18281594864E+03  0.00000000000E+00 0. -1.
          1    1    1    2  502    0 -0.26520800660E+02 -0.26273068894E+02  0.15872926866E+03  0.16306013537E+03  0.00000000000E+00 0. -1.
<mgrwt>
<rscale>  0 0.63598208E+02</rscale>
<asrwt>0</asrwt>
<pdfrwt beam="1">  1        2 0.37132080E-01 0.37331314E+02</pdfrwt>
<pdfrwt beam="2">  1        1 0.45284182E-01 0.10834690E+03</pdfrwt>
<totfact> 0.16373266E+03</totfact>
</mgrwt>
</event>
<event>
 5    1  0.8891499E-003  0.1747326E+03  0.7546771E-02  0.1294218E+00
          1   -1    0    0  501    0 -0.00000000000E+00  0.00000000000E+00  0.12253015007E+04  0.12253015007E+04  0.00000000000E+00 0. -1.
          2   -1    0    0  502    0  0.00000000000E+00 -0.00000000000E+00 -0.28281930101E+03  0.28281930101E+03  0.00000000000E+00 0. -1.
         25    1    1    2    0    0 -0.10344610410E+03 -0.99350791879E+02  0.21792213919E+03  0.28928659673E+03  0.12500000000E+03 0.  0.
          2    1    1    2  501    0 -0.49781165953E+02  0.65161480547E+01  0.93846905604E+03  0.93981104155E+03  0.00000000000E+00 0. -1.
          1    1    1    2  502    0  0.15322727005E+03  0.92834643824E+02 -0.21390899551E+03  0.27902316345E+03  0.00000000000E+00 0. -1.
<mgrwt>
<rscale>  0 0.93662124E+02</rscale>
<asrwt>0</asrwt>
<pdfrwt beam="2">  1        2 0.43510663E-01 0.17473259E+03</pdfrwt>
<pdfrwt beam="1">  1        1 0.18850792E+00 0.50205823E+02</pdfrwt>
<totfact> 0.19945597E+02</totfact>
</mgrwt>
</event>
<event>
 5    1  0.8891499E-003  0.3265986E+03  0.7546771E-02  0.1287825E+00
          2   -1    0    0  502    0  0.00000000000E+00  0.00000000000E+00  0.19882615597E+04  0.19882615597E+04  0.00000000000E+00 0. -1.
          1   -1    0    0  501    0 -0.00000000000E+00 -0.00000000000E+00 -0.11942439755E+03  0.11942439755E+03  0.00000000000E+00 0. -1.
         25    1    1    2    0    0  0.14407077735E+03  0.30517588245E+03  0.74920613529E+03  0.83115795206E+03  0.12500000000E+03 0.  0.
          2    1    1    2  501    0 -0.15853818658E+03 -0.28060345631E+03  0.25380144933E+03  0.41022899944E+03  0.00000000000E+00 0. -1.
          1    1    1    2  502    0  0.14467409232E+02 -0.24572426145E+02  0.86582957756E+03  0.86629900579E+03  0.00000000000E+00 0. -1.
<mgrwt>
<rscale>  0 0.96503814E+02</rscale>
<asrwt>0</asrwt>
<pdfrwt beam="1">  1        2 0.30588637E+00 0.28515085E+02</pdfrwt>
<pdfrwt beam="2">  1        1 0.18372986E-01 0.32659858E+03</pdfrwt>
<totfact> 0.37659302E+02</totfact>
</mgrwt>
</event>
<event>
 5    1  0.8891499E-003  0.8101788E+02  0.7546771E-02  0.1460041E+00
          2   -1    0    0  502    0  0.00000000000E+00  0.00000000000E+00  0.36620014404E+03  0.36620014404E+03  0.00000000000E+00 0. -1.
         -2   -1    0    0    0  501 -0.00000000000E+00 -0.00000000000E+00 -0.12935046528E+03  0.12935046528E+03  0.00000000000E+00 0.  1.
         25    1    1    2    0    0  0.39087972036E+02 -0.43643558415E+02  0.10172533500E+03  0.17148082555E+03  0.12500000000E+03 0.  0.
          1    1    1    2  502    0 -0.58162878868E+02  0.63731612615E+02  0.21918826333E+03  0.23555919364E+03  0.00000000000E+00 0. -1.
         -1    1    1    2    0  501  0.19074906832E+02 -0.20088054200E+02 -0.84063919575E+02  0.88510590138E+02  0.00000000000E+00 0.  1.
<mgrwt>
<rscale>  0 0.47374358E+02</rscale>
<asrwt>0</asrwt>
<pdfrwt beam="1">  1        2 0.56338483E-01 0.81017881E+02</pdfrwt>
<pdfrwt beam="2">  1       -2 0.19900072E-01 0.27701660E+02</pdfrwt>
<totfact> 0.16976574E+03</totfact>
</mgrwt>
</event>
<event>
 5    1  0.8891499E-003  0.1250160E+03  0.7546771E-02  0.1421001E+00
          1   -1    0    0  502    0  0.00000000000E+00  0.00000000000E+00  0.58263192648E+03  0.58263192648E+03  0.00000000000E+00 0. -1.
         -1   -1    0    0    0  501 -0.00000000000E+00 -0.00000000000E+00 -0.52438057724E+03  0.52438057724E+03  0.00000000000E+00 0.  1.
         25    1    1    2    0    0 -0.11559076912E+03 -0.50726069672E+02 -0.37093661546E+03  0.41128254611E+03  0.12500000000E+03 0.  0.
          2    1    1    2  502    0  0.13094808696E+02 -0.20148237460E+02  0.53299924810E+03  0.53354064884E+03  0.00000000000E+00 0. -1.
         -2    1    1    2    0  501  0.10249596043E+03  0.70874307132E+02 -0.10381128341E+03  0.16218930877E+03  0.00000000000E+00 0.  1.
<mgrwt>
<rscale>  0 0.54809612E+02</rscale>
<asrwt>0</asrwt>
<pdfrwt beam="1">  1        1 0.89635681E-01 0.24029679E+02</pdfrwt>
<pdfrwt beam="2">  1       -1 0.80673935E-01 0.12501597E+03</pdfrwt>
<totfact> 0.65777601E+01</totfact>
</mgrwt>
</event>
<event>
 5    1  0.8891499E-003  0.1628233E+03  0.7546771E-02  0.1204210E+00
          2   -1    0    0  502    0  0.00000000000E+00  0.00000000000E+00  0.34649974549E+04  0.34649974549E+04  0.00000000000E+00 0. -1.
          1   -1    0    0  501    0 -0.00000000000E+00 -0.00000000000E+00 -0.19028341915E+03  0.19028341915E+03  0.00000000000E+00 0. -1.
         25    1    1    2    0    0  0.12517863149E+03  0.12608825316E+03  0.48422147004E+02  0.22257053194E+03  0.12500000000E+03 0.  0.
          2    1    1    2  501    0 -0.12727672680E+03  0.37593036977E+02 -0.57648518308E+02  0.14469261653E+03  0.00000000000E+00 0. -1.
          1    1    1    2  502    0  0.20980953088E+01 -0.16368129014E+03  0.32839404070E+04  0.32880177255E+04  0.00000000000E+00 0. -1.
<mgrwt>
<rscale>  0 0.14699892E+03</rscale>
<asrwt>0</asrwt>
<pdfrwt beam="1">  1        2 0.53307648E+00 0.16282330E+03</pdfrwt>
<pdfrwt beam="2">  1        1 0.29274375E-01 0.13271248E+03</pdfrwt>
<totfact> 0.24638640E+01</totfact>
</mgrwt>
</event>
<event>
 5    1  0.8891499E-003  0.1928523E+03  0.7546771E-02  0.1245721E+00
          2   -1    0    0  502    0  0.00000000000E+00  0.00000000000E+00  0.69413772996E+03  0.69413772996E+03  0.00000000000E+00 0. -1.
          1   -1    0    0  501    0 -0.00000000000E+00 -0.00000000000E+00 -0.82722322527E+03  0.82722322527E+03  0.00000000000E+00 0. -1.
         25    1    1    2    0    0 -0.89473489868E+02  0.10597850593E+03  0.28130602776E+03  0.33763150084E+03  0.12500000000E+03 0.  0.
          2    1    1    2  501    0  0.16214592208E+03 -0.10859083513E+03 -0.78354519318E+03  0.80748147921E+03  0.00000000000E+00 0. -1.
          1    1    1    2  502    0 -0.72672432210E+02  0.26123291947E+01  0.36915367011E+03  0.37624797517E+03  0.00000000000E+00 0. -1.
<mgrwt>
<rscale>  0 0.11842337E+03</rscale>
<asrwt>0</asrwt>
<pdfrwt beam="1">  1        2 0.10679042E+00 0.72719369E+02</pdfrwt>
<pdfrwt beam="2">  1        1 0.12726511E+00 0.19285227E+03</pdfrwt>
<totfact> 0.13452346E+02</totfact>
</mgrwt>
</event>
<event>
 5    1  0.8891499E-003  0.1586738E+03  0.7546771E-02  0.1251944E+00
          1   -1    0    0  501    0 -0.00000000000E+00  0.00000000000E+00  0.13551719855E+04  0.13551719855E+04  0.00000000000E+00 0. -1.
          2   -1    0    0  502    0  0.00000000000E+00 -0.00000000000E+00 -0.37820577343E+03  0.37820577343E+03  0.00000000000E+00 0. -1.
         25    1    1    2    0    0  0.59902923440E+02  0.89670521559E+02  0.25844981646E+03  0.30667649128E+03  0.12500000000E+03 0.  0.
          2    1    1    2  501    0 -0.14178468384E+03 -0.10352827167E+03  0.10604211729E+04  0.10748553687E+04  0.00000000000E+00 0. -1.
          1    1    1    2  502    0  0.81881760399E+02  0.13857750106E+02 -0.34190477727E+03  0.35184589901E+03  0.00000000000E+00 0. -1.
<mgrwt>
<rscale>  0 0.11479217E+03</rscale>
<asrwt>0</asrwt>
<pdfrwt beam="2">  1        2 0.58185504E-01 0.83046131E+02</pdfrwt>
<pdfrwt beam="1">  1        1 0.20848800E+00 0.15867376E+03</pdfrwt>
<totfact> 0.10924337E+02</totfact>
</mgrwt>
</event>
<event>
 5    1  0.8891499E-003  0.7082590E+02  0.7546771E-02  0.1374802E+00
          1   -1    0    0  502    0  0.00000000000E+00  0.00000000000E+00  0.21366171912E+04  0.21366171912E+04  0.00000000000E+00 0. -1.
         -1   -1    0    0    0  501 -0.00000000000E+00 -0.00000000000E+00 -0.18068264080E+03  0.18068264080E+03  0.00000000000E+00 0.  1.
         25    1    1    2    0    0 -0.13295552451E+01 -0.36713368205E+02 -0.31575612330E+02  0.13405841419E+03  0.12500000000E+03 0.  0.
          2    1    1    2  502    0  0.51564781793E+02 -0.33006586300E+02  0.20659707419E+04  0.20668777099E+04  0.00000000000E+00 0. -1.
         -2    1    1    2    0  501 -0.50235226548E+02  0.69719954506E+02 -0.78460579123E+02  0.11636370791E+03  0.00000000000E+00 0.  1.
<mgrwt>
<rscale>  0 0.65850097E+02</rscale>
<asrwt>0</asrwt>
<pdfrwt beam="1">  1        1 0.32871032E+00 0.61223863E+02</pdfrwt>
<pdfrwt beam="2">  1       -1 0.27797331E-01 0.70825902E+02</pdfrwt>
<totfact> 0.38086185E+01</totfact>
</mgrwt>
</event>
<event>
 5    1  0.8891499E-003  0.9042354E+02  0.7546771E-02  0.1468748E+00
          1   -1    0    0  501    0 -0.00000000000E+00  0.00000000000E+00  0.11395958140E+03  0.11395958140E+03  0.00000000000E+00 0. -1.
          2   -1    0    0  502    0  0.00000000000E+00 -0.00000000000E+00 -0.79339302872E+03  0.79339302872E+03  0.00000000000E+00 0. -1.
         25    1    1    2    0    0 -0.66797014064E+02  0.21637219571E+02 -0.21152947522E+03  0.25553811701E+03  0.12500000000E+03 0.  0.
          2    1    1    2  501    0  0.85186428841E+02 -0.35958388505E+02  0.68393694550E+02  0.11501056828E+03  0.00000000000E+00 0. -1.
          1    1    1    2  502    0 -0.18389414777E+02  0.14321168934E+02 -0.53629766666E+03  0.53680392484E+03  0.00000000000E+00 0. -1.
<mgrwt>
<rscale>  0 0.45908592E+02</rscale>
<asrwt>0</asrwt>
<pdfrwt beam="2">  1        2 0.12206047E+00 0.23308077E+02</pdfrwt>
<pdfrwt beam="1">  1        1 0.17532243E-01 0.90423537E+02</pdfrwt>
<totfact> 0.15542142E+03</totfact>
</mgrwt>
</event>
<event>
 5    1  0.8891499E-003  0.5864538E+02  0.7546771E-02  0.1463347E+00
          2   -1    0    0  502    0  0.00000000000E+00  0.00000000000E+00  0.11137498463E+04  0.11137498463E+04  0.00000000000E+00 0. -1.
         -2   -1    0    0    0  501 -0.00000000000E+00 -0.00000000000E+00 -0.43110019534E+03  0.43110019534E+03  0.00000000000E+00 0.  1.
         25    1    1    2    0    0 -0.80081814102E+01 -0.89508370336E+02  0.21292937795E+03  0.26275425653E+03  0.12500000000E+03 0.  0.
          1    1    1    2  502    0  0.19803457275E+02  0.54055486080E+02  0.87409993526E+03  0.87599364685E+03  0.00000000000E+00 0. -1.
         -1    1    1    2    0  501 -0.11795275865E+02  0.35452884256E+02 -0.40437966221E+03  0.40610213831E+03  0.00000000000E+00 0.  1.
<mgrwt>
<rscale>  0 0.46810256E+02</rscale>
<asrwt>0</asrwt>
<pdfrwt beam="1">  1        2 0.17134613E+00 0.58645379E+02</pdfrwt>
<pdfrwt beam="2">  1       -2 0.66323107E-01 0.37363559E+02</pdfrwt>
<totfact> 0.54229989E+01</totfact>
</mgrwt>
</event>
<event>
 5    1  0.8891499E-003  0.6837425E+02  0.7546771E-02  0.1393736E+00
          1   -1    0    0  502    0  0.00000000000E+00  0.00000000000E+00  0.12163301777E+02  0.12163301777E+02  0.00000000000E+00 0. -1.
         -1   -1    0    0    0  501 -0.00000000000E+00 -0.00000000000E+00 -0.15375221309E+04  0.15375221309E+04  0.00000000000E+00 0.  1.
         25    1    1    2    0    0 -0.63153331449E+02 -0.51955186999E+02 -0.87739744818E+03  0.89002189119E+03  0.12500000000E+03 0.  0.
          2    1    1    2  502    0  0.11038562383E+02  0.67549058380E+02 -0.39905805357E+03  0.40488523715E+03  0.00000000000E+00 0. -1.
         -2    1    1    2    0  501  0.52114769066E+02 -0.15593871381E+02 -0.24890332736E+03  0.25477830432E+03  0.00000000000E+00 0.  1.
<mgrwt>
<rscale>  0 0.60986943E+02</rscale>
<asrwt>0</asrwt>
<pdfrwt beam="1">  1        1 0.18712774E-02 0.68374253E+02</pdfrwt>
<pdfrwt beam="2">  1       -1 0.23654184E+00 0.54397776E+02</pdfrwt>
<totfact> 0.63651940E+02</totfact>
</mgrwt>
</event>
<event>
 5    1  0.8891499E-003  0.5181995E+02  0.7546771E-02  0.1483255E+00
          1   -1    0    0  501    0 -0.00000000000E+00  0.00000000000E+00  0.56420622244E+03  0.56420622244E+03  0.00000000000E+00 0. -1.
          2   -1    0    0  502    0  0.00000000000E+00 -0.00000000000E+00 -0.64626240477E+03  0.64626240477E+03  0.00000000000E+00 0. -1.
         25    1    1    2    0    0  0.72895003858E+02  0.92653199496E+01 -0.14673977644E+03  0.20629369775E+03  0.12500000000E+03 0.  0.
          2    1    1    2  501    0 -0.30836457700E+02  0.19880022261E+02  0.53240254112E+03  0.53366522109E+03  0.00000000000E+00 0. -1.
          1    1    1    2  502    0 -0.42058546157E+02 -0.29145342211E+02 -0.46771894701E+03  0.47050970837E+03  0.00000000000E+00 0. -1.
<mgrwt>
<rscale>  0 0.43603166E+02</rscale>
<asrwt>0</asrwt>
<pdfrwt beam="2">  1        2 0.99424985E-01 0.51819952E+02</pdfrwt>
<pdfrwt beam="1">  1        1 0.86800957E-01 0.36689268E+02</pdfrwt>
<totfact> 0.26826579E+02</totfact>
</mgrwt>
</event>
<event>
 5    1  0.8891499E-003  0.2693995E+03  0.7546771E-02  0.1283143E+00
          2   -1    0    0  502    0  0.00000000000E+00  0.00000000000E+00  0.21098074124E+03  0.21098074124E+03  0.00000000000E+00 0. -1.
          1   -1    0    0  501    0 -0.00000000000E+00 -0.00000000000E+00 -0.17956442045E+04  0.17956442045E+04  0.00000000000E+00 0. -1.
         25    1    1    2    0    0 -0.25801405902E+03 -0.17366626042E+02 -0.12624620800E+03  0.31374505476E+03  0.12500000000E+03 0.  0.
          2    1    1    2  501    0  0.27047555206E+03 -0.16546653652E+02 -0.15608831023E+04  0.15842306887E+04  0.00000000000E+00 0. -1.
          1    1    1    2  502    0 -0.12461493048E+02  0.33913279694E+02  0.10246584703E+03  0.10864920228E+03  0.00000000000E+00 0. -1.
<mgrwt>
<rscale>  0 0.98658440E+02</rscale>
<asrwt>0</asrwt>
<pdfrwt beam="1">  1        2 0.32458576E-01 0.36130311E+02</pdfrwt>
<pdfrwt beam="2">  1        1 0.27625295E+00 0.26939950E+03</pdfrwt>
<totfact> 0.96585559E+01</totfact>
</mgrwt>
</event>
<event>
 5    1  0.8891499E-003  0.1123303E+03  0.7546771E-02  0.1316583E+00
          2   -1    0    0  502    0  0.00000000000E+00  0.00000000000E+00  0.48668546365E+03  0.48668546365E+03  0.00000000000E+00 0. -1.
          1   -1    0    0  501    0 -0.00000000000E+00 -0.00000000000E+00 -0.12445009364E+04  0.12445009364E+04  0.00000000000E+00 0. -1.
         25    1    1    2    0    0  0.25465581462E+02 -0.10678562042E+03 -0.17873677276E+02  0.16732044976E+03  0.12500000000E+03 0.  0.
          2    1    1    2  501    0 -0.63654644197E+02 -0.57562652419E+00 -0.11431214835E+04  0.11448925588E+04  0.00000000000E+00 0. -1.
          1    1    1    2  502    0  0.38189062735E+02  0.10736124694E+03  0.40317968810E+03  0.41897339146E+03  0.00000000000E+00 0. -1.
<mgrwt>
<rscale>  0 0.84561462E+02</rscale>
<asrwt>0</asrwt>
<pdfrwt beam="1">  1        2 0.74874689E-01 0.11233035E+03</pdfrwt>
<pdfrwt beam="2">  1        1 0.19146168E+00 0.63657247E+02</pdfrwt>
<totfact> 0.10645507E+02</totfact>
</mgrwt>
</event>
<event>
 5    1  0.8891499E-003  0.1053727E+03  0.7546771E-02  0.1383990E+00
          1   -1    0    0  501    0 -0.00000000000E+00  0.00000000000E+00  0.73149473715E+02  0.73149473715E+02  0.00000000000E+00 0. -1.
          2   -1    0    0  502    0  0.00000000000E+00 -0.00000000000E+00 -0.39175344354E+03  0.39175344354E+03  0.00000000000E+00 0. -1.
         25    1    1    2    0    0 -0.63187151682E+02  0.46223771272E+02 -0.10868971260E+03  0.18321491968E+03  0.12500000000E+03 0.  0.
          2    1    1    2  501    0 -0.34056047960E+02  0.17255299033E+02  0.38958647743E+01  0.38376262321E+02  0.00000000000E+00 0. -1.
          1    1    1    2  502    0  0.97243199641E+02 -0.63479070305E+02 -0.21381012200E+03  0.24331173526E+03  0.00000000000E+00 0. -1.
<mgrwt>
<rscale>  0 0.63426481E+02</rscale>
<asrwt>0</asrwt>
<pdfrwt beam="2">  1        2 0.60269761E-01 0.10537268E+03</pdfrwt>
<pdfrwt beam="1">  1        1 0.11253765E-01 0.38178001E+02</pdfrwt>
<totfact> 0.53971206E+03</totfact>
</mgrwt>
</event>
<event>
 5    1  0.8891499E-003  0.1031844E+03  0.7546771E-02  0.1367524E+00
          1   -1    0    0  501    0 -0.00000000000E+00  0.00000000000E+00  0.55817674776E+03  0.55817674776E+03  0.00000000000E+00 0. -1.
          2   -1    0    0  502    0  0.00000000000E+00 -0.00000000000E+00 -0.69143680207E+03  0.69143680207E+03  0.00000000000E+00 0. -1.
         25    1    1    2    0    0  0.39835475273E+02  0.56415585108E+02 -0.11147286345E+03  0.18116507008E+03  0.12500000000E+03 0.  0.
          2    1    1    2  501    0  0.41903141248E+02  0.15358703593E+02  0.51693289069E+03  0.51885583403E+03  0.00000000000E+00 0. -1.
          1    1    1    2  502    0 -0.81738616521E+02 -0.71774288701E+02 -0.53872008156E+03  0.54959264572E+03  0.00000000000E+00 0. -1.
<mgrwt>
<rscale>  0 0.67860408E+02</rscale>
<asrwt>0</asrwt>
<pdfrwt beam="2">  1        2 0.10637489E+00 0.10318441E+03</pdfrwt>
<pdfrwt beam="1">  1        1 0.85873346E-01 0.44629172E+02</pdfrwt>
<totfact> 0.24570229E+02</totfact>
</mgrwt>
</event>
<event>
 5    1  0.8891499E-003  0.4295297E+02  0.7546771E-02  0.1548124E+00
         -2   -1    0    0    0  501  0.00000000000E+00  0.00000000000E+00  0.30310698221E+03  0.30310698221E+03  0.00000000000E+00 0.  1.
         -1   -1    0    0    0  502 -0.00000000000E+00 -0.00000000000E+00 -0.49694002618E+03  0.49694002618E+03  0.00000000000E+00 0.  1.
         25    1    1    2    0    0 -0.31770103651E+02 -0.37297762458E+02 -0.38955418271E+02  0.13979623451E+03  0.12500000000E+03 0.  0.
         -2    1    1    2    0  502 -0.99465404541E+01  0.26822275700E+02 -0.40522593872E+03  0.40623445146E+03  0.00000000000E+00 0.  1.
         -1    1    1    2    0  501  0.41716644105E+02  0.10475486758E+02  0.25034831303E+03  0.25401632241E+03  0.00000000000E+00 0.  1.
<mgrwt>
<rscale>  0 0.35053694E+02</rscale>
<asrwt>0</asrwt>
<pdfrwt beam="1">  1       -2 0.46631844E-01 0.42952973E+02</pdfrwt>
<pdfrwt beam="2">  1       -1 0.76452311E-01 0.28607134E+02</pdfrwt>
<totfact> 0.62377538E+01</totfact>
</mgrwt>
</event>
<event>
 5    1  0.8891499E-003  0.1200989E+03  0.7546771E-02  0.1245265E+00
          2   -1    0    0  502    0  0.00000000000E+00  0.00000000000E+00  0.32818649378E+03  0.32818649378E+03  0.00000000000E+00 0. -1.
          1   -1    0    0  501    0 -0.00000000000E+00 -0.00000000000E+00 -0.11151858971E+04  0.11151858971E+04  0.00000000000E+00 0. -1.
         25    1    1    2    0    0  0.10431875774E+03 -0.14756010362E+03 -0.63990496349E+02  0.22885840823E+03  0.12500000000E+03 0.  0.
          2    1    1    2  501    0  0.94028134072E+01  0.11877238520E+03 -0.95082942853E+03  0.95826504400E+03  0.00000000000E+00 0. -1.
          1    1    1    2  502    0 -0.11372157115E+03  0.28787718418E+02  0.22782052160E+03  0.25624893861E+03  0.00000000000E+00 0. -1.
<mgrwt>
<rscale>  0 0.11869557E+03</rscale>
<asrwt>0</asrwt>
<pdfrwt beam="1">  1        2 0.50490229E-01 0.11730869E+03</pdfrwt>
<pdfrwt beam="2">  1        1 0.17156706E+00 0.12009885E+03</pdfrwt>
<totfact> 0.18859911E+02</totfact>
</mgrwt>
</event>
<event>
 5    1  0.8891499E-003  0.6637261E+02  0.7546771E-02  0.1519497E+00
          1   -1    0    0  501    0 -0.00000000000E+00  0.00000000000E+00  0.38497005953E+02  0.38497005953E+02  0.00000000000E+00 0. -1.
          2   -1    0    0  502    0  0.00000000000E+00 -0.00000000000E+00 -0.90443408184E+03  0.90443408184E+03  0.00000000000E+00 0. -1.
         25    1    1    2    0    0  0.83873610154E+02 -0.25421399799E+02 -0.15958144194E+03  0.22084443995E+03  0.12500000000E+03 0.  0.
          2    1    1    2  501    0 -0.21254838898E+02  0.68780495870E+01 -0.13379635101E+02  0.26040168550E+02  0.00000000000E+00 0. -1.
          1    1    1    2  502    0 -0.62618771256E+02  0.18543350212E+02 -0.69297599885E+03  0.69604647929E+03  0.00000000000E+00 0. -1.
<mgrwt>
<rscale>  0 0.38506680E+02</rscale>
<asrwt>0</asrwt>
<pdfrwt beam="2">  1        2 0.13914369E+00 0.66372614E+02</pdfrwt>
<pdfrwt beam="1">  1        1 0.59226170E-02 0.22340003E+02</pdfrwt>
<totfact> 0.45374916E+03</totfact>
</mgrwt>
</event>
<event>
 5    1  0.8891499E-003  0.7849069E+02  0.7546771E-02  0.1398349E+00
          2   -1    0    0  502    0  0.00000000000E+00  0.00000000000E+00  0.15058256167E+04  0.15058256167E+04  0.00000000000E+00 0. -1.
          1   -1    0    0  501    0 -0.00000000000E+00 -0.00000000000E+00 -0.19613455455E+04  0.19613455455E+04  0.00000000000E+00 0. -1.
         25    1    1    2    0    0 -0.81964364744E+02  0.44778094829E+02  0.10970612592E+03  0.19074503645E+03  0.12500000000E+03 0.  0.
          2    1    1    2  501    0  0.35723685337E+01 -0.45537421978E+02 -0.19194207258E+04  0.19199641510E+04  0.00000000000E+00 0. -1.
          1    1    1    2  502    0  0.78391996210E+02  0.75932714975E+00  0.13541946711E+04  0.13564619747E+04  0.00000000000E+00 0. -1.
<mgrwt>
<rscale>  0 0.59876918E+02</rscale>
<asrwt>0</asrwt>
<pdfrwt beam="1">  1        2 0.23166548E+00 0.78490692E+02</pdfrwt>
<pdfrwt beam="2">  1        1 0.30174547E+00 0.45677332E+02</pdfrwt>
<totfact> 0.91300384E+00</totfact>
</mgrwt>
</event>
<event>
 5    1  0.8891499E-003  0.8141316E+02  0.7546771E-02  0.1419529E+00
          2   -1    0    0  502    0  0.00000000000E+00  0.00000000000E+00  0.11090365918E+04  0.11090365918E+04  0.00000000000E+00 0. -1.
          1   -1    0    0  501    0 -0.00000000000E+00 -0.00000000000E+00 -0.76603465668E+02  0.76603465668E+02  0.00000000000E+00 0. -1.
         25    1    1    2    0    0 -0.51483550658E+02 -0.42025227197E+02  0.41639066335E+03  0.43979865875E+03  0.12500000000E+03 0.  0.
          2    1    1    2  501    0  0.13001153074E+02 -0.34981446518E+02 -0.56554311759E+02  0.67757816968E+02  0.00000000000E+00 0. -1.
          1    1    1    2  502    0  0.38482397584E+02  0.77006673714E+02  0.67259677450E+03  0.67808358172E+03  0.00000000000E+00 0. -1.
<mgrwt>
<rscale>  0 0.55120628E+02</rscale>
<asrwt>0</asrwt>
<pdfrwt beam="1">  1        2 0.17062100E+00 0.81413158E+02</pdfrwt>
<pdfrwt beam="2">  1        1 0.11785149E-01 0.37319319E+02</pdfrwt>
<totfact> 0.15042493E+03</totfact>
</mgrwt>
</event>
<event>
 5    1  0.8891499E-003  0.7621524E+02  0.7546771E-02  0.1485569E+00
          2   -1    0    0  502    0  0.00000000000E+00  0.00000000000E+00  0.83014037298E+03  0.83014037298E+03  0.00000000000E+00 0. -1.
          1   -1    0    0  501    0 -0.00000000000E+00 -0.00000000000E+00 -0.13223775415E+03  0.13223775415E+03  0.00000000000E+00 0. -1.
         25    1    1    2    0    0 -0.94288765222E+01  0.99383367466E+02  0.47730696528E+03  0.50340132751E+03  0.12500000000E+03 0.  0.
          2    1    1    2  501    0  0.35482495508E+01 -0.75554546728E+02 -0.10668476779E+03  0.13077736533E+03  0.00000000000E+00 0. -1.
          1    1    1    2  502    0  0.58806269714E+01 -0.23828820738E+02  0.32728042134E+03  0.32819943428E+03  0.00000000000E+00 0. -1.
<mgrwt>
<rscale>  0 0.43250504E+02</rscale>
<asrwt>0</asrwt>
<pdfrwt beam="1">  1        2 0.12771390E+00 0.24543726E+02</pdfrwt>
<pdfrwt beam="2">  1        1 0.20344270E-01 0.76215245E+02</pdfrwt>
<totfact> 0.12138353E+03</totfact>
</mgrwt>
</event>
<event>
 5    1  0.8891499E-003  0.3114852E+02  0.7546771E-02  0.1640487E+00
          2   -1    0    0  502    0  0.00000000000E+00  0.00000000000E+00  0.99232051126E+03  0.99232051126E+03  0.00000000000E+00 0. -1.
          1   -1    0    0  501    0 -0.00000000000E+00 -0.00000000000E+00 -0.25782255570E+03  0.25782255570E+03  0.00000000000E+00 0. -1.
         25    1    1    2    0    0 -0.18278656854E+02  0.14776696325E+02  0.42150419854E+02  0.13399297722E+03  0.12500000000E+03 0.  0.
          2    1    1    2  501    0  0.31119021093E+02  0.37327574506E+01 -0.21060108100E+03  0.21292050693E+03  0.00000000000E+00 0. -1.
          3    1    1    2  502    0 -0.12840364239E+02 -0.18509453776E+02  0.90294861671E+03  0.90322958280E+03  0.00000000000E+00 0. -1.
<mgrwt>
<rscale>  0 0.26489413E+02</rscale>
<asrwt>0</asrwt>
<pdfrwt beam="1">  1        2 0.15266469E+00 0.22527202E+02</pdfrwt>
<pdfrwt beam="2">  1        1 0.39665009E-01 0.31148521E+02</pdfrwt>
<totfact> 0.42961055E+02</totfact>
</mgrwt>
</event>
<event>
 5    1  0.8891499E-003  0.5860350E+02  0.7546771E-02  0.1407037E+00
          1   -1    0    0  501    0 -0.00000000000E+00  0.00000000000E+00  0.20291379510E+02  0.20291379510E+02  0.00000000000E+00 0. -1.
          2   -1    0    0  502    0  0.00000000000E+00 -0.00000000000E+00 -0.14422410443E+04  0.14422410443E+04  0.00000000000E+00 0. -1.
         25    1    1    2    0    0  0.84969806575E+01 -0.28153007747E+02 -0.61452423978E+03  0.62779760417E+03  0.12500000000E+03 0.  0.
          2    1    1    2  501    0 -0.63347959813E+02  0.12191152702E+02 -0.70354193740E+02  0.95453134016E+02  0.00000000000E+00 0. -1.
          1    1    1    2  502    0  0.54850979155E+02  0.15961855044E+02 -0.73707123123E+03  0.73928168558E+03  0.00000000000E+00 0. -1.
<mgrwt>
<rscale>  0 0.57860172E+02</rscale>
<asrwt>0</asrwt>
<pdfrwt beam="2">  1        2 0.22188331E+00 0.57126270E+02</pdfrwt>
<pdfrwt beam="1">  1        1 0.31217497E-02 0.58603503E+02</pdfrwt>
<totfact> 0.61290351E+03</totfact>
</mgrwt>
</event>
<event>
 5    1  0.8891499E-003  0.7916544E+02  0.7546771E-02  0.1508234E+00
          1   -1    0    0  501    0 -0.00000000000E+00  0.00000000000E+00  0.16226021873E+04  0.16226021873E+04  0.00000000000E+00 0. -1.
          2   -1    0    0  502    0  0.00000000000E+00 -0.00000000000E+00 -0.69527449260E+03  0.69527449260E+03  0.00000000000E+00 0. -1.
         25    1    1    2    0    0 -0.31991306386E+02  0.86395719110E+02  0.19463107363E+03  0.24898578029E+03  0.12500000000E+03 0.  0.
          2    1    1    2  501    0  0.18312738456E+02 -0.85438350114E+01  0.13983825135E+04  0.13985285151E+04  0.00000000000E+00 0. -1.
          1    1    1    2  502    0  0.13678567931E+02 -0.77851884099E+02 -0.66568589247E+03  0.67036238447E+03  0.00000000000E+00 0. -1.
<mgrwt>
<rscale>  0 0.39996951E+02</rscale>
<asrwt>0</asrwt>
<pdfrwt beam="2">  1        2 0.10696531E+00 0.79165441E+02</pdfrwt>
<pdfrwt beam="1">  1        1 0.24963110E+00 0.20207759E+02</pdfrwt>
<totfact> 0.47375769E+01</totfact>
</mgrwt>
</event>
<event>
 5    1  0.8891499E-003  0.3356839E+02  0.7546771E-02  0.1641826E+00
          2   -1    0    0  502    0  0.00000000000E+00  0.00000000000E+00  0.10336792025E+04  0.10336792025E+04  0.00000000000E+00 0. -1.
          1   -1    0    0  501    0 -0.00000000000E+00 -0.00000000000E+00 -0.19299084393E+03  0.19299084393E+03  0.00000000000E+00 0. -1.
         25    1    1    2    0    0 -0.77673780973E+01  0.11561417296E+02  0.34885433286E+03  0.37083465869E+03  0.12500000000E+03 0.  0.
          2    1    1    2  501    0 -0.15801644217E+02  0.13439665271E+02 -0.18096977840E+03  0.18215481673E+03  0.00000000000E+00 0. -1.
          1    1    1    2  502    0  0.23569022314E+02 -0.25001082567E+02  0.67280380413E+03  0.67368057103E+03  0.00000000000E+00 0. -1.
<mgrwt>
<rscale>  0 0.26388353E+02</rscale>
<asrwt>0</asrwt>
<pdfrwt beam="1">  1        2 0.15902757E+00 0.33568391E+02</pdfrwt>
<pdfrwt beam="2">  1        1 0.29690900E-01 0.20744073E+02</pdfrwt>
<totfact> 0.55242381E+02</totfact>
</mgrwt>
</event>
<event>
 5    1  0.8891499E-003  0.7081817E+02  0.7546771E-02  0.1395589E+00
          1   -1    0    0  501    0 -0.00000000000E+00  0.00000000000E+00  0.25729718599E+03  0.25729718599E+03  0.00000000000E+00 0. -1.
          2   -1    0    0  502    0  0.00000000000E+00 -0.00000000000E+00 -0.20085133883E+03  0.20085133883E+03  0.00000000000E+00 0. -1.
         25    1    1    2    0    0  0.47250431987E+02 -0.86045430330E+02  0.69583280180E+02  0.17350288840E+03  0.12500000000E+03 0.  0.
          2    1    1    2  501    0 -0.58004633653E+02  0.35425721150E+02  0.12215687433E+03  0.13979206411E+03  0.00000000000E+00 0. -1.
          1    1    1    2  502    0  0.10754201666E+02  0.50619709180E+02 -0.13529430734E+03  0.14485357231E+03  0.00000000000E+00 0. -1.
<mgrwt>
<rscale>  0 0.60537616E+02</rscale>
<asrwt>0</asrwt>
<pdfrwt beam="2">  1        2 0.30900206E-01 0.51749472E+02</pdfrwt>
<pdfrwt beam="1">  1        1 0.39584183E-01 0.70818172E+02</pdfrwt>
<totfact> 0.23465188E+03</totfact>
</mgrwt>
</event>
<event>
 5    1  0.8891499E-003  0.6126838E+02  0.7546771E-02  0.1438614E+00
          1   -1    0    0  501    0 -0.00000000000E+00  0.00000000000E+00  0.79424996839E+01  0.79424996839E+01  0.00000000000E+00 0. -1.
          2   -1    0    0  502    0  0.00000000000E+00 -0.00000000000E+00 -0.28662169419E+04  0.28662169419E+04  0.00000000000E+00 0. -1.
         25    1    1    2    0    0  0.39079242434E+02  0.70216461644E+02 -0.92707412739E+03  0.93890839615E+03  0.12500000000E+03 0.  0.
          2    1    1    2  501    0 -0.41765012694E+02 -0.98104018376E+01 -0.31359295520E+03  0.31651398361E+03  0.00000000000E+00 0. -1.
          1    1    1    2  502    0  0.26857702601E+01 -0.60406059806E+02 -0.16176073596E+04  0.16187370618E+04  0.00000000000E+00 0. -1.
<mgrwt>
<rscale>  0 0.51269101E+02</rscale>
<asrwt>0</asrwt>
<pdfrwt beam="2">  1        2 0.44095689E+00 0.61268378E+02</pdfrwt>
<pdfrwt beam="1">  1        1 0.12219218E-02 0.42901751E+02</pdfrwt>
<totfact> 0.39223795E+03</totfact>
</mgrwt>
</event>
<event>
 5    1  0.8891499E-003  0.1240155E+03  0.7546771E-02  0.1360555E+00
          2   -1    0    0  502    0  0.00000000000E+00  0.00000000000E+00  0.15895005829E+04  0.15895005829E+04  0.00000000000E+00 0. -1.
         -2   -1    0    0    0  501 -0.00000000000E+00 -0.00000000000E+00 -0.95772589261E+02  0.95772589261E+02  0.00000000000E+00 0.  1.
         25    1    1    2    0    0  0.58480079984E+02 -0.12237690591E+03  0.13164333520E+03  0.22660757833E+03  0.12500000000E+03 0.  0.
          1    1    1    2  502    0 -0.39224169505E+02  0.32439344957E+01  0.13342340489E+04  0.13348144275E+04  0.00000000000E+00 0. -1.
         -1    1    1    2    0  501 -0.19255910479E+02  0.11913297141E+03  0.27850609612E+02  0.12385116641E+03  0.00000000000E+00 0.  1.
<mgrwt>
<rscale>  0 0.69864241E+02</rscale>
<asrwt>0</asrwt>
<pdfrwt beam="1">  1        2 0.24453853E+00 0.39358082E+02</pdfrwt>
<pdfrwt beam="2">  1       -2 0.14734246E-01 0.12401550E+03</pdfrwt>
<totfact> 0.49485723E+02</totfact>
</mgrwt>
</event>
<event>
 5    1  0.8891499E-003  0.9921160E+02  0.7546771E-02  0.1378335E+00
          1   -1    0    0  501    0 -0.00000000000E+00  0.00000000000E+00  0.40415811267E+03  0.40415811267E+03  0.00000000000E+00 0. -1.
          2   -1    0    0  502    0  0.00000000000E+00 -0.00000000000E+00 -0.11359581332E+04  0.11359581332E+04  0.00000000000E+00 0. -1.
         25    1    1    2    0    0  0.11911277726E+03  0.42278147978E+02 -0.65276042548E+03  0.67653268108E+03  0.12500000000E+03 0.  0.
          2    1    1    2  501    0 -0.29938092206E+02 -0.30108056950E+02  0.38680302899E+03  0.38912641609E+03  0.00000000000E+00 0. -1.
          1    1    1    2  502    0 -0.89174685054E+02 -0.12170091028E+02 -0.46584262408E+03  0.47445714873E+03  0.00000000000E+00 0. -1.
<mgrwt>
<rscale>  0 0.64903358E+02</rscale>
<asrwt>0</asrwt>
<pdfrwt beam="2">  1        2 0.17476279E+00 0.99211596E+02</pdfrwt>
<pdfrwt beam="1">  1        1 0.62178171E-01 0.42459209E+02</pdfrwt>
<totfact> 0.19341692E+02</totfact>
</mgrwt>
</event>
<event>
 5    1  0.8891499E-003  0.1383979E+03  0.7546771E-02  0.1260836E+00
          1   -1    0    0  501    0 -0.00000000000E+00  0.00000000000E+00  0.12698217904E+04  0.12698217904E+04  0.00000000000E+00 0. -1.
          2   -1    0    0  502    0  0.00000000000E+00 -0.00000000000E+00 -0.21167233465E+03  0.21167233465E+03  0.00000000000E+00 0. -1.
         25    1    1    2    0    0 -0.12992262815E+03  0.61578620183E+02  0.82735535010E+03  0.84900747412E+03  0.12500000000E+03 0.  0.
          2    1    1    2  501    0 -0.67643233999E+01 -0.86938399549E+02  0.40234071649E+03  0.41168202964E+03  0.00000000000E+00 0. -1.
          1    1    1    2  502    0  0.13668695155E+03  0.25359779366E+02 -0.17154661078E+03  0.22080462134E+03  0.00000000000E+00 0. -1.
<mgrwt>
<rscale>  0 0.10985653E+03</rscale>
<asrwt>0</asrwt>
<pdfrwt beam="2">  1        2 0.32564975E-01 0.13839791E+03</pdfrwt>
<pdfrwt beam="1">  1        1 0.19535719E+00 0.87201155E+02</pdfrwt>
<totfact> 0.24226759E+02</totfact>
</mgrwt>
</event>
<event>
 5    1  0.8891499E-003  0.6662160E+02  0.7546771E-02  0.1425062E+00
          2   -1    0    0  502    0  0.00000000000E+00  0.00000000000E+00  0.45200399929E+03  0.45200399929E+03  0.00000000000E+00 0. -1.
          1   -1    0    0  501    0 -0.00000000000E+00 -0.00000000000E+00 -0.15434571060E+03  0.15434571060E+03  0.00000000000E+00 0. -1.
         25    1    1    2    0    0  0.58730652358E+02  0.25028807685E+02  0.44669288120E+02  0.14729587924E+03  0.12500000000E+03 0.  0.
          2    1    1    2  501    0  0.64146068503E+01 -0.43238198489E+02 -0.94988230967E+02  0.10456315322E+03  0.00000000000E+00 0. -1.
          1    1    1    2  502    0 -0.65145259208E+02  0.18209390804E+02  0.34797723154E+03  0.35449067742E+03  0.00000000000E+00 0. -1.
<mgrwt>
<rscale>  0 0.53964110E+02</rscale>
<asrwt>0</asrwt>
<pdfrwt beam="1">  1        2 0.69539076E-01 0.66621598E+02</pdfrwt>
<pdfrwt beam="2">  1        1 0.23745494E-01 0.43711429E+02</pdfrwt>
<totfact> 0.18634200E+03</totfact>
</mgrwt>
</event>
<event>
 5    1  0.8891499E-003  0.6804981E+02  0.7546771E-02  0.1419390E+00
          2   -1    0    0  502    0  0.00000000000E+00  0.00000000000E+00  0.65273198953E+03  0.65273198953E+03  0.00000000000E+00 0. -1.
          1   -1    0    0  501    0 -0.00000000000E+00 -0.00000000000E+00 -0.33727762092E+03  0.33727762092E+03  0.00000000000E+00 0. -1.
         25    1    1    2    0    0  0.14045701539E+02  0.29721916925E+02  0.39447758302E+02  0.13513622650E+03  0.12500000000E+03 0.  0.
          2    1    1    2  501    0  0.43642633046E+02  0.96451652551E+01 -0.28553160786E+03  0.28900866374E+03  0.00000000000E+00 0. -1.
          1    1    1    2  502    0 -0.57688334585E+02 -0.39367082181E+02  0.56153821817E+03  0.56586472021E+03  0.00000000000E+00 0. -1.
<mgrwt>
<rscale>  0 0.55150126E+02</rscale>
<asrwt>0</asrwt>
<pdfrwt beam="1">  1        2 0.10042031E+00 0.68049814E+02</pdfrwt>
<pdfrwt beam="2">  1        1 0.51888865E-01 0.44695734E+02</pdfrwt>
<totfact> 0.49199323E+02</totfact>
</mgrwt>
</event>
<event>
 5    1  0.8891499E-003  0.5575601E+02  0.7546771E-02  0.1539699E+00
          1   -1    0    0  501    0 -0.00000000000E+00  0.00000000000E+00  0.67598626960E+03  0.67598626960E+03  0.00000000000E+00 0. -1.
          2   -1    0    0  502    0  0.00000000000E+00 -0.00000000000E+00 -0.46228839887E+03  0.46228839887E+03  0.00000000000E+00 0. -1.
         25    1    1    2    0    0 -0.41700338638E+02  0.17414811019E+02 -0.23273293295E+03  0.26801457417E+03  0.12500000000E+03 0.  0.
          2    1    1    2  501    0 -0.17077227253E+02 -0.15812632033E+02  0.65405575524E+03  0.65446971052E+03  0.00000000000E+00 0. -1.
          1    1    1    2  502    0  0.58777565891E+02 -0.16021789861E+01 -0.20762495155E+03  0.21579038379E+03  0.00000000000E+00 0. -1.
<mgrwt>
<rscale>  0 0.36022989E+02</rscale>
<asrwt>0</asrwt>
<pdfrwt beam="2">  1        2 0.71121292E-01 0.55756009E+02</pdfrwt>
<pdfrwt beam="1">  1        1 0.10399789E+00 0.23273827E+02</pdfrwt>
<totfact> 0.30934349E+02</totfact>
</mgrwt>
</event>
<event>
 5    1  0.8891499E-003  0.2064947E+03  0.7546771E-02  0.1202045E+00
          1   -1    0    0  501    0 -0.00000000000E+00  0.00000000000E+00  0.67117254940E+03  0.67117254940E+03  0.00000000000E+00 0. -1.
          2   -1    0    0  502    0  0.00000000000E+00 -0.00000000000E+00 -0.10516976620E+04  0.10516976620E+04  0.00000000000E+00 0. -1.
         25    1    1    2    0    0  0.23681547969E+03 -0.22574135658E+02 -0.68468549053E+02  0.27731589430E+03  0.12500000000E+03 0.  0.
          2    1    1    2  501    0 -0.45326804437E+02  0.97059292665E+02  0.54949628745E+03  0.55984033029E+03  0.00000000000E+00 0. -1.
          1    1    1    2  502    0 -0.19148867525E+03 -0.74485157007E+02 -0.86155285097E+03  0.88571398678E+03  0.00000000000E+00 0. -1.
<mgrwt>
<rscale>  0 0.14872804E+03</rscale>
<asrwt>0</asrwt>
<pdfrwt beam="2">  1        2 0.16179964E+00 0.20649469E+03</pdfrwt>
<pdfrwt beam="1">  1        1 0.10325732E+00 0.10712155E+03</pdfrwt>
<totfact> 0.10569855E+02</totfact>
</mgrwt>
</event>
<event>
 5    1  0.8891499E-003  0.3854044E+02  0.7546771E-02  0.1571390E+00
          2   -1    0    0  502    0  0.00000000000E+00  0.00000000000E+00  0.10452196977E+03  0.10452196977E+03  0.00000000000E+00 0. -1.
          1   -1    0    0  501    0 -0.00000000000E+00 -0.00000000000E+00 -0.43043079057E+03  0.43043079057E+03  0.00000000000E+00 0. -1.
         25    1    1    2    0    0 -0.33115008050E+02 -0.37082225196E+02  0.17302365710E+02  0.13563210182E+03  0.12500000000E+03 0.  0.
          2    1    1    2  501    0 -0.31029717536E+01  0.27333932546E+02 -0.35796187958E+03  0.35901738054E+03  0.00000000000E+00 0. -1.
          1    1    1    2  502    0  0.36217979804E+02  0.97482926492E+01  0.14750693066E+02  0.40303277988E+02  0.00000000000E+00 0. -1.
<mgrwt>
<rscale>  0 0.32561142E+02</rscale>
<asrwt>0</asrwt>
<pdfrwt beam="1">  1        2 0.16080303E-01 0.38540437E+02</pdfrwt>
<pdfrwt beam="2">  1        1 0.66220121E-01 0.27509495E+02</pdfrwt>
<totfact> 0.25316102E+03</totfact>
</mgrwt>
</event>
<event>
 5    1  0.8891499E-003  0.4846270E+02  0.7546771E-02  0.1483174E+00
          1   -1    0    0  502    0  0.00000000000E+00  0.00000000000E+00  0.17657674712E+04  0.17657674712E+04  0.00000000000E+00 0. -1.
         -1   -1    0    0    0  501 -0.00000000000E+00 -0.00000000000E+00 -0.38011024546E+02  0.38011024546E+02  0.00000000000E+00 0.  1.
         25    1    1    2    0    0 -0.26162431400E+02  0.80631399158E+02  0.37898375580E+03  0.40797007550E+03  0.12500000000E+03 0.  0.
          2    1    1    2  502    0  0.57248459864E+01 -0.47118250991E+02  0.13552011982E+04  0.13560321497E+04  0.00000000000E+00 0. -1.
         -2    1    1    2    0  501  0.20437585413E+02 -0.33513148167E+02 -0.64285072730E+01  0.39776270606E+02  0.00000000000E+00 0.  1.
<mgrwt>
<rscale>  0 0.43615636E+02</rscale>
<asrwt>0</asrwt>
<pdfrwt beam="1">  1        1 0.27165647E+00 0.48462701E+02</pdfrwt>
<pdfrwt beam="2">  1       -1 0.58478513E-02 0.39253357E+02</pdfrwt>
<totfact> 0.67760036E+02</totfact>
</mgrwt>
</event>
<event>
 5    1  0.8891499E-003  0.4517277E+02  0.7546771E-02  0.1532052E+00
          2   -1    0    0  502    0  0.00000000000E+00  0.00000000000E+00  0.41098182020E+03  0.41098182020E+03  0.00000000000E+00 0. -1.
         -2   -1    0    0    0  501 -0.00000000000E+00 -0.00000000000E+00 -0.16123663590E+03  0.16123663590E+03  0.00000000000E+00 0.  1.
         25    1    1    2    0    0  0.54513908179E+02 -0.46718265053E+02  0.20297655761E+03  0.24895550890E+03  0.12500000000E+03 0.  0.
          1    1    1    2  502    0 -0.35365946129E+02  0.23363370019E+02  0.18088677687E+03  0.18578649911E+03  0.00000000000E+00 0. -1.
         -1    1    1    2    0  501 -0.19147962051E+02  0.23354895034E+02 -0.13411815018E+03  0.13747644809E+03  0.00000000000E+00 0.  1.
<mgrwt>
<rscale>  0 0.36935880E+02</rscale>
<asrwt>0</asrwt>
<pdfrwt beam="1">  1        2 0.63227972E-01 0.45172770E+02</pdfrwt>
<pdfrwt beam="2">  1       -2 0.24805636E-01 0.30200920E+02</pdfrwt>
<totfact> 0.10537119E+03</totfact>
</mgrwt>
</event>
<event>
 5    1  0.8891499E-003  0.6519458E+02  0.7546771E-02  0.1429429E+00
          1   -1    0    0  501    0 -0.00000000000E+00  0.00000000000E+00  0.29116433308E+03  0.29116433308E+03  0.00000000000E+00 0. -1.
          2   -1    0    0  502    0  0.00000000000E+00 -0.00000000000E+00 -0.59359691740E+03  0.59359691740E+03  0.00000000000E+00 0. -1.
         25    1    1    2    0    0 -0.44963941270E+01 -0.38946022430E+02 -0.19746518251E+02  0.13248371676E+03  0.12500000000E+03 0.  0.
          2    1    1    2  501    0  0.39450122689E+02 -0.17624541670E+02  0.23064496173E+03  0.23465727140E+03  0.00000000000E+00 0. -1.
          3    1    1    2  502    0 -0.34953728562E+02  0.56570564101E+02 -0.51333102780E+03  0.51762026232E+03  0.00000000000E+00 0. -1.
<mgrwt>
<rscale>  0 0.53074772E+02</rscale>
<asrwt>0</asrwt>
<pdfrwt beam="2">  1        2 0.91322603E-01 0.65194580E+02</pdfrwt>
<pdfrwt beam="1">  1        1 0.44794513E-01 0.43208062E+02</pdfrwt>
<totfact> 0.65194149E+02</totfact>
</mgrwt>
</event>
<event>
 5    1  0.8891499E-003  0.8939992E+02  0.7546771E-02  0.1376352E+00
          2   -1    0    0  502    0  0.00000000000E+00  0.00000000000E+00  0.25928484190E+04  0.25928484190E+04  0.00000000000E+00 0. -1.
          1   -1    0    0  501    0 -0.00000000000E+00 -0.00000000000E+00 -0.67688064465E+03  0.67688064465E+03  0.00000000000E+00 0. -1.
         25    1    1    2    0    0 -0.40872243121E+01  0.12295368303E+03  0.11055323137E+03  0.20731939258E+03  0.12500000000E+03 0.  0.
          2    1    1    2  501    0  0.30937114577E+02 -0.83297767606E+02 -0.62511982827E+03  0.63140353408E+03  0.00000000000E+00 0. -1.
          1    1    1    2  502    0 -0.26849890264E+02 -0.39655915425E+02  0.24305343712E+04  0.24310061370E+04  0.00000000000E+00 0. -1.
<mgrwt>
<rscale>  0 0.65432521E+02</rscale>
<asrwt>0</asrwt>
<pdfrwt beam="1">  1        2 0.39889975E+00 0.47890586E+02</pdfrwt>
<pdfrwt beam="2">  1        1 0.10413549E+00 0.89399924E+02</pdfrwt>
<totfact> 0.19292554E+01</totfact>
</mgrwt>
</event>
<event>
 5    1  0.8891499E-003  0.1318349E+03  0.7546771E-02  0.1342495E+00
          1   -1    0    0  501    0 -0.00000000000E+00  0.00000000000E+00  0.43594846001E+03  0.43594846001E+03  0.00000000000E+00 0. -1.
          2   -1    0    0  502    0  0.00000000000E+00 -0.00000000000E+00 -0.84382134385E+03  0.84382134385E+03  0.00000000000E+00 0. -1.
         25    1    1    2    0    0  0.11086960076E+03 -0.10090216121E+03 -0.38572991534E+03  0.43230299802E+03  0.12500000000E+03 0.  0.
          2    1    1    2  501    0 -0.11788712484E+03  0.58300316028E+02  0.40105708058E+03  0.42206999767E+03  0.00000000000E+00 0. -1.
          1    1    1    2  502    0  0.70175240753E+01  0.42601845184E+02 -0.42320004908E+03  0.42539680817E+03  0.00000000000E+00 0. -1.
<mgrwt>
<rscale>  0 0.75445985E+02</rscale>
<asrwt>0</asrwt>
<pdfrwt beam="2">  1        2 0.12981867E+00 0.43175952E+02</pdfrwt>
<pdfrwt beam="1">  1        1 0.67068994E-01 0.13183488E+03</pdfrwt>
<totfact> 0.26757556E+02</totfact>
</mgrwt>
</event>
<event>
 5    1  0.8891499E-003  0.1849941E+03  0.7546771E-02  0.1177526E+00
          2   -1    0    0  502    0  0.00000000000E+00  0.00000000000E+00  0.61560012077E+03  0.61560012077E+03  0.00000000000E+00 0. -1.
          1   -1    0    0  501    0 -0.00000000000E+00 -0.00000000000E+00 -0.80436684891E+03  0.80436684891E+03  0.00000000000E+00 0. -1.
         25    1    1    2    0    0 -0.52567771747E+02 -0.12030241122E+03 -0.15258943555E+02  0.18191722329E+03  0.12500000000E+03 0.  0.
          2    1    1    2  501    0  0.19484182592E+03  0.54414288082E+02 -0.67915924452E+03  0.70864767783E+03  0.00000000000E+00 0. -1.
          1    1    1    2  502    0 -0.14227405417E+03  0.65888123142E+02  0.50565145993E+03  0.52940206855E+03  0.00000000000E+00 0. -1.
<mgrwt>
<rscale>  0 0.17030929E+03</rscale>
<asrwt>0</asrwt>
<pdfrwt beam="1">  1        2 0.94707711E-01 0.15679015E+03</pdfrwt>
<pdfrwt beam="2">  1        1 0.12374875E+00 0.18499411E+03</pdfrwt>
<totfact> 0.15832544E+02</totfact>
</mgrwt>
</event>
<event>
 5    1  0.8891499E-003  0.7039435E+02  0.7546771E-02  0.1379143E+00
          2   -1    0    0  502    0  0.00000000000E+00  0.00000000000E+00  0.42227297256E+02  0.42227297256E+02  0.00000000000E+00 0. -1.
          1   -1    0    0  501    0 -0.00000000000E+00 -0.00000000000E+00 -0.21801850048E+04  0.21801850048E+04  0.00000000000E+00 0. -1.
         25    1    1    2    0    0 -0.48542505481E+02 -0.55776464616E+02 -0.31721781973E+03  0.34888326701E+03  0.12500000000E+03 0.  0.
          2    1    1    2  501    0  0.71286685110E+02  0.85225252339E+00 -0.18120478930E+04  0.18134497744E+04  0.00000000000E+00 0. -1.
          1    1    1    2  502    0 -0.22744179628E+02  0.54924212092E+02 -0.86919947819E+01  0.60079260600E+02  0.00000000000E+00 0. -1.
<mgrwt>
<rscale>  0 0.64689607E+02</rscale>
<asrwt>0</asrwt>
<pdfrwt beam="1">  1        2 0.64965080E-02 0.59447176E+02</pdfrwt>
<pdfrwt beam="2">  1        1 0.33541304E+00 0.70394349E+02</pdfrwt>
<totfact> 0.41178879E+02</totfact>
</mgrwt>
</event>
<event>
 5    1  0.8891499E-003  0.4160163E+02  0.7546771E-02  0.1559415E+00
         -1   -1    0    0    0  502 -0.00000000000E+00  0.00000000000E+00  0.10874567298E+04  0.10874567298E+04  0.00000000000E+00 0.  1.
         -2   -1    0    0    0  501  0.00000000000E+00 -0.00000000000E+00 -0.55832595643E+03  0.55832595643E+03  0.00000000000E+00 0.  1.
         25    1    1    2    0    0  0.35233570745E+01  0.19015627173E+02  0.27660852433E+03  0.30415667649E+03  0.12500000000E+03 0.  0.
         -2    1    1    2    0  502 -0.27365056334E+02 -0.32680495215E+02  0.79615697801E+03  0.79729718092E+03  0.00000000000E+00 0.  1.
         -1    1    1    2    0  501  0.23841699260E+02  0.13664868042E+02 -0.54363472901E+03  0.54432882877E+03  0.00000000000E+00 0.  1.
<mgrwt>
<rscale>  0 0.33811483E+02</rscale>
<asrwt>0</asrwt>
<pdfrwt beam="2">  1       -2 0.85896301E-01 0.27480088E+02</pdfrwt>
<pdfrwt beam="1">  1       -1 0.16730104E+00 0.41601626E+02</pdfrwt>
<totfact> 0.30818994E+00</totfact>
</mgrwt>
</event>
<event>
 5    1  0.8891499E-003  0.7711174E+02  0.7546771E-02  0.1473905E+00
          1   -1    0    0  501    0 -0.00000000000E+00  0.00000000000E+00  0.33643942987E+03  0.33643942987E+03  0.00000000000E+00 0. -1.
          2   -1    0    0  502    0  0.00000000000E+00 -0.00000000000E+00 -0.81015958847E+03  0.81015958847E+03  0.00000000000E+00 0. -1.
         25    1    1    2    0    0 -0.74023829330E+02  0.51255071178E+02  0.12576434027E+03  0.19886749084E+03  0.12500000000E+03 0.  0.
          2    1    1    2  501    0  0.25046965152E+02  0.81592253566E+01  0.17119765272E+03  0.17321246987E+03  0.00000000000E+00 0. -1.
          1    1    1    2  502    0  0.48976864178E+02 -0.59414296534E+02 -0.77068215159E+03  0.77451905763E+03  0.00000000000E+00 0. -1.
<mgrwt>
<rscale>  0 0.45070060E+02</rscale>
<asrwt>0</asrwt>
<pdfrwt beam="2">  1        2 0.12463994E+00 0.77111738E+02</pdfrwt>
<pdfrwt beam="1">  1        1 0.51759913E-01 0.26342426E+02</pdfrwt>
<totfact> 0.38131714E+02</totfact>
</mgrwt>
</event>
<event>
 5    1  0.8891499E-003  0.1572916E+03  0.7546771E-02  0.1262254E+00
          2   -1    0    0  502    0  0.00000000000E+00  0.00000000000E+00  0.53788551014E+03  0.53788551014E+03  0.00000000000E+00 0. -1.
          1   -1    0    0  501    0 -0.00000000000E+00 -0.00000000000E+00 -0.93448878412E+03  0.93448878412E+03  0.00000000000E+00 0. -1.
         25    1    1    2    0    0  0.81335705186E+02  0.20573696223E+03 -0.98737330053E+02  0.27261191264E+03  0.12500000000E+03 0.  0.
          2    1    1    2  501    0 -0.31897372800E+02 -0.14845396029E+03 -0.73785380493E+03  0.75331551037E+03  0.00000000000E+00 0. -1.
          3    1    1    2  502    0 -0.49438332386E+02 -0.57283001940E+02  0.43998786101E+03  0.44644687125E+03  0.00000000000E+00 0. -1.
<mgrwt>
<rscale>  0 0.10909529E+03</rscale>
<asrwt>0</asrwt>
<pdfrwt beam="1">  1        2 0.82751618E-01 0.75666974E+02</pdfrwt>
<pdfrwt beam="2">  1        1 0.14376750E+00 0.15729164E+03</pdfrwt>
<totfact> 0.14874248E+02</totfact>
</mgrwt>
</event>
<event>
 5    1  0.8891499E-003  0.1289527E+03  0.7546771E-02  0.1383096E+00
          3   -1    0    0  502    0  0.00000000000E+00  0.00000000000E+00  0.26415531338E+03  0.26415531338E+03  0.00000000000E+00 0. -1.
         -1   -1    0    0    0  501 -0.00000000000E+00 -0.00000000000E+00 -0.31132351386E+03  0.31132351386E+03  0.00000000000E+00 0.  1.
         25    1    1    2    0    0 -0.12811676204E+03  0.36442940986E+02  0.19213999816E+03  0.26511275254E+03  0.12500000000E+03 0.  0.
          2    1    1    2  502    0  0.10448940866E+03 -0.57160460857E+02 -0.69965110427E+02  0.13813207985E+03  0.00000000000E+00 0. -1.
         -2    1    1    2    0  501  0.23627353387E+02  0.20717519871E+02 -0.16934308822E+03  0.17223399486E+03  0.00000000000E+00 0.  1.
<mgrwt>
<rscale>  0 0.63656955E+02</rscale>
<asrwt>0</asrwt>
<pdfrwt beam="1">  1        3 0.40639279E-01 0.12895267E+03</pdfrwt>
<pdfrwt beam="2">  1       -1 0.47895926E-01 0.31423995E+02</pdfrwt>
<totfact> 0.12019001E+02</totfact>
</mgrwt>
</event>
<event>
 5    1  0.8891499E-003  0.9674649E+02  0.7546771E-02  0.1415155E+00
          1   -1    0    0  501    0 -0.00000000000E+00  0.00000000000E+00  0.72856171786E+02  0.72856171786E+02  0.00000000000E+00 0. -1.
          2   -1    0    0  502    0  0.00000000000E+00 -0.00000000000E+00 -0.16860350971E+04  0.16860350971E+04  0.00000000000E+00 0. -1.
         25    1    1    2    0    0  0.70499095238E+02  0.12477648270E+02 -0.17388761011E+03  0.22580459491E+03  0.12500000000E+03 0.  0.
          2    1    1    2  501    0 -0.10210181387E+03 -0.19989330517E+02 -0.11217123278E+02  0.10464309621E+03  0.00000000000E+00 0. -1.
          1    1    1    2  502    0  0.31602718632E+02  0.75116822465E+01 -0.14280741919E+04  0.14284435778E+04  0.00000000000E+00 0. -1.
<mgrwt>
<rscale>  0 0.56059200E+02</rscale>
<asrwt>0</asrwt>
<pdfrwt beam="2">  1        2 0.25939004E+00 0.32483183E+02</pdfrwt>
<pdfrwt beam="1">  1        1 0.11208641E-01 0.96746489E+02</pdfrwt>
<totfact> 0.93680578E+02</totfact>
</mgrwt>
</event>
<event>
 5    1  0.8891499E-003  0.8758300E+02  0.7546771E-02  0.1399465E+00
          1   -1    0    0  501    0 -0.00000000000E+00  0.00000000000E+00  0.29005393948E+03  0.29005393948E+03  0.00000000000E+00 0. -1.
          2   -1    0    0  502    0  0.00000000000E+00 -0.00000000000E+00 -0.34005068300E+03  0.34005068300E+03  0.00000000000E+00 0. -1.
         25    1    1    2    0    0 -0.66427419322E+02 -0.68874009951E+02  0.71721573943E+02  0.17298906166E+03  0.12500000000E+03 0.  0.
          2    1    1    2  501    0 -0.15385609455E+02  0.37544488671E+02  0.15845369575E+03  0.16356613129E+03  0.00000000000E+00 0. -1.
          1    1    1    2  502    0  0.81813028777E+02  0.31329521281E+02 -0.28017201322E+03  0.29354942953E+03  0.00000000000E+00 0. -1.
<mgrwt>
<rscale>  0 0.59612526E+02</rscale>
<asrwt>0</asrwt>
<pdfrwt beam="2">  1        2 0.52315489E-01 0.87583001E+02</pdfrwt>
<pdfrwt beam="1">  1        1 0.44623683E-01 0.40574692E+02</pdfrwt>
<totfact> 0.11796808E+03</totfact>
</mgrwt>
</event>
<event>
 5    1  0.8891499E-003  0.7484786E+02  0.7546771E-02  0.1355868E+00
          1   -1    0    0  502    0  0.00000000000E+00  0.00000000000E+00  0.49244905533E+03  0.49244905533E+03  0.00000000000E+00 0. -1.
         -1   -1    0    0    0  501 -0.00000000000E+00 -0.00000000000E+00 -0.76369255660E+02  0.76369255660E+02  0.00000000000E+00 0.  1.
         25    1    1    2    0    0 -0.66823707545E+02 -0.23198718384E+02  0.16641770071E+03  0.21982593008E+03  0.12500000000E+03 0.  0.
          2    1    1    2  502    0  0.25536217160E+02  0.77027619908E+02  0.26692735674E+03  0.27899026218E+03  0.00000000000E+00 0. -1.
         -2    1    1    2    0  501  0.41287490386E+02 -0.53828901524E+02 -0.17265257775E+02  0.70002118737E+02  0.00000000000E+00 0.  1.
<mgrwt>
<rscale>  0 0.71257609E+02</rscale>
<asrwt>0</asrwt>
<pdfrwt beam="1">  1        1 0.75761391E-01 0.74847860E+02</pdfrwt>
<pdfrwt beam="2">  1       -1 0.11749117E-01 0.67839572E+02</pdfrwt>
<totfact> 0.20820436E+03</totfact>
</mgrwt>
</event>
<event>
 5    1  0.8891499E-003  0.5357829E+02  0.7546771E-02  0.1448548E+00
         -2   -1    0    0    0  501 -0.00000000000E+00  0.00000000000E+00  0.82322127233E+02  0.82322127233E+02  0.00000000000E+00 0.  1.
          2   -1    0    0  502    0  0.00000000000E+00 -0.00000000000E+00 -0.42723268691E+04  0.42723268691E+04  0.00000000000E+00 0. -1.
         25    1    1    2    0    0 -0.89607954524E+02  0.39112006115E+02 -0.24977175621E+04  0.25027539541E+04  0.12500000000E+03 0.  0.
          1    1    1    2  502    0  0.38072304534E+02 -0.25036208904E+02 -0.17628227726E+04  0.17634115911E+04  0.00000000000E+00 0. -1.
         -1    1    1    2    0  501  0.51535649990E+02 -0.14075797211E+02  0.70535592780E+02  0.88483451198E+02  0.00000000000E+00 0.  1.
<mgrwt>
<rscale>  0 0.49410309E+02</rscale>
<asrwt>0</asrwt>
<pdfrwt beam="2">  1        2 0.65728118E+00 0.45566568E+02</pdfrwt>
<pdfrwt beam="1">  1       -2 0.12664940E-01 0.53578287E+02</pdfrwt>
<totfact> 0.17008617E+01</totfact>
</mgrwt>
</event>
<event>
 5    1  0.8891499E-003  0.4811102E+03  0.7546771E-02  0.1181373E+00
          2   -1    0    0  502    0  0.00000000000E+00  0.00000000000E+00  0.15976112720E+04  0.15976112720E+04  0.00000000000E+00 0. -1.
          1   -1    0    0  501    0 -0.00000000000E+00 -0.00000000000E+00 -0.36650261350E+03  0.36650261350E+03  0.00000000000E+00 0. -1.
         25    1    1    2    0    0  0.32891814407E+03 -0.32902994897E+03  0.25940091772E+03  0.54713955160E+03  0.12500000000E+03 0.  0.
          2    1    1    2  501    0  0.52027597966E+02  0.25027063391E+02 -0.16788529856E+03  0.17753506224E+03  0.00000000000E+00 0. -1.
          1    1    1    2  502    0 -0.38094574204E+03  0.30400288557E+03  0.11395930394E+04  0.12394392717E+04  0.00000000000E+00 0. -1.
<mgrwt>
<rscale>  0 0.16666271E+03</rscale>
<asrwt>0</asrwt>
<pdfrwt beam="1">  1        2 0.24578635E+00 0.48111021E+03</pdfrwt>
<pdfrwt beam="2">  1        1 0.56385018E-01 0.57734087E+02</pdfrwt>
<totfact> 0.10926528E+02</totfact>
</mgrwt>
</event>
<event>
 5    1  0.8891499E-003  0.7979971E+02  0.7546771E-02  0.1341632E+00
          1   -1    0    0  501    0 -0.00000000000E+00  0.00000000000E+00  0.35843698786E+03  0.35843698786E+03  0.00000000000E+00 0. -1.
          2   -1    0    0  502    0  0.00000000000E+00 -0.00000000000E+00 -0.30057100987E+03  0.30057100987E+03  0.00000000000E+00 0. -1.
         25    1    1    2    0    0  0.13829219521E+02  0.56906147548E+02 -0.14607466845E+03  0.20097852050E+03  0.12500000000E+03 0.  0.
          2    1    1    2  501    0 -0.77669534303E+02 -0.23909070015E+02  0.31523963905E+03  0.32554604930E+03  0.00000000000E+00 0. -1.
          1    1    1    2  502    0  0.63840314782E+02 -0.32997077534E+02 -0.11129899261E+03  0.13248342792E+03  0.00000000000E+00 0. -1.
<mgrwt>
<rscale>  0 0.75727825E+02</rscale>
<asrwt>0</asrwt>
<pdfrwt beam="2">  1        2 0.46241694E-01 0.71863711E+02</pdfrwt>
<pdfrwt beam="1">  1        1 0.55144152E-01 0.79799713E+02</pdfrwt>
<totfact> 0.10386566E+03</totfact>
</mgrwt>
</event>
<event>
 5    1  0.8891499E-003  0.6241453E+02  0.7546771E-02  0.1388601E+00
          2   -1    0    0  502    0  0.00000000000E+00  0.00000000000E+00  0.47504970786E+03  0.47504970786E+03  0.00000000000E+00 0. -1.
          1   -1    0    0  501    0 -0.00000000000E+00 -0.00000000000E+00 -0.12703371693E+04  0.12703371693E+04  0.00000000000E+00 0. -1.
         25    1    1    2    0    0  0.58729060467E+02  0.10245278745E+03 -0.35553439083E+03  0.39493718395E+03  0.12500000000E+03 0.  0.
          2    1    1    2  501    0 -0.46085205595E+02 -0.41620930175E+02 -0.89189730186E+03  0.89405645520E+03  0.00000000000E+00 0. -1.
          1    1    1    2  502    0 -0.12643854872E+02 -0.60831857270E+02  0.45214423121E+03  0.45639323806E+03  0.00000000000E+00 0. -1.
<mgrwt>
<rscale>  0 0.62256009E+02</rscale>
<asrwt>0</asrwt>
<pdfrwt beam="1">  1        2 0.73084571E-01 0.62414531E+02</pdfrwt>
<pdfrwt beam="2">  1        1 0.19543649E+00 0.62097890E+02</pdfrwt>
<totfact> 0.10603647E+02</totfact>
</mgrwt>
</event>
<event>
 5    1  0.8891499E-003  0.7042867E+02  0.7546771E-02  0.1366279E+00
          1   -1    0    0  501    0 -0.00000000000E+00  0.00000000000E+00  0.90114927549E+02  0.90114927549E+02  0.00000000000E+00 0. -1.
          2   -1    0    0  502    0  0.00000000000E+00 -0.00000000000E+00 -0.19460994635E+04  0.19460994635E+04  0.00000000000E+00 0. -1.
         25    1    1    2    0    0 -0.53136136003E+02  0.18518192180E+02 -0.83022093783E+03  0.84146192903E+03  0.12500000000E+03 0.  0.
          2    1    1    2  501    0  0.53007834117E+02  0.47548027519E+02  0.68316039937E+02  0.98679920508E+02  0.00000000000E+00 0. -1.
          1    1    1    2  502    0  0.12830188614E+00 -0.66066219699E+02 -0.10940796380E+04  0.10960725415E+04  0.00000000000E+00 0. -1.
<mgrwt>
<rscale>  0 0.68212643E+02</rscale>
<asrwt>0</asrwt>
<pdfrwt beam="2">  1        2 0.29939990E+00 0.66066344E+02</pdfrwt>
<pdfrwt beam="1">  1        1 0.13863836E-01 0.70428668E+02</pdfrwt>
<totfact> 0.48498963E+02</totfact>
</mgrwt>
</event>
<event>
 5    1  0.8891499E-003  0.5895757E+02  0.7546771E-02  0.1437422E+00
          1   -1    0    0  502    0  0.00000000000E+00  0.00000000000E+00  0.27479728921E+03  0.27479728921E+03  0.00000000000E+00 0. -1.
         -1   -1    0    0    0  501 -0.00000000000E+00 -0.00000000000E+00 -0.17431783617E+04  0.17431783617E+04  0.00000000000E+00 0.  1.
         25    1    1    2    0    0 -0.32691303749E+02 -0.12990221375E+02 -0.22285425663E+03  0.25792728993E+03  0.12500000000E+03 0.  0.
          2    1    1    2  502    0  0.52880108720E+02 -0.27208340243E+02  0.25348207538E+03  0.26036467160E+03  0.00000000000E+00 0. -1.
         -2    1    1    2    0  501 -0.20188804971E+02  0.40198561618E+02 -0.14990088913E+04  0.14996836894E+04  0.00000000000E+00 0.  1.
<mgrwt>
<rscale>  0 0.51498699E+02</rscale>
<asrwt>0</asrwt>
<pdfrwt beam="1">  1        1 0.42276506E-01 0.58957574E+02</pdfrwt>
<pdfrwt beam="2">  1       -1 0.26818128E+00 0.44983466E+02</pdfrwt>
<totfact> 0.73741034E+00</totfact>
</mgrwt>
</event>
<event>
 5    1  0.8891499E-003  0.5007928E+02  0.7546771E-02  0.1524544E+00
          2   -1    0    0  502    0  0.00000000000E+00  0.00000000000E+00  0.24994026303E+04  0.24994026303E+04  0.00000000000E+00 0. -1.
          1   -1    0    0  501    0 -0.00000000000E+00 -0.00000000000E+00 -0.25657561920E+04  0.25657561920E+04  0.00000000000E+00 0. -1.
         25    1    1    2    0    0  0.81851075067E+01  0.20155730496E+02  0.10249214362E+04  0.10327449829E+04  0.12500000000E+03 0.  0.
          2    1    1    2  501    0 -0.24466884404E+02 -0.43703376158E+02 -0.25614602449E+04  0.25619498824E+04  0.00000000000E+00 0. -1.
          1    1    1    2  502    0  0.16281776897E+02  0.23547645662E+02  0.14701852471E+04  0.14704639569E+04  0.00000000000E+00 0. -1.
<mgrwt>
<rscale>  0 0.37864125E+02</rscale>
<asrwt>0</asrwt>
<pdfrwt beam="1">  1        2 0.38452348E+00 0.28628445E+02</pdfrwt>
<pdfrwt beam="2">  1        1 0.39473172E+00 0.50079281E+02</pdfrwt>
<totfact> 0.13952010E+00</totfact>
</mgrwt>
</event>
<event>
 5    1  0.8891499E-003  0.7700784E+02  0.7546771E-02  0.1468678E+00
          1   -1    0    0  502    0  0.00000000000E+00  0.00000000000E+00  0.95147542398E+03  0.95147542398E+03  0.00000000000E+00 0. -1.
         -1   -1    0    0    0  501 -0.00000000000E+00 -0.00000000000E+00 -0.89838830499E+03  0.89838830499E+03  0.00000000000E+00 0.  1.
         25    1    1    2    0    0 -0.38997212579E+02 -0.89331879149E+02  0.20818814406E+03  0.26166442354E+03  0.12500000000E+03 0.  0.
          2    1    1    2  502    0  0.23513730962E+02  0.14032008008E+02  0.71459140519E+03  0.71511584318E+03  0.00000000000E+00 0. -1.
         -2    1    1    2    0  501  0.15483481617E+02  0.75299871141E+02 -0.86969243026E+03  0.87308346225E+03  0.00000000000E+00 0.  1.
<mgrwt>
<rscale>  0 0.45920095E+02</rscale>
<asrwt>0</asrwt>
<pdfrwt beam="1">  1        1 0.14638083E+00 0.27382345E+02</pdfrwt>
<pdfrwt beam="2">  1       -1 0.13821359E+00 0.77007838E+02</pdfrwt>
<totfact> 0.10292513E+01</totfact>
</mgrwt>
</event>
<event>
 5    1  0.8891499E-003  0.5197173E+02  0.7546771E-02  0.1510309E+00
          2   -1    0    0  502    0  0.00000000000E+00  0.00000000000E+00  0.70233206129E+03  0.70233206129E+03  0.00000000000E+00 0. -1.
          1   -1    0    0  501    0 -0.00000000000E+00 -0.00000000000E+00 -0.73086258495E+03  0.73086258495E+03  0.00000000000E+00 0. -1.
         25    1    1    2    0    0 -0.51398883489E+02  0.61482901067E+02  0.20164960539E+03  0.25041876068E+03  0.12500000000E+03 0.  0.
          2    1    1    2  501    0  0.23032345684E+02 -0.19766010582E+02 -0.70481469272E+03  0.70546788389E+03  0.00000000000E+00 0. -1.
          1    1    1    2  502    0  0.28366537805E+02 -0.41716890486E+02  0.47463456368E+03  0.47730800167E+03  0.00000000000E+00 0. -1.
<mgrwt>
<rscale>  0 0.39716430E+02</rscale>
<asrwt>0</asrwt>
<pdfrwt beam="1">  1        2 0.10805109E+00 0.51971732E+02</pdfrwt>
<pdfrwt beam="2">  1        1 0.11244040E+00 0.30351015E+02</pdfrwt>
<totfact> 0.17543094E+02</totfact>
</mgrwt>
</event>
<event>
 5    1  0.8891499E-003  0.8838755E+02  0.7546771E-02  0.1391960E+00
          2   -1    0    0  502    0  0.00000000000E+00  0.00000000000E+00  0.48565476708E+03  0.48565476708E+03  0.00000000000E+00 0. -1.
          1   -1    0    0  501    0 -0.00000000000E+00 -0.00000000000E+00 -0.19369386703E+04  0.19369386703E+04  0.00000000000E+00 0. -1.
         25    1    1    2    0    0 -0.47640536428E+02  0.10181280376E+03 -0.24413040886E+02  0.16987190552E+03  0.12500000000E+03 0.  0.
          2    1    1    2  501    0 -0.14503032969E+02 -0.40143500552E+02 -0.18349045951E+04  0.18354009676E+04  0.00000000000E+00 0. -1.
          3    1    1    2  502    0  0.62143569397E+02 -0.61669303211E+02  0.40803373285E+03  0.41732056422E+03  0.00000000000E+00 0. -1.
<mgrwt>
<rscale>  0 0.61421870E+02</rscale>
<asrwt>0</asrwt>
<pdfrwt beam="1">  1        2 0.74716119E-01 0.88387554E+02</pdfrwt>
<pdfrwt beam="2">  1        1 0.29799056E+00 0.42683001E+02</pdfrwt>
<totfact> 0.41433237E+01</totfact>
</mgrwt>
</event>
<event>
 5    1  0.8891499E-003  0.9278550E+02  0.7546771E-02  0.1367411E+00
          2   -1    0    0  502    0  0.00000000000E+00  0.00000000000E+00  0.29066679766E+03  0.29066679766E+03  0.00000000000E+00 0. -1.
          1   -1    0    0  501    0 -0.00000000000E+00 -0.00000000000E+00 -0.17133387004E+03  0.17133387004E+03  0.00000000000E+00 0. -1.
         25    1    1    2    0    0  0.93052570157E+02  0.35332503978E+02 -0.74638557646E+01  0.15996210737E+03  0.12500000000E+03 0.  0.
          2    1    1    2  501    0 -0.33543048128E+02  0.36643130048E+02 -0.69050598068E+02  0.85063741694E+02  0.00000000000E+00 0. -1.
          1    1    1    2  502    0 -0.59509522029E+02 -0.71975634026E+02  0.19584738145E+03  0.21697481864E+03  0.00000000000E+00 0. -1.
<mgrwt>
<rscale>  0 0.67892212E+02</rscale>
<asrwt>0</asrwt>
<pdfrwt beam="1">  1        2 0.44717969E-01 0.92785495E+02</pdfrwt>
<pdfrwt beam="2">  1        1 0.26359057E-01 0.49677511E+02</pdfrwt>
<totfact> 0.26157110E+03</totfact>
</mgrwt>
</event>
<event>
 5    1  0.8891499E-003  0.5597029E+02  0.7546771E-02  0.1430988E+00
          1   -1    0    0  501    0 -0.00000000000E+00  0.00000000000E+00  0.70704029934E+03  0.70704029934E+03  0.00000000000E+00 0. -1.
          2   -1    0    0  502    0  0.00000000000E+00 -0.00000000000E+00 -0.32779311188E+03  0.32779311188E+03  0.00000000000E+00 0. -1.
         25    1    1    2    0    0 -0.19994250031E+02  0.24371968086E+02 -0.14601449826E+03  0.19477935354E+03  0.12500000000E+03 0.  0.
          2    1    1    2  501    0  0.49889660847E+02  0.25371148446E+02  0.67611217639E+03  0.67842490262E+03  0.00000000000E+00 0. -1.
          1    1    1    2  502    0 -0.29895410816E+02 -0.49743116532E+02 -0.15085049067E+03  0.16162915506E+03  0.00000000000E+00 0. -1.
<mgrwt>
<rscale>  0 0.52762249E+02</rscale>
<asrwt>0</asrwt>
<pdfrwt beam="2">  1        2 0.50429710E-01 0.49738083E+02</pdfrwt>
<pdfrwt beam="1">  1        1 0.10877543E+00 0.55970291E+02</pdfrwt>
<totfact> 0.40004455E+02</totfact>
</mgrwt>
</event>
<event>
 5    1  0.8891499E-003  0.1356998E+03  0.7546771E-02  0.1385883E+00
          1   -1    0    0  501    0 -0.00000000000E+00  0.00000000000E+00  0.61211525776E+03  0.61211525776E+03  0.00000000000E+00 0. -1.
          2   -1    0    0  502    0  0.00000000000E+00 -0.00000000000E+00 -0.72622022217E+02  0.72622022217E+02  0.00000000000E+00 0. -1.
         25    1    1    2    0    0 -0.15186930899E+03 -0.10817860380E+02  0.23361945938E+03  0.30558855495E+03  0.12500000000E+03 0.  0.
          2    1    1    2  501    0  0.25446998421E+02 -0.14310382429E+02  0.22520881760E+03  0.22709325903E+03  0.00000000000E+00 0. -1.
          1    1    1    2  502    0  0.12642231057E+03  0.25128242809E+02  0.80664958558E+02  0.15205546599E+03  0.00000000000E+00 0. -1.
<mgrwt>
<rscale>  0 0.62942272E+02</rscale>
<asrwt>0</asrwt>
<pdfrwt beam="2">  1        2 0.11172619E-01 0.13569980E+03</pdfrwt>
<pdfrwt beam="1">  1        1 0.94171575E-01 0.29194807E+02</pdfrwt>
<totfact> 0.26890429E+03</totfact>
</mgrwt>
</event>
<event>
 5    1  0.8891499E-003  0.1378611E+03  0.7546771E-02  0.1317900E+00
         -1   -1    0    0    0  501 -0.00000000000E+00  0.00000000000E+00  0.27827573451E+03  0.27827573451E+03  0.00000000000E+00 0.  1.
          1   -1    0    0  502    0  0.00000000000E+00 -0.00000000000E+00 -0.61571321746E+03  0.61571321746E+03  0.00000000000E+00 0. -1.
         25    1    1    2    0    0 -0.16081484170E+03  0.65114657270E+02  0.31764284051E+02  0.21618349068E+03  0.12500000000E+03 0.  0.
          2    1    1    2  502    0  0.36112830948E+02 -0.36378040685E+02 -0.49541885853E+03  0.49806359412E+03  0.00000000000E+00 0. -1.
         -2    1    1    2    0  501  0.12470201075E+03 -0.28736616585E+02  0.12621709153E+03  0.17974186717E+03  0.00000000000E+00 0.  1.
<mgrwt>
<rscale>  0 0.84063303E+02</rscale>
<asrwt>0</asrwt>
<pdfrwt beam="2">  1        1 0.94725110E-01 0.51259130E+02</pdfrwt>
<pdfrwt beam="1">  1       -1 0.42811652E-01 0.13786108E+03</pdfrwt>
<totfact> 0.19849632E+02</totfact>
</mgrwt>
</event>
<event>
 5    1  0.8891499E-003  0.1324043E+03  0.7546771E-02  0.1325783E+00
          2   -1    0    0  502    0  0.00000000000E+00  0.00000000000E+00  0.15304115820E+04  0.15304115820E+04  0.00000000000E+00 0. -1.
          1   -1    0    0  501    0 -0.00000000000E+00 -0.00000000000E+00 -0.66255319545E+03  0.66255319545E+03  0.00000000000E+00 0. -1.
         25    1    1    2    0    0 -0.87317598312E+02 -0.74961445097E+01  0.66263417234E+02  0.16642234111E+03  0.12500000000E+03 0.  0.
          2    1    1    2  501    0  0.13519369728E+03 -0.60388674035E+01 -0.60455306680E+03  0.61951449885E+03  0.00000000000E+00 0. -1.
          1    1    1    2  502    0 -0.47876098971E+02  0.13535011913E+02  0.14061480361E+04  0.14070279374E+04  0.00000000000E+00 0. -1.
<mgrwt>
<rscale>  0 0.81163121E+02</rscale>
<asrwt>0</asrwt>
<pdfrwt beam="1">  1        2 0.23544794E+00 0.49752562E+02</pdfrwt>
<pdfrwt beam="2">  1        1 0.10193126E+00 0.13240428E+03</pdfrwt>
<totfact> 0.65216207E+01</totfact>
</mgrwt>
</event>
<event>
 5    1  0.8891499E-003  0.1028524E+03  0.7546771E-02  0.1459414E+00
          1   -1    0    0  501    0 -0.00000000000E+00  0.00000000000E+00  0.81307798725E+03  0.81307798725E+03  0.00000000000E+00 0. -1.
          2   -1    0    0  502    0  0.00000000000E+00 -0.00000000000E+00 -0.20261607092E+04  0.20261607092E+04  0.00000000000E+00 0. -1.
         25    1    1    2    0    0  0.98641976258E+02 -0.61056718496E+02  0.30617637982E+03  0.35046702828E+03  0.12500000000E+03 0.  0.
          2    1    1    2  501    0 -0.20990584461E+02 -0.63171517393E+01  0.48318915809E+03  0.48368613122E+03  0.00000000000E+00 0. -1.
          1    1    1    2  502    0 -0.77651391797E+02  0.67373870235E+02 -0.20024482599E+04  0.20050855370E+04  0.00000000000E+00 0. -1.
<mgrwt>
<rscale>  0 0.47482448E+02</rscale>
<asrwt>0</asrwt>
<pdfrwt beam="2">  1        2 0.31171703E+00 0.10285242E+03</pdfrwt>
<pdfrwt beam="1">  1        1 0.12508892E+00 0.21920562E+02</pdfrwt>
<totfact> 0.28054495E+01</totfact>
</mgrwt>
</event>
<event>
 5    1  0.8891499E-003  0.6329736E+02  0.7546771E-02  0.1398916E+00
          1   -1    0    0  501    0 -0.00000000000E+00  0.00000000000E+00  0.12777617586E+04  0.12777617586E+04  0.00000000000E+00 0. -1.
          2   -1    0    0  502    0  0.00000000000E+00 -0.00000000000E+00 -0.16290523079E+04  0.16290523079E+04  0.00000000000E+00 0. -1.
         25    1    1    2    0    0  0.38637200486E+01  0.54449892115E+02 -0.99676482307E+03  0.10060540898E+04  0.12500000000E+03 0.  0.
          2    1    1    2  501    0 -0.55176227975E+02 -0.31071672440E+02  0.12710608863E+04  0.12726372781E+04  0.00000000000E+00 0. -1.
          1    1    1    2  502    0  0.51312507926E+02 -0.23378219675E+02 -0.62558661253E+03  0.62812269852E+03  0.00000000000E+00 0. -1.
<mgrwt>
<rscale>  0 0.59742448E+02</rscale>
<asrwt>0</asrwt>
<pdfrwt beam="2">  1        2 0.25062343E+00 0.56387185E+02</pdfrwt>
<pdfrwt beam="1">  1        1 0.19657873E+00 0.63297363E+02</pdfrwt>
<totfact> 0.20943261E+01</totfact>
</mgrwt>
</event>
<event>
 5    1  0.8891499E-003  0.3150217E+02  0.7546771E-02  0.1591539E+00
          1   -1    0    0  501    0 -0.00000000000E+00  0.00000000000E+00  0.30070785288E+03  0.30070785288E+03  0.00000000000E+00 0. -1.
          2   -1    0    0  502    0  0.00000000000E+00 -0.00000000000E+00 -0.10075067186E+04  0.10075067186E+04  0.00000000000E+00 0. -1.
         25    1    1    2    0    0 -0.38308587725E+02 -0.46797226774E+02  0.49618256393E+02  0.14746016308E+03  0.12500000000E+03 0.  0.
          2    1    1    2  501    0  0.15102206374E+02  0.25603307953E+02  0.20081669583E+03  0.20300480619E+03  0.00000000000E+00 0. -1.
          1    1    1    2  502    0  0.23206381350E+02  0.21193918821E+02 -0.95723381792E+03  0.95774960220E+03  0.00000000000E+00 0. -1.
<mgrwt>
<rscale>  0 0.30600951E+02</rscale>
<asrwt>0</asrwt>
<pdfrwt beam="2">  1        2 0.15500103E+00 0.31502173E+02</pdfrwt>
<pdfrwt beam="1">  1        1 0.46262746E-01 0.29725511E+02</pdfrwt>
<totfact> 0.34552723E+02</totfact>
</mgrwt>
</event>
<event>
 5    1  0.8891499E-003  0.1032377E+03  0.7546771E-02  0.1361126E+00
          1   -1    0    0  501    0 -0.00000000000E+00  0.00000000000E+00  0.98123924021E+02  0.98123924021E+02  0.00000000000E+00 0. -1.
          2   -1    0    0  502    0  0.00000000000E+00 -0.00000000000E+00 -0.92344366920E+03  0.92344366920E+03  0.00000000000E+00 0. -1.
         25    1    1    2    0    0 -0.48437088425E+02  0.12119500113E+03 -0.33516605513E+03  0.38078296225E+03  0.12500000000E+03 0.  0.
          2    1    1    2  501    0  0.41317326153E+02 -0.22514730262E+02  0.63123430120E+02  0.78731200609E+02  0.00000000000E+00 0. -1.
          1    1    1    2  502    0  0.71197622718E+01 -0.98680270863E+02 -0.55327712018E+03  0.56205343036E+03  0.00000000000E+00 0. -1.
<mgrwt>
<rscale>  0 0.69697173E+02</rscale>
<asrwt>0</asrwt>
<pdfrwt beam="2">  1        2 0.14206825E+00 0.10323765E+03</pdfrwt>
<pdfrwt beam="1">  1        1 0.15095989E-01 0.47053528E+02</pdfrwt>
<totfact> 0.14191344E+03</totfact>
</mgrwt>
</event>
<event>
 5    1  0.8891499E-003  0.7224321E+02  0.7546771E-02  0.1502961E+00
          1   -1    0    0  501    0 -0.00000000000E+00  0.00000000000E+00  0.18090315448E+04  0.18090315448E+04  0.00000000000E+00 0. -1.
          2   -1    0    0  502    0  0.00000000000E+00 -0.00000000000E+00 -0.18884599343E+03  0.18884599343E+03  0.00000000000E+00 0. -1.
         25    1    1    2    0    0 -0.59639212181E+02  0.67187479357E+02  0.21709022213E+02  0.15545827304E+03  0.12500000000E+03 0.  0.
          2    1    1    2  501    0  0.37371804873E+02 -0.61612599120E+02  0.17186061265E+04  0.17201162118E+04  0.00000000000E+00 0. -1.
          1    1    1    2  502    0  0.22267407308E+02 -0.55748802371E+01 -0.12012959731E+03  0.12230305338E+03  0.00000000000E+00 0. -1.
<mgrwt>
<rscale>  0 0.40722459E+02</rscale>
<asrwt>0</asrwt>
<pdfrwt beam="2">  1        2 0.29053231E-01 0.22954667E+02</pdfrwt>
<pdfrwt beam="1">  1        1 0.27831253E+00 0.72243206E+02</pdfrwt>
<totfact> 0.12029912E+02</totfact>
</mgrwt>
</event>
<event>
 5    1  0.8891499E-003  0.1304144E+03  0.7546771E-02  0.1432208E+00
         -2   -1    0    0    0  501 -0.00000000000E+00  0.00000000000E+00  0.40937671935E+03  0.40937671935E+03  0.00000000000E+00 0.  1.
          2   -1    0    0  502    0  0.00000000000E+00 -0.00000000000E+00 -0.21026246438E+03  0.21026246438E+03  0.00000000000E+00 0. -1.
         25    1    1    2    0    0  0.44617762164E+01 -0.12095496975E+03  0.31448486928E+03  0.35941027415E+03  0.12500000000E+03 0.  0.
          1    1    1    2  502    0  0.14491323104E+02  0.13034141372E+03 -0.16235381323E+03  0.20870467951E+03  0.00000000000E+00 0. -1.
         -1    1    1    2    0  501 -0.18953099320E+02 -0.93864439712E+01  0.46983198918E+02  0.51524230075E+02  0.00000000000E+00 0.  1.
<mgrwt>
<rscale>  0 0.52519266E+02</rscale>
<asrwt>0</asrwt>
<pdfrwt beam="2">  1        2 0.32348071E-01 0.13041441E+03</pdfrwt>
<pdfrwt beam="1">  1       -2 0.62981034E-01 0.21150066E+02</pdfrwt>
<totfact> 0.38773873E+02</totfact>
</mgrwt>
</event>
<event>
 5    1  0.8891499E-003  0.5300132E+02  0.7546771E-02  0.1464106E+00
          1   -1    0    0  502    0  0.00000000000E+00  0.00000000000E+00  0.86812281379E+03  0.86812281379E+03  0.00000000000E+00 0. -1.
         -1   -1    0    0    0  501 -0.00000000000E+00 -0.00000000000E+00 -0.16211937324E+03  0.16211937324E+03  0.00000000000E+00 0.  1.
         25    1    1    2    0    0 -0.66102769481E+01  0.76852500640E+02  0.37358568839E+03  0.40142405158E+03  0.12500000000E+03 0.  0.
          2    1    1    2  502    0  0.29118545024E+02 -0.42444491970E+02  0.47635280144E+03  0.47912567872E+03  0.00000000000E+00 0. -1.
         -2    1    1    2    0  501 -0.22508268076E+02 -0.34408008670E+02 -0.14393504928E+03  0.14969245673E+03  0.00000000000E+00 0.  1.
<mgrwt>
<rscale>  0 0.46681979E+02</rscale>
<asrwt>0</asrwt>
<pdfrwt beam="1">  1        1 0.13355735E+00 0.53001318E+02</pdfrwt>
<pdfrwt beam="2">  1       -1 0.24941442E-01 0.41116094E+02</pdfrwt>
<totfact> 0.29654332E+02</totfact>
</mgrwt>
</event>
<event>
 5    1  0.8891499E-003  0.1569859E+03  0.7546771E-02  0.1378450E+00
          2   -1    0    0  502    0  0.00000000000E+00  0.00000000000E+00  0.47750380104E+02  0.47750380104E+02  0.00000000000E+00 0. -1.
          1   -1    0    0  501    0 -0.00000000000E+00 -0.00000000000E+00 -0.95050918564E+03  0.95050918564E+03  0.00000000000E+00 0. -1.
         25    1    1    2    0    0 -0.90737335153E+02 -0.13990387716E+03 -0.45138753700E+03  0.49717408158E+03  0.12500000000E+03 0.  0.
          2    1    1    2  501    0  0.63989979493E+02  0.13809987900E+03 -0.44908877558E+03  0.47418036907E+03  0.00000000000E+00 0. -1.
          1    1    1    2  502    0  0.26747355660E+02  0.18039981572E+01 -0.22824929499E+01  0.26905115094E+02  0.00000000000E+00 0. -1.
<mgrwt>
<rscale>  0 0.64872932E+02</rscale>
<asrwt>0</asrwt>
<pdfrwt beam="1">  1        2 0.73462118E-02 0.26808123E+02</pdfrwt>
<pdfrwt beam="2">  1        1 0.14623219E+00 0.15698590E+03</pdfrwt>
<totfact> 0.19269617E+03</totfact>
</mgrwt>
</event>
<event>
 5    1  0.8891499E-003  0.2842533E+02  0.7546771E-02  0.1672784E+00
          1   -1    0    0  501    0 -0.00000000000E+00  0.00000000000E+00  0.54642128908E+03  0.54642128908E+03  0.00000000000E+00 0. -1.
          2   -1    0    0  502    0  0.00000000000E+00 -0.00000000000E+00 -0.19291678013E+04  0.19291678013E+04  0.00000000000E+00 0. -1.
         25    1    1    2    0    0 -0.39554281644E+02  0.23643523318E+02 -0.17127484415E+03  0.21698762553E+03  0.12500000000E+03 0.  0.
          2    1    1    2  501    0  0.12074515675E+02 -0.16691085987E+02  0.52324642551E+03  0.52365180043E+03  0.00000000000E+00 0. -1.
          1    1    1    2  502    0  0.27479765969E+02 -0.69524373316E+01 -0.17347180936E+04  0.17349496645E+04  0.00000000000E+00 0. -1.
<mgrwt>
<rscale>  0 0.24198758E+02</rscale>
<asrwt>0</asrwt>
<pdfrwt beam="2">  1        2 0.29679505E+00 0.28425327E+02</pdfrwt>
<pdfrwt beam="1">  1        1 0.84064812E-01 0.20600638E+02</pdfrwt>
<totfact> 0.60860800E+01</totfact>
</mgrwt>
</event>
<event>
 5    1  0.8891499E-003  0.4312648E+02  0.7546771E-02  0.1536503E+00
          1   -1    0    0  501    0 -0.00000000000E+00  0.00000000000E+00  0.50874816742E+03  0.50874816742E+03  0.00000000000E+00 0. -1.
          2   -1    0    0  502    0  0.00000000000E+00 -0.00000000000E+00 -0.52033482031E+02  0.52033482031E+02  0.00000000000E+00 0. -1.
         25    1    1    2    0    0 -0.25098629702E+02 -0.67795326020E+02  0.28399242420E+03  0.31859511052E+03  0.12500000000E+03 0.  0.
          2    1    1    2  501    0  0.75451523616E+01  0.29782938193E+02  0.19316480888E+03  0.19559293475E+03  0.00000000000E+00 0. -1.
          1    1    1    2  502    0  0.17553477340E+02  0.38012387827E+02 -0.20442547692E+02  0.46593604188E+02  0.00000000000E+00 0. -1.
<mgrwt>
<rscale>  0 0.36400684E+02</rscale>
<asrwt>0</asrwt>
<pdfrwt beam="2">  1        2 0.80051514E-02 0.43126476E+02</pdfrwt>
<pdfrwt beam="1">  1        1 0.78268946E-01 0.30723814E+02</pdfrwt>
<totfact> 0.46812542E+03</totfact>
</mgrwt>
</event>
<event>
 5    1  0.8891499E-003  0.1323609E+03  0.7546771E-02  0.1387313E+00
          2   -1    0    0  502    0  0.00000000000E+00  0.00000000000E+00  0.26411575895E+03  0.26411575895E+03  0.00000000000E+00 0. -1.
          1   -1    0    0  501    0 -0.00000000000E+00 -0.00000000000E+00 -0.84321889116E+03  0.84321889116E+03  0.00000000000E+00 0. -1.
         25    1    1    2    0    0 -0.57864535225E+02  0.87623441959E+02 -0.12723167779E+02  0.16374691147E+03  0.12500000000E+03 0.  0.
          2    1    1    2  501    0  0.72400367410E+02 -0.11339433170E+03 -0.74778223091E+03  0.75978836035E+03  0.00000000000E+00 0. -1.
          1    1    1    2  502    0 -0.14535832185E+02  0.25770889740E+02  0.18140226648E+03  0.18379937829E+03  0.00000000000E+00 0. -1.
<mgrwt>
<rscale>  0 0.62579943E+02</rscale>
<asrwt>0</asrwt>
<pdfrwt beam="1">  1        2 0.40633193E-01 0.29587652E+02</pdfrwt>
<pdfrwt beam="2">  1        1 0.12972598E+00 0.13236093E+03</pdfrwt>
<totfact> 0.36654984E+02</totfact>
</mgrwt>
</event>
<event>
 5    1  0.8891499E-003  0.3980088E+02  0.7546771E-02  0.1549839E+00
         -2   -1    0    0    0  501 -0.00000000000E+00  0.00000000000E+00  0.12488156991E+02  0.12488156991E+02  0.00000000000E+00 0.  1.
          2   -1    0    0  502    0  0.00000000000E+00 -0.00000000000E+00 -0.12108541323E+04  0.12108541323E+04  0.00000000000E+00 0. -1.
         25    1    1    2    0    0 -0.34037911594E+02  0.41785907880E+02 -0.79462674736E+03  0.80620177942E+03  0.12500000000E+03 0.  0.
          1    1    1    2  502    0  0.30421870243E+02 -0.26150456845E+01 -0.34558448842E+03  0.34693078170E+03  0.00000000000E+00 0. -1.
         -1    1    1    2    0  501  0.36160413510E+01 -0.39170862195E+02 -0.58154739533E+02  0.70209728174E+02  0.00000000000E+00 0.  1.
<mgrwt>
<rscale>  0 0.34860902E+02</rscale>
<asrwt>0</asrwt>
<pdfrwt beam="2">  1        2 0.18628526E+00 0.30534057E+02</pdfrwt>
<pdfrwt beam="1">  1       -2 0.19212548E-02 0.39800885E+02</pdfrwt>
<totfact> 0.14388521E+04</totfact>
</mgrwt>
</event>
<event>
 5    1  0.8891499E-003  0.8227149E+02  0.7546771E-02  0.1401385E+00
          1   -1    0    0  501    0 -0.00000000000E+00  0.00000000000E+00  0.91584161108E+03  0.91584161108E+03  0.00000000000E+00 0. -1.
          2   -1    0    0  502    0  0.00000000000E+00 -0.00000000000E+00 -0.93380899558E+02  0.93380899558E+02  0.00000000000E+00 0. -1.
         25    1    1    2    0    0  0.10796607733E+03 -0.39266006101E+02  0.75464212727E+02  0.18579112059E+03  0.12500000000E+03 0.  0.
          2    1    1    2  501    0 -0.36701521330E+02  0.21515320020E+02  0.74876059971E+03  0.74996823022E+03  0.00000000000E+00 0. -1.
          1    1    1    2  502    0 -0.71264556000E+02  0.17750686081E+02 -0.17641009206E+01  0.73463159817E+02  0.00000000000E+00 0. -1.
<mgrwt>
<rscale>  0 0.59161471E+02</rscale>
<asrwt>0</asrwt>
<pdfrwt beam="2">  1        2 0.14366293E-01 0.82271490E+02</pdfrwt>
<pdfrwt beam="1">  1        1 0.14089870E+00 0.42543045E+02</pdfrwt>
<totfact> 0.10923484E+03</totfact>
</mgrwt>
</event>
<event>
 5    1  0.8891499E-003  0.6514808E+02  0.7546771E-02  0.1437167E+00
         -2   -1    0    0    0  501 -0.00000000000E+00  0.00000000000E+00  0.10314224024E+03  0.10314224024E+03  0.00000000000E+00 0.  1.
          2   -1    0    0  502    0  0.00000000000E+00 -0.00000000000E+00 -0.14835950236E+04  0.14835950236E+04  0.00000000000E+00 0. -1.
         25    1    1    2    0    0  0.41023674027E+02  0.51651620137E+00 -0.18353704711E+03  0.22581863582E+03  0.12500000000E+03 0.  0.
          1    1    1    2  502    0 -0.53551419015E+02 -0.39331667978E+02 -0.12729248234E+04  0.12746577347E+04  0.00000000000E+00 0. -1.
         -1    1    1    2    0  501  0.12527744987E+02  0.38815151776E+02  0.76009087109E+02  0.86260893370E+02  0.00000000000E+00 0.  1.
<mgrwt>
<rscale>  0 0.51547839E+02</rscale>
<asrwt>0</asrwt>
<pdfrwt beam="2">  1        2 0.22824536E+00 0.65148083E+02</pdfrwt>
<pdfrwt beam="1">  1       -2 0.15868039E-01 0.40786767E+02</pdfrwt>
<totfact> 0.44522519E+02</totfact>
</mgrwt>
</event>
<event>
 5    1  0.8891499E-003  0.7484781E+02  0.7546771E-02  0.1452372E+00
          2   -1    0    0  502    0  0.00000000000E+00  0.00000000000E+00  0.15599506231E+04  0.15599506231E+04  0.00000000000E+00 0. -1.
         -2   -1    0    0    0  501 -0.00000000000E+00 -0.00000000000E+00 -0.35064762485E+02  0.35064762485E+02  0.00000000000E+00 0.  1.
         25    1    1    2    0    0  0.93674419315E+02 -0.29355700300E+02  0.26748670346E+03  0.31114432423E+03  0.12500000000E+03 0.  0.
          1    1    1    2  502    0 -0.27026658609E+02  0.16590469407E+02  0.11820254982E+04  0.11824508287E+04  0.00000000000E+00 0. -1.
         -1    1    1    2    0  501 -0.66647760705E+02  0.12765230893E+02  0.75373659036E+02  0.10142023271E+03  0.00000000000E+00 0.  1.
<mgrwt>
<rscale>  0 0.48719735E+02</rscale>
<asrwt>0</asrwt>
<pdfrwt beam="1">  1        2 0.23999235E+00 0.31712520E+02</pdfrwt>
<pdfrwt beam="2">  1       -2 0.53945801E-02 0.74847807E+02</pdfrwt>
<totfact> 0.23822329E+03</totfact>
</mgrwt>
</event>
<event>
 5    1  0.8891499E-003  0.1108005E+03  0.7546771E-02  0.1302490E+00
         -2   -1    0    0    0  501 -0.00000000000E+00  0.00000000000E+00  0.36669439176E+03  0.36669439176E+03  0.00000000000E+00 0.  1.
          2   -1    0    0  502    0  0.00000000000E+00 -0.00000000000E+00 -0.16720458425E+04  0.16720458425E+04  0.00000000000E+00 0. -1.
         25    1    1    2    0    0  0.16432435834E+02  0.46214770784E+02 -0.67521945794E+02  0.15029984414E+03  0.12500000000E+03 0.  0.
          1    1    1    2  502    0 -0.81632546933E+02 -0.79812128150E+02 -0.15568836282E+04  0.15610638937E+04  0.00000000000E+00 0. -1.
         -1    1    1    2    0  501  0.65200111099E+02  0.33597357366E+02  0.31905412319E+03  0.32737649646E+03  0.00000000000E+00 0.  1.
<mgrwt>
<rscale>  0 0.90149458E+02</rscale>
<asrwt>0</asrwt>
<pdfrwt beam="2">  1        2 0.25723782E+00 0.11080049E+03</pdfrwt>
<pdfrwt beam="1">  1       -2 0.56414522E-01 0.73347372E+02</pdfrwt>
<totfact> 0.36716459E+01</totfact>
</mgrwt>
</event>
<event>
 5    1  0.8891499E-003  0.9789169E+02  0.7546771E-02  0.1373636E+00
          2   -1    0    0  502    0  0.00000000000E+00  0.00000000000E+00  0.12300594189E+04  0.12300594189E+04  0.00000000000E+00 0. -1.
          1   -1    0    0  501    0 -0.00000000000E+00 -0.00000000000E+00 -0.48692579416E+03  0.48692579416E+03  0.00000000000E+00 0. -1.
         25    1    1    2    0    0  0.43047650074E+02 -0.55324517985E+02  0.32676317881E+03  0.35680958156E+03  0.12500000000E+03 0.  0.
          2    1    1    2  501    0  0.44712090268E+02 -0.99683643757E+00 -0.46777196521E+03  0.46990507141E+03  0.00000000000E+00 0. -1.
          1    1    1    2  502    0 -0.87759740342E+02  0.56321354423E+02  0.88414241116E+03  0.89027056011E+03  0.00000000000E+00 0. -1.
<mgrwt>
<rscale>  0 0.66166680E+02</rscale>
<asrwt>0</asrwt>
<pdfrwt beam="1">  1        2 0.18923991E+00 0.97891687E+02</pdfrwt>
<pdfrwt beam="2">  1        1 0.74911661E-01 0.44723201E+02</pdfrwt>
<totfact> 0.13680190E+02</totfact>
</mgrwt>
</event>
<event>
 5    1  0.8891499E-003  0.5620967E+02  0.7546771E-02  0.1476783E+00
         -1   -1    0    0    0  501 -0.00000000000E+00  0.00000000000E+00  0.20222009369E+03  0.20222009369E+03  0.00000000000E+00 0.  1.
          1   -1    0    0  502    0  0.00000000000E+00 -0.00000000000E+00 -0.37668013541E+03  0.37668013541E+03  0.00000000000E+00 0. -1.
         25    1    1    2    0    0 -0.70510668829E+02 -0.84336759020E+01 -0.86239313603E+01  0.14402171190E+03  0.12500000000E+03 0.  0.
          2    1    1    2  502    0  0.25562816285E+02 -0.24497504269E+02 -0.29347725375E+03  0.29560528372E+03  0.00000000000E+00 0. -1.
         -2    1    1    2    0  501  0.44947852544E+02  0.32931180171E+02  0.12764114339E+03  0.13927323348E+03  0.00000000000E+00 0.  1.
<mgrwt>
<rscale>  0 0.44611207E+02</rscale>
<asrwt>0</asrwt>
<pdfrwt beam="2">  1        1 0.57950790E-01 0.35406006E+02</pdfrwt>
<pdfrwt beam="1">  1       -1 0.31110784E-01 0.56209666E+02</pdfrwt>
<totfact> 0.62877039E+02</totfact>
</mgrwt>
</event>
<event>
 5    1  0.1883832E-002  0.7056674E+02  0.7546771E-02  0.1358808E+00
          2   -1    0    0  502    0  0.00000000000E+00  0.00000000000E+00  0.89036834698E+03  0.89036834698E+03  0.00000000000E+00 0. -1.
          1   -1    0    0  501    0 -0.00000000000E+00 -0.00000000000E+00 -0.19344723128E+04  0.19344723128E+04  0.00000000000E+00 0. -1.
         25    1    1    2    0    0  0.81081876205E+02  0.40167322984E+02 -0.45409561759E+03  0.47959932694E+03  0.12500000000E+03 0.  0.
          2    1    1    2  501    0 -0.17150175742E+02 -0.69144295798E+02 -0.14653546277E+04  0.14670852897E+04  0.00000000000E+00 0. -1.
          1    1    1    2  502    0 -0.63931700463E+02  0.28976972814E+02  0.87534627945E+03  0.87815604321E+03  0.00000000000E+00 0. -1.
<mgrwt>
<rscale>  0 0.70379157E+02</rscale>
<asrwt>0</asrwt>
<pdfrwt beam="1">  1        2 0.13697975E+00 0.70192074E+02</pdfrwt>
<pdfrwt beam="2">  1        1 0.29761112E+00 0.70566738E+02</pdfrwt>
<totfact> 0.19553438E+01</totfact>
</mgrwt>
</event>
<event>
 5    1  0.8891499E-003  0.7762741E+02  0.7546771E-02  0.1377517E+00
          1   -1    0    0  501    0 -0.00000000000E+00  0.00000000000E+00  0.12388018210E+03  0.12388018210E+03  0.00000000000E+00 0. -1.
          2   -1    0    0  502    0  0.00000000000E+00 -0.00000000000E+00 -0.14526513835E+04  0.14526513835E+04  0.00000000000E+00 0. -1.
         25    1    1    2    0    0 -0.16296054682E+01 -0.31234450623E+02 -0.59984628836E+03  0.61352980056E+03  0.12500000000E+03 0.  0.
          2    1    1    2  501    0  0.44712761999E+02  0.64823582834E+02  0.10279378514E+03  0.12949088864E+03  0.00000000000E+00 0. -1.
          1    1    1    2  502    0 -0.43083156531E+02 -0.33589132211E+02 -0.83171869815E+03  0.83351087638E+03  0.00000000000E+00 0. -1.
<mgrwt>
<rscale>  0 0.65121049E+02</rscale>
<asrwt>0</asrwt>
<pdfrwt beam="2">  1        2 0.22348482E+00 0.54629554E+02</pdfrwt>
<pdfrwt beam="1">  1        1 0.19058490E-01 0.77627414E+02</pdfrwt>
<totfact> 0.58189558E+02</totfact>
</mgrwt>
</event>
<event>
 5    1  0.8891499E-003  0.7408684E+02  0.7546771E-02  0.1434316E+00
         -2   -1    0    0    0  501  0.00000000000E+00  0.00000000000E+00  0.31684439932E+03  0.31684439932E+03  0.00000000000E+00 0.  1.
         -1   -1    0    0    0  502 -0.00000000000E+00 -0.00000000000E+00 -0.98572238093E+02  0.98572238093E+02  0.00000000000E+00 0.  1.
         25    1    1    2    0    0 -0.42361024670E+02  0.34305817321E+02  0.50525579920E+02  0.14542757558E+03  0.12500000000E+03 0.  0.
         -2    1    1    2    0  502  0.84520962845E+01  0.35654744304E+02 -0.36333078764E+02  0.51602241575E+02  0.00000000000E+00 0.  1.
         -1    1    1    2    0  501  0.33908928385E+02 -0.69960561626E+02  0.20407966007E+03  0.21838682026E+03  0.00000000000E+00 0.  1.
<mgrwt>
<rscale>  0 0.52103293E+02</rscale>
<asrwt>0</asrwt>
<pdfrwt beam="1">  1       -2 0.48745292E-01 0.74086837E+02</pdfrwt>
<pdfrwt beam="2">  1       -1 0.15164960E-01 0.36642854E+02</pdfrwt>
<totfact> 0.85543181E+02</totfact>
</mgrwt>
</event>
<event>
 5    1  0.8891499E-003  0.5851162E+02  0.7546771E-02  0.1441005E+00
          2   -1    0    0  502    0  0.00000000000E+00  0.00000000000E+00  0.21811322008E+04  0.21811322008E+04  0.00000000000E+00 0. -1.
          1   -1    0    0  501    0 -0.00000000000E+00 -0.00000000000E+00 -0.42951066613E+03  0.42951066613E+03  0.00000000000E+00 0. -1.
         25    1    1    2    0    0 -0.22708043933E+02 -0.96179064837E+02  0.16797040002E+03  0.23152780190E+03  0.12500000000E+03 0.  0.
          2    1    1    2  501    0  0.22129423316E+02  0.38177504615E+02 -0.39608191712E+03  0.39853245577E+03  0.00000000000E+00 0. -1.
          1    1    1    2  502    0  0.57862061647E+00  0.58001560223E+02  0.19797330518E+04  0.19805826093E+04  0.00000000000E+00 0. -1.
<mgrwt>
<rscale>  0 0.50813082E+02</rscale>
<asrwt>0</asrwt>
<pdfrwt beam="1">  1        2 0.33555879E+00 0.58511615E+02</pdfrwt>
<pdfrwt beam="2">  1        1 0.66078566E-01 0.44127466E+02</pdfrwt>
<totfact> 0.55513036E+01</totfact>
</mgrwt>
</event>
<event>
 5    1  0.8891499E-003  0.4343399E+02  0.7546771E-02  0.1562936E+00
          2   -1    0    0  502    0  0.00000000000E+00  0.00000000000E+00  0.46055149320E+03  0.46055149320E+03  0.00000000000E+00 0. -1.
         -2   -1    0    0    0  501 -0.00000000000E+00 -0.00000000000E+00 -0.31317368915E+02  0.31317368915E+02  0.00000000000E+00 0.  1.
         25    1    1    2    0    0  0.29273933377E+02  0.25483243015E+02  0.22853915521E+03  0.26336572350E+03  0.12500000000E+03 0.  0.
          1    1    1    2  502    0  0.15598901069E+02 -0.20475949721E+02  0.17432518244E+03  0.17621537806E+03  0.00000000000E+00 0. -1.
         -1    1    1    2    0  501 -0.44872834446E+02 -0.50072932943E+01  0.26369786642E+02  0.52287760565E+02  0.00000000000E+00 0.  1.
<mgrwt>
<rscale>  0 0.33436910E+02</rscale>
<asrwt>0</asrwt>
<pdfrwt beam="1">  1        2 0.70854071E-01 0.25740828E+02</pdfrwt>
<pdfrwt beam="2">  1       -2 0.48180571E-02 0.43433994E+02</pdfrwt>
<totfact> 0.12059677E+04</totfact>
</mgrwt>
</event>
<event>
 5    1  0.8891499E-003  0.5031177E+02  0.7546771E-02  0.1447033E+00
          1   -1    0    0  501    0 -0.00000000000E+00  0.00000000000E+00  0.12903183911E+04  0.12903183911E+04  0.00000000000E+00 0. -1.
          2   -1    0    0  502    0  0.00000000000E+00 -0.00000000000E+00 -0.15311903096E+04  0.15311903096E+04  0.00000000000E+00 0. -1.
         25    1    1    2    0    0 -0.49206341252E+02 -0.34869077408E+02 -0.78567801896E+02  0.15948359186E+03  0.12500000000E+03 0.  0.
          2    1    1    2  501    0  0.48324980734E+02 -0.14194350626E+02  0.12489264610E+04  0.12499416340E+04  0.00000000000E+00 0. -1.
          1    1    1    2  502    0  0.88136051834E+00  0.49063428034E+02 -0.14112305776E+04  0.14120834748E+04  0.00000000000E+00 0. -1.
<mgrwt>
<rscale>  0 0.49687685E+02</rscale>
<asrwt>0</asrwt>
<pdfrwt beam="2">  1        2 0.23556774E+00 0.49071344E+02</pdfrwt>
<pdfrwt beam="1">  1        1 0.19851052E+00 0.50311767E+02</pdfrwt>
<totfact> 0.23736763E+01</totfact>
</mgrwt>
</event>
<event>
 5    1  0.8891499E-003  0.1961767E+03  0.7546771E-02  0.1264140E+00
          2   -1    0    0  502    0  0.00000000000E+00  0.00000000000E+00  0.16380619381E+03  0.16380619381E+03  0.00000000000E+00 0. -1.
          1   -1    0    0  501    0 -0.00000000000E+00 -0.00000000000E+00 -0.68474181978E+03  0.68474181978E+03  0.00000000000E+00 0. -1.
         25    1    1    2    0    0  0.24251617691E+03  0.60438160753E+01 -0.18051936113E+03  0.32720462026E+03  0.12500000000E+03 0.  0.
          2    1    1    2  501    0 -0.18315079270E+03 -0.10864187008E+02 -0.39815233085E+03  0.43839197299E+03  0.00000000000E+00 0. -1.
          1    1    1    2  502    0 -0.59365384216E+02  0.48203709324E+01  0.57736066004E+02  0.82951420341E+02  0.00000000000E+00 0. -1.
<mgrwt>
<rscale>  0 0.10809457E+03</rscale>
<asrwt>0</asrwt>
<pdfrwt beam="1">  1        2 0.25200953E-01 0.59560766E+02</pdfrwt>
<pdfrwt beam="2">  1        1 0.10534490E+00 0.19617674E+03</pdfrwt>
<totfact> 0.82077404E+02</totfact>
</mgrwt>
</event>
<event>
 5    1  0.8891499E-003  0.1417747E+03  0.7546771E-02  0.1327452E+00
          2   -1    0    0  502    0  0.00000000000E+00  0.00000000000E+00  0.12490610649E+04  0.12490610649E+04  0.00000000000E+00 0. -1.
         -2   -1    0    0    0  501 -0.00000000000E+00 -0.00000000000E+00 -0.43990168389E+03  0.43990168389E+03  0.00000000000E+00 0.  1.
         25    1    1    2    0    0  0.57310644575E+02 -0.11631379004E+03 -0.13130430610E+03  0.22288837685E+03  0.12500000000E+03 0.  0.
          1    1    1    2  502    0 -0.10037085746E+03  0.10075978578E+03  0.11970330289E+04  0.12054521624E+04  0.00000000000E+00 0. -1.
         -1    1    1    2    0  501  0.43060212886E+02  0.15554004263E+02 -0.25656934179E+03  0.26062220958E+03  0.00000000000E+00 0.  1.
<mgrwt>
<rscale>  0 0.80566178E+02</rscale>
<asrwt>0</asrwt>
<pdfrwt beam="1">  1        2 0.19216324E+00 0.14177465E+03</pdfrwt>
<pdfrwt beam="2">  1       -2 0.67677183E-01 0.45783283E+02</pdfrwt>
<totfact> 0.41499127E+01</totfact>
</mgrwt>
</event>
<event>
 5    1  0.8891499E-003  0.3289592E+02  0.7546771E-02  0.1584680E+00
          2   -1    0    0  502    0  0.00000000000E+00  0.00000000000E+00  0.23997378465E+04  0.23997378465E+04  0.00000000000E+00 0. -1.
          1   -1    0    0  501    0 -0.00000000000E+00 -0.00000000000E+00 -0.12127999871E+02  0.12127999871E+02  0.00000000000E+00 0. -1.
         25    1    1    2    0    0 -0.18854841045E+01  0.14734405630E+02  0.17340554934E+04  0.17386184492E+04  0.12500000000E+03 0.  0.
          2    1    1    2  501    0  0.32883887579E+02  0.88972100438E+00  0.19495334520E+02  0.38238851105E+02  0.00000000000E+00 0. -1.
          1    1    1    2  502    0 -0.30998403474E+02 -0.15624126635E+02  0.63405901873E+03  0.63500854607E+03  0.00000000000E+00 0. -1.
<mgrwt>
<rscale>  0 0.31248958E+02</rscale>
<asrwt>0</asrwt>
<pdfrwt beam="1">  1        2 0.36919006E+00 0.29684450E+02</pdfrwt>
<pdfrwt beam="2">  1        1 0.18658480E-02 0.32895922E+02</pdfrwt>
<totfact> 0.41438569E+03</totfact>
</mgrwt>
</event>
<event>
 5    1  0.8891499E-003  0.8544834E+02  0.7546771E-02  0.1387955E+00
          2   -1    0    0  502    0  0.00000000000E+00  0.00000000000E+00  0.57987123403E+02  0.57987123403E+02  0.00000000000E+00 0. -1.
         -2   -1    0    0    0  501 -0.00000000000E+00 -0.00000000000E+00 -0.41422939987E+03  0.41422939987E+03  0.00000000000E+00 0.  1.
         25    1    1    2    0    0  0.89004096223E+02 -0.40111318168E+02 -0.11536050651E+03  0.19612162923E+03  0.12500000000E+03 0.  0.
          1    1    1    2  502    0 -0.49865345065E+02  0.63501120269E+02 -0.10302403848E+03  0.13089269429E+03  0.00000000000E+00 0. -1.
         -1    1    1    2    0  501 -0.39138751158E+02 -0.23389802101E+02 -0.13785773148E+03  0.14520219975E+03  0.00000000000E+00 0.  1.
<mgrwt>
<rscale>  0 0.62418236E+02</rscale>
<asrwt>0</asrwt>
<pdfrwt beam="1">  1        2 0.89210960E-02 0.85448336E+02</pdfrwt>
<pdfrwt beam="2">  1       -2 0.63727599E-01 0.45595227E+02</pdfrwt>
<totfact> 0.16319463E+03</totfact>
</mgrwt>
</event>
<event>
 5    1  0.8891499E-003  0.9945018E+02  0.7546771E-02  0.1364780E+00
          1   -1    0    0  502    0  0.00000000000E+00  0.00000000000E+00  0.21202716191E+04  0.21202716191E+04  0.00000000000E+00 0. -1.
         -1   -1    0    0    0  501 -0.00000000000E+00 -0.00000000000E+00 -0.75797466018E+02  0.75797466018E+02  0.00000000000E+00 0.  1.
         25    1    1    2    0    0  0.95659471532E+02 -0.98401059633E+02  0.10003406283E+04  0.10174182403E+04  0.12500000000E+03 0.  0.
          2    1    1    2  502    0 -0.56686395441E+02  0.71466601673E+02  0.11009229017E+04  0.11046954594E+04  0.00000000000E+00 0. -1.
         -2    1    1    2    0  501 -0.38973076090E+02  0.26934457960E+02 -0.56789376976E+02  0.73955385354E+02  0.00000000000E+00 0.  1.
<mgrwt>
<rscale>  0 0.68639830E+02</rscale>
<asrwt>0</asrwt>
<pdfrwt beam="1">  1        1 0.32619559E+00 0.99450184E+02</pdfrwt>
<pdfrwt beam="2">  1       -1 0.11661150E-01 0.47374737E+02</pdfrwt>
<totfact> 0.13847064E+02</totfact>
</mgrwt>
</event>
<event>
 5    1  0.8891499E-003  0.5031659E+02  0.7546771E-02  0.1514690E+00
         -1   -1    0    0    0  501 -0.00000000000E+00  0.00000000000E+00  0.19082535774E+03  0.19082535774E+03  0.00000000000E+00 0.  1.
          1   -1    0    0  502    0  0.00000000000E+00 -0.00000000000E+00 -0.66119973103E+02  0.66119973103E+02  0.00000000000E+00 0. -1.
         25    1    1    2    0    0 -0.14832589649E+02  0.21134696330E+02  0.94995065464E+02  0.15910921899E+03  0.12500000000E+03 0.  0.
          2    1    1    2  502    0  0.37943682807E+02 -0.40938121012E+02  0.74828834427E+00  0.55823048577E+02  0.00000000000E+00 0. -1.
         -2    1    1    2    0  501 -0.23111093159E+02  0.19803424682E+02  0.28962030826E+02  0.42013063274E+02  0.00000000000E+00 0.  1.
<mgrwt>
<rscale>  0 0.39133014E+02</rscale>
<asrwt>0</asrwt>
<pdfrwt beam="2">  1        1 0.10172304E-01 0.50316587E+02</pdfrwt>
<pdfrwt beam="1">  1       -1 0.29357747E-01 0.30435148E+02</pdfrwt>
<totfact> 0.57043721E+03</totfact>
</mgrwt>
</event>
<event>
 5    1  0.8891499E-003  0.7790396E+02  0.7546771E-02  0.1401425E+00
          2   -1    0    0  502    0  0.00000000000E+00  0.00000000000E+00  0.72347801820E+03  0.72347801820E+03  0.00000000000E+00 0. -1.
         -2   -1    0    0    0  501 -0.00000000000E+00 -0.00000000000E+00 -0.13299923902E+03  0.13299923902E+03  0.00000000000E+00 0.  1.
         25    1    1    2    0    0 -0.74511315348E+02  0.80874703008E+02  0.34087210490E+03  0.37935662061E+03  0.12500000000E+03 0.  0.
          1    1    1    2  502    0  0.32621692604E+02 -0.64672131840E+02  0.35512730469E+03  0.36243904591E+03  0.00000000000E+00 0. -1.
         -1    1    1    2    0  501  0.41889622744E+02 -0.16202571168E+02 -0.10552063040E+03  0.11468159070E+03  0.00000000000E+00 0.  1.
<mgrwt>
<rscale>  0 0.59152136E+02</rscale>
<asrwt>0</asrwt>
<pdfrwt beam="1">  1        2 0.11130431E+00 0.77903958E+02</pdfrwt>
<pdfrwt beam="2">  1       -2 0.20461422E-01 0.44913960E+02</pdfrwt>
<totfact> 0.79513756E+02</totfact>
</mgrwt>
</event>
<event>
 5    1  0.8891499E-003  0.5987357E+02  0.7546771E-02  0.1425338E+00
          2   -1    0    0  502    0  0.00000000000E+00  0.00000000000E+00  0.19443111692E+04  0.19443111692E+04  0.00000000000E+00 0. -1.
         -2   -1    0    0    0  501 -0.00000000000E+00 -0.00000000000E+00 -0.37115678618E+02  0.37115678618E+02  0.00000000000E+00 0.  1.
         25    1    1    2    0    0 -0.12864325150E+02  0.43004804145E+00  0.12548794588E+04  0.12611554749E+04  0.12500000000E+03 0.  0.
          1    1    1    2  502    0 -0.46733211999E+02 -0.13103414911E+02  0.65734469495E+03  0.65913408390E+03  0.00000000000E+00 0. -1.
         -1    1    1    2    0  501  0.59597537149E+02  0.12673366869E+02 -0.50286630925E+01  0.61137289068E+02  0.00000000000E+00 0.  1.
<mgrwt>
<rscale>  0 0.53907258E+02</rscale>
<asrwt>0</asrwt>
<pdfrwt beam="1">  1        2 0.29912472E+00 0.48535478E+02</pdfrwt>
<pdfrwt beam="2">  1       -2 0.57101059E-02 0.59873573E+02</pdfrwt>
<totfact> 0.13375792E+03</totfact>
</mgrwt>
</event>
<event>
 5    1  0.8891499E-003  0.4989189E+02  0.7546771E-02  0.1565935E+00
         -1   -1    0    0    0  501 -0.00000000000E+00  0.00000000000E+00  0.21206006185E+03  0.21206006185E+03  0.00000000000E+00 0.  1.
          1   -1    0    0  502    0  0.00000000000E+00 -0.00000000000E+00 -0.17191632341E+03  0.17191632341E+03  0.00000000000E+00 0. -1.
         25    1    1    2    0    0  0.38033003853E+02  0.59963379952E+02  0.84505576733E+02  0.16675823463E+03  0.12500000000E+03 0.  0.
          2    1    1    2  502    0 -0.24884109580E+02 -0.42338357074E+02 -0.12464889169E+03  0.13397425719E+03  0.00000000000E+00 0. -1.
         -2    1    1    2    0  501 -0.13148894272E+02 -0.17625022878E+02  0.80287053401E+02  0.83243893445E+02  0.00000000000E+00 0.  1.
<mgrwt>
<rscale>  0 0.33122408E+02</rscale>
<asrwt>0</asrwt>
<pdfrwt beam="2">  1        1 0.26448665E-01 0.49891886E+02</pdfrwt>
<pdfrwt beam="1">  1       -1 0.32624625E-01 0.21989426E+02</pdfrwt>
<totfact> 0.14472752E+03</totfact>
</mgrwt>
</event>
<event>
 5    1  0.8891499E-003  0.7565389E+02  0.7546771E-02  0.1350815E+00
          2   -1    0    0  502    0  0.00000000000E+00  0.00000000000E+00  0.97930964350E+03  0.97930964350E+03  0.00000000000E+00 0. -1.
         -2   -1    0    0    0  501 -0.00000000000E+00 -0.00000000000E+00 -0.78202352164E+02  0.78202352164E+02  0.00000000000E+00 0.  1.
         25    1    1    2    0    0  0.20757820710E+02  0.10961393286E+02  0.39083745648E+02  0.13305479487E+03  0.12500000000E+03 0.  0.
          1    1    1    2  502    0 -0.76067108235E+00 -0.78104706004E+02  0.84975002978E+03  0.85333231325E+03  0.00000000000E+00 0. -1.
         -1    1    1    2    0  501 -0.19997149628E+02  0.67143312717E+02  0.12273515906E+02  0.71124887547E+02  0.00000000000E+00 0.  1.
<mgrwt>
<rscale>  0 0.72802151E+02</rscale>
<asrwt>0</asrwt>
<pdfrwt beam="1">  1        2 0.15066301E+00 0.75653890E+02</pdfrwt>
<pdfrwt beam="2">  1       -2 0.12031132E-01 0.70057908E+02</pdfrwt>
<totfact> 0.13174218E+03</totfact>
</mgrwt>
</event>
<event>
 5    1  0.8891499E-003  0.1473626E+03  0.7546771E-02  0.1266882E+00
          1   -1    0    0  501    0 -0.00000000000E+00  0.00000000000E+00  0.15245860966E+04  0.15245860966E+04  0.00000000000E+00 0. -1.
          2   -1    0    0  502    0  0.00000000000E+00 -0.00000000000E+00 -0.14112802696E+03  0.14112802696E+03  0.00000000000E+00 0. -1.
         25    1    1    2    0    0 -0.12313734098E+03 -0.51613342650E+02  0.24562829357E+03  0.30624336807E+03  0.12500000000E+03 0.  0.
          2    1    1    2  501    0  0.90985399866E+02  0.12179995214E+03  0.12299321127E+04  0.12392927714E+04  0.00000000000E+00 0. -1.
          1    1    1    2  502    0  0.32151941111E+02 -0.70186609494E+02 -0.92102336599E+02  0.12017798416E+03  0.00000000000E+00 0. -1.
<mgrwt>
<rscale>  0 0.10666049E+03</rscale>
<asrwt>0</asrwt>
<pdfrwt beam="2">  1        2 0.21712005E-01 0.77200437E+02</pdfrwt>
<pdfrwt beam="1">  1        1 0.23455170E+00 0.14736263E+03</pdfrwt>
<totfact> 0.24134645E+02</totfact>
</mgrwt>
</event>
<event>
 5    1  0.8891499E-003  0.1197616E+03  0.7546771E-02  0.1296065E+00
          2   -1    0    0  502    0  0.00000000000E+00  0.00000000000E+00  0.97241451004E+02  0.97241451004E+02  0.00000000000E+00 0. -1.
          1   -1    0    0  501    0 -0.00000000000E+00 -0.00000000000E+00 -0.86108912262E+03  0.86108912262E+03  0.00000000000E+00 0. -1.
         25    1    1    2    0    0  0.95898269344E+01  0.10002730229E+03 -0.19838027943E+03  0.25510225646E+03  0.12500000000E+03 0.  0.
          2    1    1    2  501    0  0.61405878140E+02 -0.11203934052E+03 -0.60686719370E+03  0.62017036892E+03  0.00000000000E+00 0. -1.
          1    1    1    2  502    0 -0.70995705074E+02  0.12012038236E+02  0.41399801514E+02  0.83057948247E+02  0.00000000000E+00 0. -1.
<mgrwt>
<rscale>  0 0.92862257E+02</rscale>
<asrwt>0</asrwt>
<pdfrwt beam="1">  1        2 0.14960223E-01 0.72004717E+02</pdfrwt>
<pdfrwt beam="2">  1        1 0.13247525E+00 0.11976158E+03</pdfrwt>
<totfact> 0.10727719E+03</totfact>
</mgrwt>
</event>
<event>
 5    1  0.8891499E-003  0.1042602E+03  0.7546771E-02  0.1291880E+00
          2   -1    0    0  502    0  0.00000000000E+00  0.00000000000E+00  0.68782155492E+03  0.68782155492E+03  0.00000000000E+00 0. -1.
          3   -1    0    0  501    0 -0.00000000000E+00 -0.00000000000E+00 -0.26509231729E+03  0.26509231729E+03  0.00000000000E+00 0. -1.
         25    1    1    2    0    0  0.88602813377E+02  0.67286387196E+02  0.50313117770E+02  0.17474074013E+03  0.12500000000E+03 0.  0.
          2    1    1    2  501    0 -0.10597375802E+03  0.16935741881E+02 -0.18515551685E+03  0.21400893010E+03  0.00000000000E+00 0. -1.
          1    1    1    2  502    0  0.17370944646E+02 -0.84222129077E+02  0.55757163670E+03  0.56416420198E+03  0.00000000000E+00 0. -1.
<mgrwt>
<rscale>  0 0.94688138E+02</rscale>
<asrwt>0</asrwt>
<pdfrwt beam="1">  1        2 0.10581870E+00 0.85994865E+02</pdfrwt>
<pdfrwt beam="2">  1        3 0.40783434E-01 0.10426022E+03</pdfrwt>
<totfact> 0.15824837E+02</totfact>
</mgrwt>
</event>
<event>
 5    1  0.8891499E-003  0.4607200E+02  0.7546771E-02  0.1489601E+00
          2   -1    0    0  502    0  0.00000000000E+00  0.00000000000E+00  0.45891206093E+03  0.45891206093E+03  0.00000000000E+00 0. -1.
          1   -1    0    0  501    0 -0.00000000000E+00 -0.00000000000E+00 -0.58307427528E+02  0.58307427528E+02  0.00000000000E+00 0. -1.
         25    1    1    2    0    0  0.25057456384E+02 -0.31994178510E+02  0.36209378250E+03  0.38521216350E+03  0.12500000000E+03 0.  0.
          2    1    1    2  501    0  0.23084482925E+02  0.39871497050E+02 -0.24610047669E+02  0.52232978808E+02  0.00000000000E+00 0. -1.
          1    1    1    2  502    0 -0.48141939309E+02 -0.78773185404E+01  0.63120898566E+02  0.79774346150E+02  0.00000000000E+00 0. -1.
<mgrwt>
<rscale>  0 0.42645265E+02</rscale>
<asrwt>0</asrwt>
<pdfrwt beam="1">  1        2 0.70601853E-01 0.39473399E+02</pdfrwt>
<pdfrwt beam="2">  1        1 0.89703738E-02 0.46072005E+02</pdfrwt>
<totfact> 0.62326130E+03</totfact>
</mgrwt>
</event>
<event>
 5    1  0.8891499E-003  0.1899764E+03  0.7546771E-02  0.1215793E+00
          2   -1    0    0  502    0  0.00000000000E+00  0.00000000000E+00  0.10414581735E+04  0.10414581735E+04  0.00000000000E+00 0. -1.
          1   -1    0    0  501    0 -0.00000000000E+00 -0.00000000000E+00 -0.17729107552E+03  0.17729107552E+03  0.00000000000E+00 0. -1.
         25    1    1    2    0    0  0.46367911294E+02 -0.10670814604E+03  0.31262656538E+03  0.35622602517E+03  0.12500000000E+03 0.  0.
          2    1    1    2  501    0 -0.24749433934E+02  0.20486773955E+03 -0.81267079080E+02  0.22178291939E+03  0.00000000000E+00 0. -1.
          1    1    1    2  502    0 -0.21618477360E+02 -0.98159593517E+02  0.63280761170E+03  0.64074030448E+03  0.00000000000E+00 0. -1.
<mgrwt>
<rscale>  0 0.13818434E+03</rscale>
<asrwt>0</asrwt>
<pdfrwt beam="1">  1        2 0.16022433E+00 0.10051201E+03</pdfrwt>
<pdfrwt beam="2">  1        1 0.27275551E-01 0.18997642E+03</pdfrwt>
<totfact> 0.60370128E+02</totfact>
</mgrwt>
</event>
<event>
 5    1  0.8891499E-003  0.2315437E+03  0.7546771E-02  0.1267532E+00
          1   -1    0    0  502    0  0.00000000000E+00  0.00000000000E+00  0.18018814408E+03  0.18018814408E+03  0.00000000000E+00 0. -1.
         -1   -1    0    0    0  501 -0.00000000000E+00 -0.00000000000E+00 -0.11225726814E+04  0.11225726814E+04  0.00000000000E+00 0.  1.
         25    1    1    2    0    0  0.13399266397E+03  0.15817473158E+03 -0.67869788740E+03  0.72057553530E+03  0.12500000000E+03 0.  0.
          2    1    1    2  502    0 -0.11681268783E+03 -0.20387642554E+03  0.69820031093E+02  0.24512371911E+03  0.00000000000E+00 0. -1.
         -2    1    1    2    0  501 -0.17179976139E+02  0.45701693961E+02 -0.33350668100E+03  0.33706157105E+03  0.00000000000E+00 0.  1.
<mgrwt>
<rscale>  0 0.10632461E+03</rscale>
<asrwt>0</asrwt>
<pdfrwt beam="1">  1        1 0.27721253E-01 0.23154374E+03</pdfrwt>
<pdfrwt beam="2">  1       -1 0.17270349E+00 0.48824138E+02</pdfrwt>
<totfact> 0.49325084E+01</totfact>
</mgrwt>
</event>
<event>
 5    1  0.8891499E-003  0.3767134E+02  0.7546771E-02  0.1576143E+00
         -1   -1    0    0    0  501 -0.00000000000E+00  0.00000000000E+00  0.19297443228E+03  0.19297443228E+03  0.00000000000E+00 0.  1.
          1   -1    0    0  502    0  0.00000000000E+00 -0.00000000000E+00 -0.20837471826E+03  0.20837471826E+03  0.00000000000E+00 0. -1.
         25    1    1    2    0    0  0.39608694564E+02 -0.46428944302E+02 -0.10882601517E+03  0.17661426084E+03  0.12500000000E+03 0.  0.
          2    1    1    2  502    0 -0.83340071635E+01  0.26021688628E+02 -0.60478734200E+02  0.66364608376E+02  0.00000000000E+00 0. -1.
         -2    1    1    2    0  501 -0.31274687401E+02  0.20407255674E+02  0.15390446339E+03  0.15837028132E+03  0.00000000000E+00 0.  1.
<mgrwt>
<rscale>  0 0.32083016E+02</rscale>
<asrwt>0</asrwt>
<pdfrwt beam="2">  1        1 0.32057649E-01 0.27323689E+02</pdfrwt>
<pdfrwt beam="1">  1       -1 0.29688374E-01 0.37671339E+02</pdfrwt>
<totfact> 0.13397136E+03</totfact>
</mgrwt>
</event>
<event>
 5    1  0.8891499E-003  0.2357555E+03  0.7546771E-02  0.1312146E+00
          2   -1    0    0  502    0  0.00000000000E+00  0.00000000000E+00  0.67837977719E+03  0.67837977719E+03  0.00000000000E+00 0. -1.
          1   -1    0    0  501    0 -0.00000000000E+00 -0.00000000000E+00 -0.28224667041E+04  0.28224667041E+04  0.00000000000E+00 0. -1.
         25    1    1    2    0    0 -0.17688942931E+03 -0.12278521002E+03 -0.44652431135E+03  0.51124850966E+03  0.12500000000E+03 0.  0.
          2    1    1    2  501    0  0.18418397138E+03  0.15349932192E+03 -0.23370576601E+04  0.23493242185E+04  0.00000000000E+00 0. -1.
          1    1    1    2  502    0 -0.72945420682E+01 -0.30714111903E+02  0.63949504450E+03  0.64027375314E+03  0.00000000000E+00 0. -1.
<mgrwt>
<rscale>  0 0.86269550E+02</rscale>
<asrwt>0</asrwt>
<pdfrwt beam="1">  1        2 0.10436612E+00 0.31568450E+02</pdfrwt>
<pdfrwt beam="2">  1        1 0.43422565E+00 0.23575549E+03</pdfrwt>
<totfact> 0.62447626E+00</totfact>
</mgrwt>
</event>
<event>
 5    1  0.8891499E-003  0.1448160E+03  0.7546771E-02  0.1384341E+00
          1   -1    0    0  502    0  0.00000000000E+00  0.00000000000E+00  0.86831339744E+03  0.86831339744E+03  0.00000000000E+00 0. -1.
         -1   -1    0    0    0  501 -0.00000000000E+00 -0.00000000000E+00 -0.54129774448E+03  0.54129774448E+03  0.00000000000E+00 0.  1.
         25    1    1    2    0    0  0.96309193298E+02 -0.83739834746E+02  0.32465353896E+03  0.37055733834E+03  0.12500000000E+03 0.  0.
          2    1    1    2  502    0 -0.12274738621E+03  0.92007114983E+02  0.50902321724E+03  0.53163602748E+03  0.00000000000E+00 0. -1.
         -2    1    1    2    0  501  0.26438192909E+02 -0.82672802365E+01 -0.50666110324E+03  0.50741777610E+03  0.00000000000E+00 0.  1.
<mgrwt>
<rscale>  0 0.63336374E+02</rscale>
<asrwt>0</asrwt>
<pdfrwt beam="1">  1        1 0.13358668E+00 0.14481597E+03</pdfrwt>
<pdfrwt beam="2">  1       -1 0.83276576E-01 0.27700649E+02</pdfrwt>
<totfact> 0.34253067E+01</totfact>
</mgrwt>
</event>
<event>
 5    1  0.8891499E-003  0.1870308E+03  0.7546771E-02  0.1223654E+00
          2   -1    0    0  502    0  0.00000000000E+00  0.00000000000E+00  0.98886268445E+03  0.98886268445E+03  0.00000000000E+00 0. -1.
          1   -1    0    0  501    0 -0.00000000000E+00 -0.00000000000E+00 -0.73952749714E+03  0.73952749714E+03  0.00000000000E+00 0. -1.
         25    1    1    2    0    0 -0.12104142117E+03 -0.19923080035E+03  0.33451117685E+03  0.42645828036E+03  0.12500000000E+03 0.  0.
          2    1    1    2  501    0 -0.20096514557E+02  0.91831147911E+02 -0.67731284076E+03  0.68380517246E+03  0.00000000000E+00 0. -1.
          3    1    1    2  502    0  0.14113793573E+03  0.10739965244E+03  0.59213685122E+03  0.61812672877E+03  0.00000000000E+00 0. -1.
<mgrwt>
<rscale>  0 0.13259607E+03</rscale>
<asrwt>0</asrwt>
<pdfrwt beam="1">  1        2 0.15213272E+00 0.18703078E+03</pdfrwt>
<pdfrwt beam="2">  1        1 0.11377346E+00 0.94004413E+02</pdfrwt>
<totfact> 0.10156059E+02</totfact>
</mgrwt>
</event>
<event>
 5    1  0.8891499E-003  0.1230814E+03  0.7546771E-02  0.1346932E+00
          2   -1    0    0  502    0  0.00000000000E+00  0.00000000000E+00  0.20498361792E+03  0.20498361792E+03  0.00000000000E+00 0. -1.
          1   -1    0    0  501    0 -0.00000000000E+00 -0.00000000000E+00 -0.12603486707E+04  0.12603486707E+04  0.00000000000E+00 0. -1.
         25    1    1    2    0    0 -0.13318265800E+03  0.96830514172E+02 -0.16737378515E+03  0.26599389621E+03  0.12500000000E+03 0.  0.
          2    1    1    2  501    0  0.97627144583E+02 -0.70046074314E+02 -0.10369408065E+04  0.10438791827E+04  0.00000000000E+00 0. -1.
          1    1    1    2  502    0  0.35555513418E+02 -0.26784439857E+02  0.14894953887E+03  0.15545920970E+03  0.00000000000E+00 0. -1.
<mgrwt>
<rscale>  0 0.74020204E+02</rscale>
<asrwt>0</asrwt>
<pdfrwt beam="1">  1        2 0.31535941E-01 0.44515174E+02</pdfrwt>
<pdfrwt beam="2">  1        1 0.19389980E+00 0.12308142E+03</pdfrwt>
<totfact> 0.24118098E+02</totfact>
</mgrwt>
</event>
<event>
 5    1  0.2156044E-002  0.9150563E+02  0.7546771E-02  0.1326406E+00
          2   -1    0    0  502    0  0.00000000000E+00  0.00000000000E+00  0.26658394846E+04  0.26658394846E+04  0.00000000000E+00 0. -1.
         -2   -1    0    0    0  501 -0.00000000000E+00 -0.00000000000E+00 -0.11065447323E+02  0.11065447323E+02  0.00000000000E+00 0.  1.
         25    1    1    2    0    0  0.43095583171E+02  0.12532440411E+03  0.14960237240E+04  0.15070751203E+04  0.12500000000E+03 0.  0.
          1    1    1    2  502    0  0.17416205329E+02 -0.69443033359E+02  0.70844567843E+03  0.71205402771E+03  0.00000000000E+00 0. -1.
         -1    1    1    2    0  501 -0.60511788500E+02 -0.55881370746E+02  0.45030463487E+03  0.45777578391E+03  0.00000000000E+00 0.  1.
<mgrwt>
<rscale>  0 0.80939653E+02</rscale>
<asrwt>0</asrwt>
<pdfrwt beam="1">  1        2 0.41012864E+00 0.71593708E+02</pdfrwt>
<pdfrwt beam="2">  1       -2 0.17023786E-02 0.91505631E+02</pdfrwt>
<totfact> 0.33421549E+03</totfact>
</mgrwt>
</event>
<event>
 5    1  0.8891499E-003  0.6415263E+02  0.7546771E-02  0.1412964E+00
          2   -1    0    0  502    0  0.00000000000E+00  0.00000000000E+00  0.56699987151E+03  0.56699987151E+03  0.00000000000E+00 0. -1.
          1   -1    0    0  501    0 -0.00000000000E+00 -0.00000000000E+00 -0.18827382201E+03  0.18827382201E+03  0.00000000000E+00 0. -1.
         25    1    1    2    0    0 -0.55451555752E+02 -0.24337088218E+02 -0.37406099596E+02  0.14384500403E+03  0.12500000000E+03 0.  0.
          2    1    1    2  501    0  0.33814949214E+02 -0.36595687991E+02 -0.89094596398E+02  0.10208105739E+03  0.00000000000E+00 0. -1.
          1    1    1    2  502    0  0.21636606538E+02  0.60932776209E+02  0.50522674550E+03  0.50934763210E+03  0.00000000000E+00 0. -1.
<mgrwt>
<rscale>  0 0.56537694E+02</rscale>
<asrwt>0</asrwt>
<pdfrwt beam="1">  1        2 0.87230748E-01 0.64152632E+02</pdfrwt>
<pdfrwt beam="2">  1        1 0.28965204E-01 0.49826651E+02</pdfrwt>
<totfact> 0.11560710E+03</totfact>
</mgrwt>
</event>
<event>
 5    1  0.8891499E-003  0.1323044E+03  0.7546771E-02  0.1308293E+00
          2   -1    0    0  502    0  0.00000000000E+00  0.00000000000E+00  0.74833227401E+03  0.74833227401E+03  0.00000000000E+00 0. -1.
          1   -1    0    0  501    0 -0.00000000000E+00 -0.00000000000E+00 -0.14858801091E+03  0.14858801091E+03  0.00000000000E+00 0. -1.
         25    1    1    2    0    0 -0.10746139237E+03  0.20320866005E+02  0.10100579734E+03  0.19439151098E+03  0.12500000000E+03 0.  0.
          2    1    1    2  501    0 -0.26545456311E+02 -0.51853102843E+02 -0.84850337286E+02  0.10292222920E+03  0.00000000000E+00 0. -1.
          1    1    1    2  502    0  0.13400684868E+03  0.31532236838E+02  0.58358880305E+03  0.59960654474E+03  0.00000000000E+00 0. -1.
<mgrwt>
<rscale>  0 0.87790198E+02</rscale>
<asrwt>0</asrwt>
<pdfrwt beam="1">  1        2 0.11512804E+00 0.13230437E+03</pdfrwt>
<pdfrwt beam="2">  1        1 0.22859694E-01 0.58252944E+02</pdfrwt>
<totfact> 0.11058170E+03</totfact>
</mgrwt>
</event>
<event>
 5    1  0.8891499E-003  0.7609600E+02  0.7546771E-02  0.1395940E+00
          2   -1    0    0  502    0  0.00000000000E+00  0.00000000000E+00  0.14360733717E+04  0.14360733717E+04  0.00000000000E+00 0. -1.
          1   -1    0    0  501    0 -0.00000000000E+00 -0.00000000000E+00 -0.28602973604E+03  0.28602973604E+03  0.00000000000E+00 0. -1.
         25    1    1    2    0    0  0.18355185444E+01 -0.38137962604E+02  0.29083436441E+02  0.13389816875E+03  0.12500000000E+03 0.  0.
          2    1    1    2  501    0  0.30845946030E+02  0.73328920642E+02 -0.22640986417E+03  0.23997922740E+03  0.00000000000E+00 0. -1.
          1    1    1    2  502    0 -0.32681464574E+02 -0.35190958039E+02  0.13473700634E+04  0.13482257116E+04  0.00000000000E+00 0. -1.
<mgrwt>
<rscale>  0 0.60453078E+02</rscale>
<asrwt>0</asrwt>
<pdfrwt beam="1">  1        2 0.22093436E+00 0.48025844E+02</pdfrwt>
<pdfrwt beam="2">  1        1 0.44004575E-01 0.76096000E+02</pdfrwt>
<totfact> 0.21475741E+02</totfact>
</mgrwt>
</event>
<event>
 5    1  0.8891499E-003  0.1393248E+03  0.7546771E-02  0.1332699E+00
          1   -1    0    0  502    0  0.00000000000E+00  0.00000000000E+00  0.10902009342E+04  0.10902009342E+04  0.00000000000E+00 0. -1.
         -1   -1    0    0    0  501 -0.00000000000E+00 -0.00000000000E+00 -0.85275151482E+03  0.85275151482E+03  0.00000000000E+00 0.  1.
         25    1    1    2    0    0 -0.32214211228E+02  0.11587451335E+03 -0.20743596443E+03  0.27040587565E+03  0.12500000000E+03 0.  0.
          2    1    1    2  502    0 -0.53558387197E+01 -0.13969921729E+03  0.10532851136E+04  0.10625225112E+04  0.00000000000E+00 0. -1.
         -2    1    1    2    0  501  0.37570049947E+02  0.23824703940E+02 -0.60839972980E+03  0.61002406214E+03  0.00000000000E+00 0.  1.
<mgrwt>
<rscale>  0 0.78728595E+02</rscale>
<asrwt>0</asrwt>
<pdfrwt beam="1">  1        1 0.16772322E+00 0.13932478E+03</pdfrwt>
<pdfrwt beam="2">  1       -1 0.13119254E+00 0.44487360E+02</pdfrwt>
<totfact> 0.86306594E+00</totfact>
</mgrwt>
</event>
<event>
 5    1  0.6082106E-002  0.5048878E+02  0.7546771E-02  0.1458917E+00
         -2   -1    0    0    0  501 -0.00000000000E+00  0.00000000000E+00  0.13854891664E+03  0.13854891664E+03  0.00000000000E+00 0.  1.
          2   -1    0    0  502    0  0.00000000000E+00 -0.00000000000E+00 -0.11853320155E+03  0.11853320155E+03  0.00000000000E+00 0. -1.
         25    1    1    2    0    0 -0.67589899563E+02 -0.29255335919E+00  0.22555880316E+02  0.14388275730E+03  0.12500000000E+03 0.  0.
          3    1    1    2  502    0  0.37294071420E+02  0.33318261149E+02 -0.32179550682E+02  0.59468292149E+02  0.00000000000E+00 0. -1.
         -3    1    1    2    0  501  0.30295828144E+02 -0.33025707790E+02  0.29639385452E+02  0.53731068739E+02  0.00000000000E+00 0.  1.
<mgrwt>
<rscale>  0 0.47568261E+02</rscale>
<asrwt>0</asrwt>
<pdfrwt beam="2">  1        2 0.18235877E-01 0.50488783E+02</pdfrwt>
<pdfrwt beam="1">  1       -2 0.21315218E-01 0.44816677E+02</pdfrwt>
<totfact> 0.50841573E+03</totfact>
</mgrwt>
</event>
<event>
 5    1  0.8891499E-003  0.9818340E+02  0.7546771E-02  0.1381906E+00
          2   -1    0    0  502    0  0.00000000000E+00  0.00000000000E+00  0.36503897463E+03  0.36503897463E+03  0.00000000000E+00 0. -1.
          1   -1    0    0  501    0 -0.00000000000E+00 -0.00000000000E+00 -0.26356243233E+04  0.26356243233E+04  0.00000000000E+00 0. -1.
         25    1    1    2    0    0  0.11718349559E+03  0.75912652776E+02 -0.21395106771E+04  0.21477024095E+04  0.12500000000E+03 0.  0.
          2    1    1    2  501    0 -0.33574030174E+02 -0.24686314561E+02 -0.48444727982E+03  0.48623635873E+03  0.00000000000E+00 0. -1.
          1    1    1    2  502    0 -0.83609465418E+02 -0.51226338215E+02  0.35337260823E+03  0.36672452969E+03  0.00000000000E+00 0. -1.
<mgrwt>
<rscale>  0 0.63965505E+02</rscale>
<asrwt>0</asrwt>
<pdfrwt beam="1">  1        2 0.56159843E-01 0.98183399E+02</pdfrwt>
<pdfrwt beam="2">  1        1 0.40548066E+00 0.41672888E+02</pdfrwt>
<totfact> 0.20829642E+01</totfact>
</mgrwt>
</event>
<event>
 5    1  0.8891499E-003  0.9814015E+02  0.7546771E-02  0.1349843E+00
          1   -1    0    0  501    0 -0.00000000000E+00  0.00000000000E+00  0.56343480574E+03  0.56343480574E+03  0.00000000000E+00 0. -1.
          2   -1    0    0  502    0  0.00000000000E+00 -0.00000000000E+00 -0.12786234626E+04  0.12786234626E+04  0.00000000000E+00 0. -1.
         25    1    1    2    0    0  0.65417839275E+02  0.65413226900E+02 -0.16871072484E+02  0.15642255923E+03  0.12500000000E+03 0.  0.
          2    1    1    2  501    0 -0.44690365990E+02  0.31115830359E+02  0.49010406710E+03  0.49312008710E+03  0.00000000000E+00 0. -1.
          1    1    1    2  502    0 -0.20727473285E+02 -0.96529057259E+02 -0.11884216515E+04  0.11925156220E+04  0.00000000000E+00 0. -1.
<mgrwt>
<rscale>  0 0.73104659E+02</rscale>
<asrwt>0</asrwt>
<pdfrwt beam="2">  1        2 0.19671130E+00 0.98140153E+02</pdfrwt>
<pdfrwt beam="1">  1        1 0.86682279E-01 0.54455704E+02</pdfrwt>
<totfact> 0.10659323E+02</totfact>
</mgrwt>
</event>
<event>
 5    1  0.8891499E-003  0.3310355E+03  0.7546771E-02  0.1201268E+00
          2   -1    0    0  502    0  0.00000000000E+00  0.00000000000E+00  0.17535009013E+04  0.17535009013E+04  0.00000000000E+00 0. -1.
          1   -1    0    0  501    0 -0.00000000000E+00 -0.00000000000E+00 -0.29981627033E+03  0.29981627033E+03  0.00000000000E+00 0. -1.
         25    1    1    2    0    0 -0.22451051695E+03  0.31205196946E+03  0.38454975574E+03  0.55792913395E+03  0.12500000000E+03 0.  0.
          2    1    1    2  501    0  0.17906334417E+03 -0.26229963126E+03 -0.93291088152E+02  0.33101058127E+03  0.00000000000E+00 0. -1.
          1    1    1    2  502    0  0.45447172784E+02 -0.49752338204E+02  0.11624259634E+04  0.11643774565E+04  0.00000000000E+00 0. -1.
<mgrwt>
<rscale>  0 0.14935472E+03</rscale>
<asrwt>0</asrwt>
<pdfrwt beam="1">  1        2 0.26976936E+00 0.67385018E+02</pdfrwt>
<pdfrwt beam="2">  1        1 0.46125581E-01 0.33103549E+03</pdfrwt>
<totfact> 0.13653977E+02</totfact>
</mgrwt>
</event>
<event>
 5    1  0.8891499E-003  0.7881745E+02  0.7546771E-02  0.1339717E+00
          1   -1    0    0  501    0 -0.00000000000E+00  0.00000000000E+00  0.13329224687E+04  0.13329224687E+04  0.00000000000E+00 0. -1.
          2   -1    0    0  502    0  0.00000000000E+00 -0.00000000000E+00 -0.42765540651E+03  0.42765540651E+03  0.00000000000E+00 0. -1.
         25    1    1    2    0    0  0.69799591705E+02  0.26285029602E+02 -0.17104876661E+03  0.22460090459E+03  0.12500000000E+03 0.  0.
          2    1    1    2  501    0 -0.56395865201E+02  0.55060852055E+02  0.12975186099E+04  0.12999102793E+04  0.00000000000E+00 0. -1.
          1    1    1    2  502    0 -0.13403726504E+02 -0.81345881657E+02 -0.22120278117E+03  0.23606669131E+03  0.00000000000E+00 0. -1.
<mgrwt>
<rscale>  0 0.76357872E+02</rscale>
<asrwt>0</asrwt>
<pdfrwt beam="2">  1        2 0.65793140E-01 0.73975045E+02</pdfrwt>
<pdfrwt beam="1">  1        1 0.20506499E+00 0.78817454E+02</pdfrwt>
<totfact> 0.10549428E+02</totfact>
</mgrwt>
</event>
<event>
 5    1  0.8891499E-003  0.9865879E+02  0.7546771E-02  0.1315764E+00
          2   -1    0    0  502    0  0.00000000000E+00  0.00000000000E+00  0.93194573543E+03  0.93194573543E+03  0.00000000000E+00 0. -1.
          1   -1    0    0  501    0 -0.00000000000E+00 -0.00000000000E+00 -0.26224198006E+03  0.26224198006E+03  0.00000000000E+00 0. -1.
         25    1    1    2    0    0  0.16079581292E+03 -0.49370237966E+01  0.40354209292E+01  0.20376690673E+03  0.12500000000E+03 0.  0.
          2    1    1    2  501    0 -0.89164085634E+02  0.19076357817E+02 -0.14781023619E+03  0.17367212648E+03  0.00000000000E+00 0. -1.
          3    1    1    2  502    0 -0.71631727289E+02 -0.14139334020E+02  0.81347857063E+03  0.81674868227E+03  0.00000000000E+00 0. -1.
<mgrwt>
<rscale>  0 0.84873202E+02</rscale>
<asrwt>0</asrwt>
<pdfrwt beam="1">  1        2 0.14337627E+00 0.73013869E+02</pdfrwt>
<pdfrwt beam="2">  1        1 0.40344920E-01 0.98658795E+02</pdfrwt>
<totfact> 0.43467215E+02</totfact>
</mgrwt>
</event>
<event>
 5    1  0.8891499E-003  0.9600851E+02  0.7546771E-02  0.1329586E+00
          1   -1    0    0  501    0 -0.00000000000E+00  0.00000000000E+00  0.27319102254E+03  0.27319102254E+03  0.00000000000E+00 0. -1.
          2   -1    0    0  502    0  0.00000000000E+00 -0.00000000000E+00 -0.24134073276E+04  0.24134073276E+04  0.00000000000E+00 0. -1.
         25    1    1    2    0    0  0.51183122749E+02  0.45143989250E+02 -0.20691936600E+03  0.25119378146E+03  0.12500000000E+03 0.  0.
          2    1    1    2  501    0 -0.10252934589E+02 -0.97361796278E+02  0.24098430376E+03  0.26011127753E+03  0.00000000000E+00 0. -1.
          1    1    1    2  502    0 -0.40930188160E+02  0.52217807028E+02 -0.21742812428E+04  0.21752932911E+04  0.00000000000E+00 0. -1.
<mgrwt>
<rscale>  0 0.79811755E+02</rscale>
<asrwt>0</asrwt>
<pdfrwt beam="2">  1        2 0.37129344E+00 0.66347416E+02</pdfrwt>
<pdfrwt beam="1">  1        1 0.42029387E-01 0.96008506E+02</pdfrwt>
<totfact> 0.72019567E+01</totfact>
</mgrwt>
</event>
<event>
 5    1  0.8891499E-003  0.1442393E+03  0.7546771E-02  0.1356739E+00
          1   -1    0    0  501    0 -0.00000000000E+00  0.00000000000E+00  0.19827379370E+03  0.19827379370E+03  0.00000000000E+00 0. -1.
          2   -1    0    0  502    0  0.00000000000E+00 -0.00000000000E+00 -0.32497942600E+04  0.32497942600E+04  0.00000000000E+00 0. -1.
         25    1    1    2    0    0  0.12096346780E+03  0.59767932139E+02 -0.13647380255E+04  0.13770763394E+04  0.12500000000E+03 0.  0.
          2    1    1    2  501    0  0.24751652026E+02 -0.24667737862E+02  0.18749863852E+03  0.19072724246E+03  0.00000000000E+00 0. -1.
          1    1    1    2  502    0 -0.14571511982E+03 -0.35100194276E+02 -0.18742810793E+04  0.18802644718E+04  0.00000000000E+00 0. -1.
<mgrwt>
<rscale>  0 0.70995907E+02</rscale>
<asrwt>0</asrwt>
<pdfrwt beam="2">  1        2 0.49996835E+00 0.14423930E+03</pdfrwt>
<pdfrwt beam="1">  1        1 0.30503661E-01 0.34944836E+02</pdfrwt>
<totfact> 0.31722331E+01</totfact>
</mgrwt>
</event>
<event>
 5    1  0.8891499E-003  0.1107124E+03  0.7546771E-02  0.1358603E+00
          1   -1    0    0  501    0 -0.00000000000E+00  0.00000000000E+00  0.45085210408E+03  0.45085210408E+03  0.00000000000E+00 0. -1.
          2   -1    0    0  502    0  0.00000000000E+00 -0.00000000000E+00 -0.48768868070E+03  0.48768868070E+03  0.00000000000E+00 0. -1.
         25    1    1    2    0    0  0.79040589058E+02  0.45005615280E+02 -0.83325472923E+02  0.17561621384E+03  0.12500000000E+03 0.  0.
          2    1    1    2  501    0 -0.68924257247E+02 -0.88666133680E+02  0.39545500872E+03  0.41109232590E+03  0.00000000000E+00 0. -1.
          1    1    1    2  502    0 -0.10116331811E+02  0.43660518400E+02 -0.34896611241E+03  0.35183224504E+03  0.00000000000E+00 0. -1.
<mgrwt>
<rscale>  0 0.70440185E+02</rscale>
<asrwt>0</asrwt>
<pdfrwt beam="2">  1        2 0.75029028E-01 0.44817196E+02</pdfrwt>
<pdfrwt beam="1">  1        1 0.69361862E-01 0.11071241E+03</pdfrwt>
<totfact> 0.47130011E+02</totfact>
</mgrwt>
</event>
<event>
 5    1  0.8891499E-003  0.1230858E+03  0.7546771E-02  0.1279937E+00
         -1   -1    0    0    0  502 -0.00000000000E+00  0.00000000000E+00  0.21961575364E+03  0.21961575364E+03  0.00000000000E+00 0.  1.
         -2   -1    0    0    0  501  0.00000000000E+00 -0.00000000000E+00 -0.35027867429E+03  0.35027867429E+03  0.00000000000E+00 0.  1.
         25    1    1    2    0    0  0.64381163915E+02  0.17522624147E+03  0.12895322440E+02  0.22503435139E+03  0.12500000000E+03 0.  0.
         -2    1    1    2    0  502 -0.38711671011E+02 -0.97851417845E+02  0.63103150011E+02  0.12270085977E+03  0.00000000000E+00 0.  1.
         -1    1    1    2    0  501 -0.25669492904E+02 -0.77374823622E+02 -0.20666139310E+03  0.22215921677E+03  0.00000000000E+00 0.  1.
<mgrwt>
<rscale>  0 0.10017068E+03</rscale>
<asrwt>0</asrwt>
<pdfrwt beam="2">  1       -2 0.53889026E-01 0.81521692E+02</pdfrwt>
<pdfrwt beam="1">  1       -1 0.33787039E-01 0.12308583E+03</pdfrwt>
<totfact> 0.20422124E+02</totfact>
</mgrwt>
</event>
<event>
 5    1  0.8891499E-003  0.4185870E+02  0.7546771E-02  0.1581008E+00
          1   -1    0    0  501    0 -0.00000000000E+00  0.00000000000E+00  0.77637053047E+03  0.77637053047E+03  0.00000000000E+00 0. -1.
          2   -1    0    0  502    0  0.00000000000E+00 -0.00000000000E+00 -0.79066651725E+03  0.79066651725E+03  0.00000000000E+00 0. -1.
         25    1    1    2    0    0 -0.10245087708E+02  0.21073099619E+02 -0.36654850631E+03  0.38798433580E+03  0.12500000000E+03 0.  0.
          2    1    1    2  501    0  0.33827727375E+02 -0.24708862676E+02  0.76473457501E+03  0.76588106991E+03  0.00000000000E+00 0. -1.
          1    1    1    2  502    0 -0.23582639667E+02  0.36357630570E+01 -0.41248205548E+03  0.41317164201E+03  0.00000000000E+00 0. -1.
<mgrwt>
<rscale>  0 0.31603819E+02</rscale>
<asrwt>0</asrwt>
<pdfrwt beam="2">  1        2 0.12164100E+00 0.23861259E+02</pdfrwt>
<pdfrwt beam="1">  1        1 0.11944162E+00 0.41858704E+02</pdfrwt>
<totfact> 0.14258655E+02</totfact>
</mgrwt>
</event>
<event>
 5    1  0.8891499E-003  0.1000713E+03  0.7546771E-02  0.1317844E+00
         -2   -1    0    0    0  501 -0.00000000000E+00  0.00000000000E+00  0.19308861986E+03  0.19308861986E+03  0.00000000000E+00 0.  1.
          2   -1    0    0  502    0  0.00000000000E+00 -0.00000000000E+00 -0.40192609441E+04  0.40192609441E+04  0.00000000000E+00 0. -1.
         25    1    1    2    0    0  0.43676637098E+02 -0.25978965894E+02 -0.27929374472E+01  0.13496427600E+03  0.12500000000E+03 0.  0.
          1    1    1    2  502    0  0.51726102579E+02 -0.48125495575E+02 -0.39212659509E+04  0.39219023842E+04  0.00000000000E+00 0. -1.
         -1    1    1    2    0  501 -0.95402739678E+02  0.74104461469E+02  0.97886564106E+02  0.15548290382E+03  0.00000000000E+00 0.  1.
<mgrwt>
<rscale>  0 0.84084474E+02</rscale>
<asrwt>0</asrwt>
<pdfrwt beam="2">  1        2 0.61834781E+00 0.70651631E+02</pdfrwt>
<pdfrwt beam="1">  1       -2 0.29705943E-01 0.10007127E+03</pdfrwt>
<totfact> 0.59341187E+00</totfact>
</mgrwt>
</event>
<event>
 5    1  0.8891499E-003  0.1151234E+03  0.7546771E-02  0.1416264E+00
          1   -1    0    0  501    0 -0.00000000000E+00  0.00000000000E+00  0.16714163101E+04  0.16714163101E+04  0.00000000000E+00 0. -1.
          2   -1    0    0  502    0  0.00000000000E+00 -0.00000000000E+00 -0.10583506810E+04  0.10583506810E+04  0.00000000000E+00 0. -1.
         25    1    1    2    0    0 -0.96989194215E+02 -0.10234860083E+03  0.13711801447E+03  0.23304181981E+03  0.12500000000E+03 0.  0.
          2    1    1    2  501    0  0.78018427414E+02  0.83045519645E+02  0.14839706936E+04  0.14883388233E+04  0.00000000000E+00 0. -1.
          1    1    1    2  502    0  0.18970766801E+02  0.19303081187E+02 -0.10080230790E+04  0.10083863479E+04  0.00000000000E+00 0. -1.
<mgrwt>
<rscale>  0 0.55819182E+02</rscale>
<asrwt>0</asrwt>
<pdfrwt beam="2">  1        2 0.16282318E+00 0.27064718E+02</pdfrwt>
<pdfrwt beam="1">  1        1 0.25714097E+00 0.11512335E+03</pdfrwt>
<totfact> 0.22760677E+01</totfact>
</mgrwt>
</event>
<event>
 5    1  0.8891499E-003  0.9114271E+02  0.7546771E-02  0.1437776E+00
          1   -1    0    0  501    0 -0.00000000000E+00  0.00000000000E+00  0.68348942917E+03  0.68348942917E+03  0.00000000000E+00 0. -1.
          2   -1    0    0  502    0  0.00000000000E+00 -0.00000000000E+00 -0.28750994008E+03  0.28750994008E+03  0.00000000000E+00 0. -1.
         25    1    1    2    0    0  0.20751424234E+02  0.11483414663E+03  0.59190208587E+02  0.18095851357E+03  0.12500000000E+03 0.  0.
          2    1    1    2  501    0 -0.67319747050E+01 -0.89423763721E+02  0.55889670443E+03  0.56604545332E+03  0.00000000000E+00 0. -1.
          1    1    1    2  502    0 -0.14019449529E+02 -0.25410382905E+02 -0.22210742392E+03  0.22399540237E+03  0.00000000000E+00 0. -1.
<mgrwt>
<rscale>  0 0.51430290E+02</rscale>
<asrwt>0</asrwt>
<pdfrwt beam="2">  1        2 0.44232299E-01 0.29021243E+02</pdfrwt>
<pdfrwt beam="1">  1        1 0.10515222E+00 0.91142710E+02</pdfrwt>
<totfact> 0.46566848E+02</totfact>
</mgrwt>
</event>
<event>
 5    1  0.8891499E-003  0.8219983E+02  0.7546771E-02  0.1452786E+00
          1   -1    0    0  501    0 -0.00000000000E+00  0.00000000000E+00  0.21476542198E+04  0.21476542198E+04  0.00000000000E+00 0. -1.
          2   -1    0    0  502    0  0.00000000000E+00 -0.00000000000E+00 -0.64566375289E+02  0.64566375289E+02  0.00000000000E+00 0. -1.
         25    1    1    2    0    0  0.55354681406E+02  0.24724576545E+02  0.72242005481E+03  0.73565697239E+03  0.12500000000E+03 0.  0.
          2    1    1    2  501    0  0.96729339925E+01  0.27114806941E+02  0.13885527255E+04  0.13888511259E+04  0.00000000000E+00 0. -1.
          1    1    1    2  502    0 -0.65027615398E+02 -0.51839383486E+02 -0.27884935824E+02  0.87712496775E+02  0.00000000000E+00 0. -1.
<mgrwt>
<rscale>  0 0.48645769E+02</rscale>
<asrwt>0</asrwt>
<pdfrwt beam="2">  1        2 0.99332902E-02 0.82199832E+02</pdfrwt>
<pdfrwt beam="1">  1        1 0.33040829E+00 0.28788512E+02</pdfrwt>
<totfact> 0.29921740E+02</totfact>
</mgrwt>
</event>
<event>
 5    1  0.8891499E-003  0.1358253E+03  0.7546771E-02  0.1248498E+00
          2   -1    0    0  502    0  0.00000000000E+00  0.00000000000E+00  0.81470866624E+03  0.81470866624E+03  0.00000000000E+00 0. -1.
          1   -1    0    0  501    0 -0.00000000000E+00 -0.00000000000E+00 -0.42139969477E+03  0.42139969477E+03  0.00000000000E+00 0. -1.
         25    1    1    2    0    0 -0.95249913653E+02  0.20150145361E+03 -0.99756527456E+02  0.27432051806E+03  0.12500000000E+03 0.  0.
          2    1    1    2  501    0  0.90111409312E+01 -0.10000796817E+03 -0.21712358629E+03  0.23921840665E+03  0.00000000000E+00 0. -1.
          1    1    1    2  502    0  0.86238772722E+02 -0.10149348544E+03  0.71018908522E+03  0.72256943630E+03  0.00000000000E+00 0. -1.
<mgrwt>
<rscale>  0 0.11678461E+03</rscale>
<asrwt>0</asrwt>
<pdfrwt beam="1">  1        2 0.12533979E+00 0.13582534E+03</pdfrwt>
<pdfrwt beam="2">  1        1 0.64830722E-01 0.10041312E+03</pdfrwt>
<totfact> 0.27985694E+02</totfact>
</mgrwt>
</event>
<event>
 5    1  0.8891499E-003  0.7068741E+02  0.7546771E-02  0.1459994E+00
          1   -1    0    0  501    0 -0.00000000000E+00  0.00000000000E+00  0.33248151300E+02  0.33248151300E+02  0.00000000000E+00 0. -1.
          2   -1    0    0  502    0  0.00000000000E+00 -0.00000000000E+00 -0.95416918643E+03  0.95416918643E+03  0.00000000000E+00 0. -1.
         25    1    1    2    0    0 -0.36990985404E+02 -0.82933725906E+02 -0.59699041413E+03  0.61665946069E+03  0.12500000000E+03 0.  0.
          2    1    1    2  501    0 -0.26774423451E+01  0.31647914190E+02  0.78374600085E+01  0.32713681381E+02  0.00000000000E+00 0. -1.
          1    1    1    2  502    0  0.39668427750E+02  0.51285811716E+02 -0.33176808101E+03  0.33804419566E+03  0.00000000000E+00 0. -1.
<mgrwt>
<rscale>  0 0.47382494E+02</rscale>
<asrwt>0</asrwt>
<pdfrwt beam="2">  1        2 0.14679526E+00 0.70687412E+02</pdfrwt>
<pdfrwt beam="1">  1        1 0.51151002E-02 0.31760969E+02</pdfrwt>
<totfact> 0.53295601E+03</totfact>
</mgrwt>
</event>
<event>
 5    1  0.8891499E-003  0.6364928E+02  0.7546771E-02  0.1469263E+00
         -2   -1    0    0    0  501 -0.00000000000E+00  0.00000000000E+00  0.96283790421E+01  0.96283790421E+01  0.00000000000E+00 0. -1.
          2   -1    0    0  502    0  0.00000000000E+00 -0.00000000000E+00 -0.15088394270E+04  0.15088394270E+04  0.00000000000E+00 0.  1.
         25    1    1    2    0    0 -0.41398561053E+02  0.38336001385E+02 -0.84356902106E+03  0.85464447763E+03  0.12500000000E+03 0.  0.
          1    1    1    2  502    0  0.67615329985E+02 -0.18309514695E+02 -0.40402803730E+03  0.41005575974E+03  0.00000000000E+00 0. -1.
         -1    1    1    2    0  501 -0.26216768933E+02 -0.20026486690E+02 -0.25161398964E+03  0.25376756870E+03  0.00000000000E+00 0.  1.
<mgrwt>
<rscale>  0 0.45823872E+02</rscale>
<asrwt>0</asrwt>
<pdfrwt beam="2">  1        2 0.23212924E+00 0.63649276E+02</pdfrwt>
<pdfrwt beam="1">  1       -2 0.14812884E-02 0.32990592E+02</pdfrwt>
<totfact> 0.13344874E+04</totfact>
</mgrwt>
</event>
<event>
 5    1  0.8891499E-003  0.6977244E+02  0.7546771E-02  0.1416766E+00
          2   -1    0    0  502    0  0.00000000000E+00  0.00000000000E+00  0.15907516700E+04  0.15907516700E+04  0.00000000000E+00 0. -1.
          1   -1    0    0  501    0 -0.00000000000E+00 -0.00000000000E+00 -0.15428199893E+03  0.15428199893E+03  0.00000000000E+00 0. -1.
         25    1    1    2    0    0 -0.38775088462E+02 -0.33074803323E+02  0.53778559881E+03  0.55446893546E+03  0.12500000000E+03 0.  0.
          2    1    1    2  501    0  0.70221820259E+02  0.16122697605E+01 -0.13698357440E+03  0.15394220705E+03  0.00000000000E+00 0. -1.
          1    1    1    2  502    0 -0.31446731797E+02  0.31462533563E+02  0.10356676467E+04  0.10366225264E+04  0.00000000000E+00 0. -1.
<mgrwt>
<rscale>  0 0.55711106E+02</rscale>
<asrwt>0</asrwt>
<pdfrwt beam="1">  1        2 0.24473101E+00 0.44483570E+02</pdfrwt>
<pdfrwt beam="2">  1        1 0.23735693E-01 0.69772443E+02</pdfrwt>
<totfact> 0.38418809E+02</totfact>
</mgrwt>
</event>
<event>
 5    1  0.8891499E-003  0.8897714E+02  0.7546771E-02  0.1433976E+00
          1   -1    0    0  501    0 -0.00000000000E+00  0.00000000000E+00  0.10543466964E+03  0.10543466964E+03  0.00000000000E+00 0. -1.
          2   -1    0    0  502    0  0.00000000000E+00 -0.00000000000E+00 -0.85918297077E+03  0.85918297077E+03  0.00000000000E+00 0. -1.
         25    1    1    2    0    0  0.54727443569E+02  0.70643676201E+02 -0.29416357184E+03  0.33187773210E+03  0.12500000000E+03 0.  0.
          2    1    1    2  501    0  0.20916414257E+02 -0.22320135812E+02  0.80047613877E+02  0.85693088026E+02  0.00000000000E+00 0. -1.
          1    1    1    2  502    0 -0.75643857826E+02 -0.48323540390E+02 -0.53963234317E+03  0.54704682028E+03  0.00000000000E+00 0. -1.
<mgrwt>
<rscale>  0 0.52170095E+02</rscale>
<asrwt>0</asrwt>
<pdfrwt beam="2">  1        2 0.13218200E+00 0.88977144E+02</pdfrwt>
<pdfrwt beam="1">  1        1 0.16220718E-01 0.30588966E+02</pdfrwt>
<totfact> 0.13967304E+03</totfact>
</mgrwt>
</event>
<event>
 5    1  0.8891499E-003  0.1097943E+03  0.7546771E-02  0.1260989E+00
          2   -1    0    0  502    0  0.00000000000E+00  0.00000000000E+00  0.17945687447E+04  0.17945687447E+04  0.00000000000E+00 0. -1.
          1   -1    0    0  501    0 -0.00000000000E+00 -0.00000000000E+00 -0.10444715779E+04  0.10444715779E+04  0.00000000000E+00 0. -1.
         25    1    1    2    0    0  0.54376295142E+02 -0.77098738268E+02  0.40250242527E+03  0.43189605146E+03  0.12500000000E+03 0.  0.
          2    1    1    2  501    0 -0.10501464622E+03 -0.31902987416E+02 -0.10242153372E+04  0.10300790909E+04  0.00000000000E+00 0. -1.
          1    1    1    2  502    0  0.50638351082E+02  0.10900172568E+03  0.13718100787E+04  0.13770651803E+04  0.00000000000E+00 0. -1.
<mgrwt>
<rscale>  0 0.10977402E+03</rscale>
<asrwt>0</asrwt>
<pdfrwt beam="1">  1        2 0.27608750E+00 0.10979434E+03</pdfrwt>
<pdfrwt beam="2">  1        1 0.16068794E+00 0.10975371E+03</pdfrwt>
<totfact> 0.22440185E+01</totfact>
</mgrwt>
</event>
<event>
 5    1  0.8891499E-003  0.9136308E+02  0.7546771E-02  0.1356031E+00
         -1   -1    0    0    0  501 -0.00000000000E+00  0.00000000000E+00  0.54433850084E+03  0.54433850084E+03  0.00000000000E+00 0.  1.
          1   -1    0    0  502    0  0.00000000000E+00 -0.00000000000E+00 -0.10152122467E+04  0.10152122467E+04  0.00000000000E+00 0. -1.
         25    1    1    2    0    0  0.88291682828E+02 -0.34533259267E+02 -0.26680235926E+03  0.30951004210E+03  0.12500000000E+03 0.  0.
          2    1    1    2  502    0  0.82207842266E+00  0.55493803847E+02 -0.72197669962E+03  0.72410675516E+03  0.00000000000E+00 0. -1.
         -2    1    1    2    0  501 -0.89113761251E+02 -0.20960544580E+02  0.51790531299E+03  0.52593395031E+03  0.00000000000E+00 0.  1.
<mgrwt>
<rscale>  0 0.71208433E+02</rscale>
<asrwt>0</asrwt>
<pdfrwt beam="2">  1        1 0.15618650E+00 0.55499893E+02</pdfrwt>
<pdfrwt beam="1">  1       -1 0.83744385E-01 0.91363077E+02</pdfrwt>
<totfact> 0.26954143E+01</totfact>
</mgrwt>
</event>
<event>
 5    1  0.8891499E-003  0.1171553E+03  0.7546771E-02  0.1296121E+00
          1   -1    0    0  501    0 -0.00000000000E+00  0.00000000000E+00  0.18242182196E+04  0.18242182196E+04  0.00000000000E+00 0. -1.
          2   -1    0    0  502    0  0.00000000000E+00 -0.00000000000E+00 -0.39348628374E+03  0.39348628374E+03  0.00000000000E+00 0. -1.
         25    1    1    2    0    0  0.77187683534E+02 -0.43394715446E+02 -0.14400964504E+03  0.21024941780E+03  0.12500000000E+03 0.  0.
          2    1    1    2  501    0  0.30442733892E+01 -0.73505434246E+02  0.17670216782E+04  0.17685524951E+04  0.00000000000E+00 0. -1.
          1    1    1    2  502    0 -0.80231956923E+02  0.11690014969E+03 -0.19228009732E+03  0.23890259048E+03  0.00000000000E+00 0. -1.
<mgrwt>
<rscale>  0 0.92838226E+02</rscale>
<asrwt>0</asrwt>
<pdfrwt beam="2">  1        2 0.60536352E-01 0.11715534E+03</pdfrwt>
<pdfrwt beam="1">  1        1 0.28064895E+00 0.73568447E+02</pdfrwt>
<totfact> 0.56667781E+01</totfact>
</mgrwt>
</event>
<event>
 5    1  0.8891499E-003  0.7770359E+02  0.7546771E-02  0.1399107E+00
          2   -1    0    0  502    0  0.00000000000E+00  0.00000000000E+00  0.18714321837E+03  0.18714321837E+03  0.00000000000E+00 0. -1.
          1   -1    0    0  501    0 -0.00000000000E+00 -0.00000000000E+00 -0.10754852606E+04  0.10754852606E+04  0.00000000000E+00 0. -1.
         25    1    1    2    0    0 -0.63509327426E+01  0.11383542165E+03 -0.45214050367E+02  0.17512323638E+03  0.12500000000E+03 0.  0.
          2    1    1    2  501    0 -0.17821387656E+02 -0.74859101070E+02 -0.95941744413E+03  0.96249847739E+03  0.00000000000E+00 0. -1.
          1    1    1    2  502    0  0.24172320399E+02 -0.38976320578E+02  0.11628945227E+03  0.12500676521E+03  0.00000000000E+00 0. -1.
<mgrwt>
<rscale>  0 0.59697182E+02</rscale>
<asrwt>0</asrwt>
<pdfrwt beam="1">  1        2 0.28791264E-01 0.45863435E+02</pdfrwt>
<pdfrwt beam="2">  1        1 0.16545927E+00 0.77703590E+02</pdfrwt>
<totfact> 0.36723027E+02</totfact>
</mgrwt>
</event>
<event>
 5    1  0.8891499E-003  0.7798735E+02  0.7546771E-02  0.1345037E+00
          2   -1    0    0  502    0  0.00000000000E+00  0.00000000000E+00  0.19703741224E+04  0.19703741224E+04  0.00000000000E+00 0. -1.
          1   -1    0    0  501    0 -0.00000000000E+00 -0.00000000000E+00 -0.83430392387E+03  0.83430392387E+03  0.00000000000E+00 0. -1.
         25    1    1    2    0    0  0.67422156448E+02 -0.25474874925E+02  0.12531168158E+04  0.12613966349E+04  0.12500000000E+03 0.  0.
          2    1    1    2  501    0  0.58486525625E+00  0.77985152895E+02 -0.82573198028E+03  0.82940661282E+03  0.00000000000E+00 0. -1.
          1    1    1    2  502    0 -0.68007021704E+02 -0.52510277970E+02  0.70868536305E+03  0.71387479861E+03  0.00000000000E+00 0. -1.
<mgrwt>
<rscale>  0 0.74624806E+02</rscale>
<asrwt>0</asrwt>
<pdfrwt beam="1">  1        2 0.30313448E+00 0.71407247E+02</pdfrwt>
<pdfrwt beam="2">  1        1 0.12835445E+00 0.77987346E+02</pdfrwt>
<totfact> 0.28018123E+01</totfact>
</mgrwt>
</event>
<event>
 5    1  0.8891499E-003  0.1236480E+03  0.7546771E-02  0.1390762E+00
          1   -1    0    0  501    0 -0.00000000000E+00  0.00000000000E+00  0.15500793323E+04  0.15500793323E+04  0.00000000000E+00 0. -1.
          2   -1    0    0  502    0  0.00000000000E+00 -0.00000000000E+00 -0.36444371658E+03  0.36444371658E+03  0.00000000000E+00 0. -1.
         25    1    1    2    0    0 -0.57187712059E+01 -0.15014456758E+03  0.35219635905E+03  0.40279445235E+03  0.12500000000E+03 0.  0.
          2    1    1    2  501    0  0.11443800343E+02  0.11987562930E+03  0.11687843782E+04  0.11749715102E+04  0.00000000000E+00 0. -1.
          1    1    1    2  502    0 -0.57250291370E+01  0.30268938284E+02 -0.33534512159E+03  0.33675708627E+03  0.00000000000E+00 0. -1.
<mgrwt>
<rscale>  0 0.61717490E+02</rscale>
<asrwt>0</asrwt>
<pdfrwt beam="2">  1        2 0.56068265E-01 0.30805593E+02</pdfrwt>
<pdfrwt beam="1">  1        1 0.23847374E+00 0.12364796E+03</pdfrwt>
<totfact> 0.86344831E+01</totfact>
</mgrwt>
</event>
<event>
 5    1  0.8891499E-003  0.9520866E+02  0.7546771E-02  0.1477734E+00
          2   -1    0    0  502    0  0.00000000000E+00  0.00000000000E+00  0.11639568004E+02  0.11639568004E+02  0.00000000000E+00 0. -1.
          1   -1    0    0  501    0 -0.00000000000E+00 -0.00000000000E+00 -0.28201463767E+04  0.28201463767E+04  0.00000000000E+00 0. -1.
         25    1    1    2    0    0  0.67770659904E+00 -0.85753180190E+02 -0.10906639201E+04  0.11011479709E+04  0.12500000000E+03 0.  0.
          2    1    1    2  501    0 -0.18566558483E+02  0.96292559263E+02 -0.17012110116E+04  0.17040351757E+04  0.00000000000E+00 0. -1.
          1    1    1    2  502    0  0.17888851884E+02 -0.10539379073E+02 -0.16631876925E+02  0.26602798030E+02  0.00000000000E+00 0. -1.
<mgrwt>
<rscale>  0 0.44461089E+02</rscale>
<asrwt>0</asrwt>
<pdfrwt beam="1">  1        2 0.17907011E-02 0.20762696E+02</pdfrwt>
<pdfrwt beam="2">  1        1 0.43386907E+00 0.95208661E+02</pdfrwt>
<totfact> 0.67762686E+02</totfact>
</mgrwt>
</event>
<event>
 5    1  0.8891499E-003  0.7454389E+02  0.7546771E-02  0.1469785E+00
          2   -1    0    0  502    0  0.00000000000E+00  0.00000000000E+00  0.85265462190E+03  0.85265462190E+03  0.00000000000E+00 0. -1.
          1   -1    0    0  501    0 -0.00000000000E+00 -0.00000000000E+00 -0.93089050382E+02  0.93089050382E+02  0.00000000000E+00 0. -1.
         25    1    1    2    0    0 -0.63758290179E+02 -0.34288683324E+02  0.20564467557E+03  0.25130771171E+03  0.12500000000E+03 0.  0.
          2    1    1    2  501    0 -0.10994831493E+02  0.25820252520E+02 -0.65083754632E+02  0.70876419751E+02  0.00000000000E+00 0. -1.
          3    1    1    2  502    0  0.74753121672E+02  0.84684308042E+01  0.61900465057E+03  0.62355954082E+03  0.00000000000E+00 0. -1.
<mgrwt>
<rscale>  0 0.45738147E+02</rscale>
<asrwt>0</asrwt>
<pdfrwt beam="1">  1        2 0.13117763E+00 0.74543893E+02</pdfrwt>
<pdfrwt beam="2">  1        1 0.14321393E-01 0.28063709E+02</pdfrwt>
<totfact> 0.16450467E+03</totfact>
</mgrwt>
</event>
<event>
 5    1  0.8891499E-003  0.1333595E+03  0.7546771E-02  0.1332676E+00
          1   -1    0    0  501    0 -0.00000000000E+00  0.00000000000E+00  0.43133645796E+04  0.43133645796E+04  0.00000000000E+00 0. -1.
          2   -1    0    0  502    0  0.00000000000E+00 -0.00000000000E+00 -0.58636183144E+03  0.58636183144E+03  0.00000000000E+00 0. -1.
         25    1    1    2    0    0  0.30725446500E+02 -0.83681612030E+02 -0.26445211926E+03  0.30578847041E+03  0.12500000000E+03 0.  0.
          2    1    1    2  501    0 -0.61518516334E+02  0.11850697418E+03  0.42898580357E+04  0.42919355071E+04  0.00000000000E+00 0. -1.
          1    1    1    2  502    0  0.30793069834E+02 -0.34825362154E+02 -0.29840316829E+03  0.30200243350E+03  0.00000000000E+00 0. -1.
<mgrwt>
<rscale>  0 0.78736582E+02</rscale>
<asrwt>0</asrwt>
<pdfrwt beam="2">  1        2 0.90209515E-01 0.46486762E+02</pdfrwt>
<pdfrwt beam="1">  1        1 0.66359453E+00 0.13335946E+03</pdfrwt>
<totfact> 0.57398648E-01</totfact>
</mgrwt>
</event>
<event>
 5    1  0.8891499E-003  0.6904714E+02  0.7546771E-02  0.1480469E+00
          1   -1    0    0  502    0  0.00000000000E+00  0.00000000000E+00  0.47569131397E+02  0.47569131397E+02  0.00000000000E+00 0. -1.
         -1   -1    0    0    0  501 -0.00000000000E+00 -0.00000000000E+00 -0.47282275357E+03  0.47282275357E+03  0.00000000000E+00 0.  1.
         25    1    1    2    0    0  0.42055647756E+02  0.38608309618E+02 -0.37959873447E+03  0.40370716899E+03  0.12500000000E+03 0.  0.
          2    1    1    2  502    0 -0.30056919327E+02 -0.63996866203E+02 -0.10167654351E+02  0.71431075018E+02  0.00000000000E+00 0. -1.
         -2    1    1    2    0  501 -0.11998728428E+02  0.25388556585E+02 -0.35487233349E+02  0.45253640960E+02  0.00000000000E+00 0.  1.
<mgrwt>
<rscale>  0 0.44033165E+02</rscale>
<asrwt>0</asrwt>
<pdfrwt beam="1">  1        1 0.73183277E-02 0.69047135E+02</pdfrwt>
<pdfrwt beam="2">  1       -1 0.72741964E-01 0.28081102E+02</pdfrwt>
<totfact> 0.18676524E+03</totfact>
</mgrwt>
</event>
<event>
 5    1  0.8891499E-003  0.5901497E+02  0.7546771E-02  0.1507316E+00
          1   -1    0    0  502    0  0.00000000000E+00  0.00000000000E+00  0.99759790482E+03  0.99759790482E+03  0.00000000000E+00 0. -1.
         -1   -1    0    0    0  501 -0.00000000000E+00 -0.00000000000E+00 -0.61966027572E+03  0.61966027572E+03  0.00000000000E+00 0.  1.
         25    1    1    2    0    0  0.25198015102E+02 -0.59175270830E+02 -0.46825378480E+03  0.48890005075E+03  0.12500000000E+03 0.  0.
          2    1    1    2  502    0  0.20786798942E+01  0.58979740461E+02  0.98506485468E+03  0.98683113987E+03  0.00000000000E+00 0. -1.
         -2    1    1    2    0  501 -0.27276694997E+02  0.19553036831E+00 -0.13887344078E+03  0.14152698992E+03  0.00000000000E+00 0.  1.
<mgrwt>
<rscale>  0 0.40121998E+02</rscale>
<asrwt>0</asrwt>
<pdfrwt beam="1">  1        1 0.15347660E+00 0.59014971E+02</pdfrwt>
<pdfrwt beam="2">  1       -1 0.95332350E-01 0.27277396E+02</pdfrwt>
<totfact> 0.22041916E+01</totfact>
</mgrwt>
</event>
<event>
 5    1  0.8891499E-003  0.6360611E+02  0.7546771E-02  0.1401372E+00
          2   -1    0    0  502    0  0.00000000000E+00  0.00000000000E+00  0.80523593659E+03  0.80523593659E+03  0.00000000000E+00 0. -1.
          1   -1    0    0  501    0 -0.00000000000E+00 -0.00000000000E+00 -0.92288283789E+03  0.92288283789E+03  0.00000000000E+00 0. -1.
         25    1    1    2    0    0 -0.21935215390E+02 -0.11502476993E+03  0.30987329039E+03  0.35405975127E+03  0.12500000000E+03 0.  0.
          2    1    1    2  501    0  0.29779858699E+01  0.63359836414E+02 -0.89806736084E+03  0.90030457173E+03  0.00000000000E+00 0. -1.
          1    1    1    2  502    0  0.18957229520E+02  0.51664933521E+02  0.47054716914E+03  0.47375445148E+03  0.00000000000E+00 0. -1.
<mgrwt>
<rscale>  0 0.59164528E+02</rscale>
<asrwt>0</asrwt>
<pdfrwt beam="1">  1        2 0.12388245E+00 0.55033098E+02</pdfrwt>
<pdfrwt beam="2">  1        1 0.14198198E+00 0.63606111E+02</pdfrwt>
<totfact> 0.10224752E+02</totfact>
</mgrwt>
</event>
<event>
 5    1  0.8891499E-003  0.8493498E+02  0.7546771E-02  0.1396302E+00
          2   -1    0    0  502    0  0.00000000000E+00  0.00000000000E+00  0.77027152319E+03  0.77027152319E+03  0.00000000000E+00 0. -1.
          1   -1    0    0  501    0 -0.00000000000E+00 -0.00000000000E+00 -0.17114675737E+03  0.17114675737E+03  0.00000000000E+00 0. -1.
         25    1    1    2    0    0  0.11715299077E+03  0.98512229103E+01  0.20809700400E+03  0.26972436470E+03  0.12500000000E+03 0.  0.
          2    1    1    2  501    0 -0.36308094175E+02 -0.22858229466E+02 -0.13380315466E+03  0.14051356003E+03  0.00000000000E+00 0. -1.
          1    1    1    2  502    0 -0.80844896592E+02  0.13007006555E+02  0.52483091648E+03  0.53118035583E+03  0.00000000000E+00 0. -1.
<mgrwt>
<rscale>  0 0.60366160E+02</rscale>
<asrwt>0</asrwt>
<pdfrwt beam="1">  1        2 0.11850331E+00 0.84934981E+02</pdfrwt>
<pdfrwt beam="2">  1        1 0.26330271E-01 0.42904270E+02</pdfrwt>
<totfact> 0.90380726E+02</totfact>
</mgrwt>
</event>
<event>
 5    1  0.8891499E-003  0.4023996E+02  0.7546771E-02  0.1558068E+00
         -2   -1    0    0    0  501 -0.00000000000E+00  0.00000000000E+00  0.43666149051E+02  0.43666149051E+02  0.00000000000E+00 0.  1.
          2   -1    0    0  502    0  0.00000000000E+00 -0.00000000000E+00 -0.42975250803E+03  0.42975250803E+03  0.00000000000E+00 0. -1.
         25    1    1    2    0    0  0.13195962891E+02 -0.77900501300E+01 -0.35138098775E+03  0.37326721912E+03  0.12500000000E+03 0.  0.
          1    1    1    2  502    0 -0.30660517149E+02  0.44042548341E+02 -0.18346943445E+02  0.56713523166E+02  0.00000000000E+00 0. -1.
         -1    1    1    2    0  501  0.17464554257E+02 -0.36252498211E+02 -0.16358427780E+02  0.43437914790E+02  0.00000000000E+00 0.  1.
<mgrwt>
<rscale>  0 0.33956447E+02</rscale>
<asrwt>0</asrwt>
<pdfrwt beam="2">  1        2 0.66115768E-01 0.28654112E+02</pdfrwt>
<pdfrwt beam="1">  1       -2 0.67178694E-02 0.40239959E+02</pdfrwt>
<totfact> 0.78829826E+03</totfact>
</mgrwt>
</event>
<event>
 5    1  0.8891499E-003  0.1189263E+03  0.7546771E-02  0.1323955E+00
          1   -1    0    0  501    0 -0.00000000000E+00  0.00000000000E+00  0.94791272768E+03  0.94791272768E+03  0.00000000000E+00 0. -1.
          2   -1    0    0  502    0  0.00000000000E+00 -0.00000000000E+00 -0.35535727038E+03  0.35535727038E+03  0.00000000000E+00 0. -1.
         25    1    1    2    0    0  0.85068206421E+02  0.86228437415E+02  0.70407470686E+02  0.18776089873E+03  0.12500000000E+03 0.  0.
          2    1    1    2  501    0 -0.48827168109E+02  0.28020817649E+02  0.80570027309E+03  0.80766465109E+03  0.00000000000E+00 0. -1.
          1    1    1    2  502    0 -0.36241038312E+02 -0.11424925506E+03 -0.28355228648E+03  0.30784444824E+03  0.00000000000E+00 0. -1.
<mgrwt>
<rscale>  0 0.81823566E+02</rscale>
<asrwt>0</asrwt>
<pdfrwt beam="2">  1        2 0.54670350E-01 0.11892632E+03</pdfrwt>
<pdfrwt beam="1">  1        1 0.14583273E+00 0.56296168E+02</pdfrwt>
<totfact> 0.23966490E+02</totfact>
</mgrwt>
</event>
<event>
 5    1  0.8891499E-003  0.1216735E+03  0.7546771E-02  0.1254918E+00
          1   -1    0    0  501    0 -0.00000000000E+00  0.00000000000E+00  0.13666535779E+04  0.13666535779E+04  0.00000000000E+00 0. -1.
          2   -1    0    0  502    0  0.00000000000E+00 -0.00000000000E+00 -0.32593782565E+03  0.32593782565E+03  0.00000000000E+00 0. -1.
         25    1    1    2    0    0 -0.21555962306E+03 -0.21525252228E+02  0.45069502643E+03  0.51544184388E+03  0.12500000000E+03 0.  0.
          2    1    1    2  501    0  0.10335114564E+03 -0.19355359600E+02  0.86813467502E+03  0.87447921829E+03  0.00000000000E+00 0. -1.
          1    1    1    2  502    0  0.11220847741E+03  0.40880611828E+02 -0.27811394918E+03  0.30267034139E+03  0.00000000000E+00 0. -1.
<mgrwt>
<rscale>  0 0.11310932E+03</rscale>
<asrwt>0</asrwt>
<pdfrwt beam="2">  1        2 0.50144282E-01 0.12167349E+03</pdfrwt>
<pdfrwt beam="1">  1        1 0.21025439E+00 0.10514794E+03</pdfrwt>
<totfact> 0.13000843E+02</totfact>
</mgrwt>
</event>
<event>
 5    1  0.8891499E-003  0.1841418E+03  0.7546771E-02  0.1205456E+00
         -1   -1    0    0    0  501 -0.00000000000E+00  0.00000000000E+00  0.20625177310E+03  0.20625177310E+03  0.00000000000E+00 0.  1.
          1   -1    0    0  502    0  0.00000000000E+00 -0.00000000000E+00 -0.20391143058E+04  0.20391143058E+04  0.00000000000E+00 0. -1.
         25    1    1    2    0    0 -0.12334363835E+03 -0.44327746392E+02 -0.41972907475E+03  0.45713903620E+03  0.12500000000E+03 0.  0.
          2    1    1    2  502    0  0.14471381325E+02 -0.11487511452E+03 -0.15483546958E+04  0.15526776796E+04  0.00000000000E+00 0. -1.
         -2    1    1    2    0  501  0.10887225703E+03  0.15920286091E+03  0.13522123786E+03  0.23554936307E+03  0.00000000000E+00 0.  1.
<mgrwt>
<rscale>  0 0.14601542E+03</rscale>
<asrwt>0</asrwt>
<pdfrwt beam="2">  1        1 0.31370988E+00 0.11578304E+03</pdfrwt>
<pdfrwt beam="1">  1       -1 0.31731044E-01 0.18414185E+03</pdfrwt>
<totfact> 0.32876195E+01</totfact>
</mgrwt>
</event>
<event>
 5    1  0.8891499E-003  0.3907162E+02  0.7546771E-02  0.1538414E+00
          2   -1    0    0  502    0  0.00000000000E+00  0.00000000000E+00  0.15159397689E+04  0.15159397689E+04  0.00000000000E+00 0. -1.
         -2   -1    0    0    0  501 -0.00000000000E+00 -0.00000000000E+00 -0.81202609773E+01  0.81202609773E+01  0.00000000000E+00 0.  1.
         25    1    1    2    0    0  0.99437722075E+01 -0.29989994547E+01  0.98060655580E+03  0.98859601955E+03  0.12500000000E+03 0.  0.
          1    1    1    2  502    0 -0.18898374100E+01  0.41231516352E+02  0.40638970899E+03  0.40848036060E+03  0.00000000000E+00 0. -1.
         -1    1    1    2    0  501 -0.80539347975E+01 -0.38232516897E+02  0.12082324309E+03  0.12698364968E+03  0.00000000000E+00 0.  1.
<mgrwt>
<rscale>  0 0.36174243E+02</rscale>
<asrwt>0</asrwt>
<pdfrwt beam="1">  1        2 0.23322128E+00 0.33491726E+02</pdfrwt>
<pdfrwt beam="2">  1       -2 0.12492721E-02 0.39071616E+02</pdfrwt>
<totfact> 0.18315252E+04</totfact>
</mgrwt>
</event>
<event>
 5    1  0.1007955E-002  0.7376581E+02  0.7546771E-02  0.1379979E+00
          2   -1    0    0  502    0  0.00000000000E+00  0.00000000000E+00  0.25574329404E+04  0.25574329404E+04  0.00000000000E+00 0. -1.
          1   -1    0    0  501    0 -0.00000000000E+00 -0.00000000000E+00 -0.65722026565E+03  0.65722026565E+03  0.00000000000E+00 0. -1.
         25    1    1    2    0    0 -0.79610417813E+02  0.55614348479E+02 -0.19890327054E+03  0.25420126950E+03  0.12500000000E+03 0.  0.
          2    1    1    2  501    0  0.54633498145E+02  0.13780143572E+02 -0.42828485873E+03  0.43197526745E+03  0.00000000000E+00 0. -1.
          1    1    1    2  502    0  0.24976919668E+02 -0.69394492051E+02  0.25274008040E+04  0.25284766691E+04  0.00000000000E+00 0. -1.
<mgrwt>
<rscale>  0 0.64469398E+02</rscale>
<asrwt>0</asrwt>
<pdfrwt beam="1">  1        2 0.39345122E+00 0.73765807E+02</pdfrwt>
<pdfrwt beam="2">  1        1 0.10111081E+00 0.56344578E+02</pdfrwt>
<totfact> 0.20006431E+01</totfact>
</mgrwt>
</event>
<event>
 5    1  0.8891499E-003  0.9523540E+02  0.7546771E-02  0.1323749E+00
          2   -1    0    0  502    0  0.00000000000E+00  0.00000000000E+00  0.57043044551E+03  0.57043044551E+03  0.00000000000E+00 0. -1.
          1   -1    0    0  501    0 -0.00000000000E+00 -0.00000000000E+00 -0.35799176744E+03  0.35799176744E+03  0.00000000000E+00 0. -1.
         25    1    1    2    0    0 -0.11491625190E+02 -0.34307931502E+02  0.17206638536E+03  0.21573347581E+03  0.12500000000E+03 0.  0.
          2    1    1    2  501    0  0.77108158021E+02  0.59894957926E+02 -0.32563975357E+03  0.33996223779E+03  0.00000000000E+00 0. -1.
          1    1    1    2  502    0 -0.65616532831E+02 -0.25587026424E+02  0.36601204628E+03  0.37272649935E+03  0.00000000000E+00 0. -1.
<mgrwt>
<rscale>  0 0.81898238E+02</rscale>
<asrwt>0</asrwt>
<pdfrwt beam="1">  1        2 0.87758530E-01 0.70428867E+02</pdfrwt>
<pdfrwt beam="2">  1        1 0.55075656E-01 0.95235401E+02</pdfrwt>
<totfact> 0.52941780E+02</totfact>
</mgrwt>
</event>
<event>
 5    1  0.8891499E-003  0.2060189E+03  0.7546771E-02  0.1259013E+00
          2   -1    0    0  502    0  0.00000000000E+00  0.00000000000E+00  0.89149130198E+03  0.89149130198E+03  0.00000000000E+00 0. -1.
         -2   -1    0    0    0  501 -0.00000000000E+00 -0.00000000000E+00 -0.21170002014E+03  0.21170002014E+03  0.00000000000E+00 0.  1.
         25    1    1    2    0    0  0.72066186251E+02 -0.22402193001E+03  0.39230330505E+03  0.47424281068E+03  0.12500000000E+03 0.  0.
          1    1    1    2  502    0 -0.55405440001E+02  0.22067291306E+02  0.39505257927E+03  0.39952880812E+03  0.00000000000E+00 0. -1.
         -1    1    1    2    0  501 -0.16660746250E+02  0.20195463871E+03 -0.10756460249E+03  0.22941970332E+03  0.00000000000E+00 0.  1.
<mgrwt>
<rscale>  0 0.11084502E+03</rscale>
<asrwt>0</asrwt>
<pdfrwt beam="1">  1        2 0.13715251E+00 0.59638311E+02</pdfrwt>
<pdfrwt beam="2">  1       -2 0.32569234E-01 0.20601890E+03</pdfrwt>
<totfact> 0.29029797E+02</totfact>
</mgrwt>
</event>
<event>
 5    1  0.8891499E-003  0.2158088E+03  0.7546771E-02  0.1317856E+00
          1   -1    0    0  501    0 -0.00000000000E+00  0.00000000000E+00  0.33975697754E+03  0.33975697754E+03  0.00000000000E+00 0. -1.
          2   -1    0    0  502    0  0.00000000000E+00 -0.00000000000E+00 -0.19934164336E+04  0.19934164336E+04  0.00000000000E+00 0. -1.
         25    1    1    2    0    0  0.22677259435E+02  0.19882374863E+03 -0.67355029732E+03  0.71368070181E+03  0.12500000000E+03 0.  0.
          2    1    1    2  501    0 -0.53455998101E+02 -0.21003774935E+03  0.28272160282E+03  0.35623714655E+03  0.00000000000E+00 0. -1.
          1    1    1    2  502    0  0.30778738665E+02  0.11214000721E+02 -0.12628307616E+04  0.12632555628E+04  0.00000000000E+00 0. -1.
<mgrwt>
<rscale>  0 0.84080066E+02</rscale>
<asrwt>0</asrwt>
<pdfrwt beam="2">  1        2 0.30667945E+00 0.32757970E+02</pdfrwt>
<pdfrwt beam="1">  1        1 0.52270304E-01 0.21580878E+03</pdfrwt>
<totfact> 0.96910995E+01</totfact>
</mgrwt>
</event>
<event>
 5    1  0.8891499E-003  0.7689815E+02  0.7546771E-02  0.1377048E+00
          1   -1    0    0  501    0 -0.00000000000E+00  0.00000000000E+00  0.10550961225E+03  0.10550961225E+03  0.00000000000E+00 0. -1.
          2   -1    0    0  502    0  0.00000000000E+00 -0.00000000000E+00 -0.20996824005E+04  0.20996824005E+04  0.00000000000E+00 0. -1.
         25    1    1    2    0    0  0.40886969921E+02  0.27407335978E+02 -0.34460880665E+03  0.36986907954E+03  0.12500000000E+03 0.  0.
          2    1    1    2  501    0 -0.77575161654E+02  0.14049541780E+02  0.75625659486E+02  0.10924530060E+03  0.00000000000E+00 0. -1.
          1    1    1    2  502    0  0.36688191733E+02 -0.41456877758E+02 -0.17251896411E+04  0.17260776327E+04  0.00000000000E+00 0. -1.
<mgrwt>
<rscale>  0 0.65246139E+02</rscale>
<asrwt>0</asrwt>
<pdfrwt beam="2">  1        2 0.32302807E+00 0.55359698E+02</pdfrwt>
<pdfrwt beam="1">  1        1 0.16232247E-01 0.76898155E+02</pdfrwt>
<totfact> 0.34189310E+02</totfact>
</mgrwt>
</event>
<event>
 5    1  0.8891499E-003  0.1154774E+03  0.7546771E-02  0.1352262E+00
          2   -1    0    0  502    0  0.00000000000E+00  0.00000000000E+00  0.20894754765E+04  0.20894754765E+04  0.00000000000E+00 0. -1.
          1   -1    0    0  501    0 -0.00000000000E+00 -0.00000000000E+00 -0.38390603810E+02  0.38390603810E+02  0.00000000000E+00 0. -1.
         25    1    1    2    0    0 -0.49651821347E+02 -0.80571588181E+02  0.46482549924E+03  0.49055563286E+03  0.12500000000E+03 0.  0.
          2    1    1    2  501    0  0.26004689964E+02 -0.37136244820E+02 -0.11664800881E+01  0.45350912397E+02  0.00000000000E+00 0. -1.
          1    1    1    2  502    0  0.23647131383E+02  0.11770783300E+03  0.15874258535E+04  0.15919595351E+04  0.00000000000E+00 0. -1.
<mgrwt>
<rscale>  0 0.72355173E+02</rscale>
<asrwt>0</asrwt>
<pdfrwt beam="1">  1        2 0.32145768E+00 0.11547736E+03</pdfrwt>
<pdfrwt beam="2">  1        1 0.59062484E-02 0.45335908E+02</pdfrwt>
<totfact> 0.11263114E+03</totfact>
</mgrwt>
</event>
<event>
 5    1  0.8891499E-003  0.3708842E+02  0.7546771E-02  0.1545167E+00
          2   -1    0    0  502    0  0.00000000000E+00  0.00000000000E+00  0.23719354874E+04  0.23719354874E+04  0.00000000000E+00 0. -1.
          1   -1    0    0  501    0 -0.00000000000E+00 -0.00000000000E+00 -0.11124626955E+03  0.11124626955E+03  0.00000000000E+00 0. -1.
         25    1    1    2    0    0  0.27330472918E+02 -0.20057196183E+02 -0.35035230935E+02  0.13417046350E+03  0.12500000000E+03 0.  0.
          2    1    1    2  501    0 -0.34110165643E+02 -0.16406299024E+02 -0.12975907401E+02  0.40013050630E+02  0.00000000000E+00 0. -1.
          1    1    1    2  502    0  0.67796927249E+01  0.36463495206E+02  0.23087003561E+04  0.23089982428E+04  0.00000000000E+00 0. -1.
<mgrwt>
<rscale>  0 0.35389745E+02</rscale>
<asrwt>0</asrwt>
<pdfrwt beam="1">  1        2 0.36491311E+00 0.37088418E+02</pdfrwt>
<pdfrwt beam="2">  1        1 0.17114813E-01 0.33768872E+02</pdfrwt>
<totfact> 0.23760593E+02</totfact>
</mgrwt>
</event>
<event>
 5    1  0.8891499E-003  0.3865170E+02  0.7546771E-02  0.1574435E+00
          1   -1    0    0  501    0 -0.00000000000E+00  0.00000000000E+00  0.78797353540E+03  0.78797353540E+03  0.00000000000E+00 0. -1.
          2   -1    0    0  502    0  0.00000000000E+00 -0.00000000000E+00 -0.19925497815E+04  0.19925497815E+04  0.00000000000E+00 0. -1.
         25    1    1    2    0    0  0.15977653824E+02  0.59166578806E+02 -0.34907006401E+02  0.14352514959E+03  0.12500000000E+03 0.  0.
          2    1    1    2  501    0 -0.17310066546E+02 -0.20609693150E+02  0.73322203005E+03  0.73371584636E+03  0.00000000000E+00 0. -1.
          1    1    1    2  502    0  0.13324127215E+01 -0.38556885656E+02 -0.19028912698E+04  0.19032823210E+04  0.00000000000E+00 0. -1.
<mgrwt>
<rscale>  0 0.32253629E+02</rscale>
<asrwt>0</asrwt>
<pdfrwt beam="2">  1        2 0.30654612E+00 0.38651700E+02</pdfrwt>
<pdfrwt beam="1">  1        1 0.12122670E+00 0.26914640E+02</pdfrwt>
<totfact> 0.33714709E+01</totfact>
</mgrwt>
</event>
<event>
 5    1  0.8891499E-003  0.7876630E+02  0.7546771E-02  0.1379442E+00
         -1   -1    0    0    0  501 -0.00000000000E+00  0.00000000000E+00  0.12783184500E+03  0.12783184500E+03  0.00000000000E+00 0.  1.
          1   -1    0    0  502    0  0.00000000000E+00 -0.00000000000E+00 -0.36654436563E+04  0.36654436563E+04  0.00000000000E+00 0. -1.
         25    1    1    2    0    0  0.14568264484E+02 -0.31762269980E+02 -0.74773932641E+03  0.75892040187E+03  0.12500000000E+03 0.  0.
          2    1    1    2  502    0 -0.38705828295E+01  0.83670338923E+02 -0.29057372531E+04  0.29069442187E+04  0.00000000000E+00 0. -1.
         -2    1    1    2    0  501 -0.10697681654E+02 -0.51908068943E+02  0.11586476817E+03  0.12741088068E+03  0.00000000000E+00 0.  1.
<mgrwt>
<rscale>  0 0.64610610E+02</rscale>
<asrwt>0</asrwt>
<pdfrwt beam="2">  1        1 0.56391435E+00 0.78766304E+02</pdfrwt>
<pdfrwt beam="1">  1       -1 0.19666440E-01 0.52998944E+02</pdfrwt>
<totfact> 0.58737952E+00</totfact>
</mgrwt>
</event>
<event>
 5    1  0.8891499E-003  0.1096679E+03  0.7546771E-02  0.1303575E+00
          1   -1    0    0  501    0 -0.00000000000E+00  0.00000000000E+00  0.27206262182E+03  0.27206262182E+03  0.00000000000E+00 0. -1.
          2   -1    0    0  502    0  0.00000000000E+00 -0.00000000000E+00 -0.60338967471E+03  0.60338967471E+03  0.00000000000E+00 0. -1.
         25    1    1    2    0    0 -0.16506224090E+03 -0.22759706819E+02  0.16124564161E+02  0.20892235207E+03  0.12500000000E+03 0.  0.
          2    1    1    2  501    0  0.69044694208E+02 -0.24822884461E+02  0.14502527008E+03  0.16252899542E+03  0.00000000000E+00 0. -1.
          1    1    1    2  502    0  0.96017546697E+02  0.47582591280E+02 -0.49247688713E+03  0.50400094903E+03  0.00000000000E+00 0. -1.
<mgrwt>
<rscale>  0 0.89702163E+02</rscale>
<asrwt>0</asrwt>
<pdfrwt beam="2">  1        2 0.92829179E-01 0.10966794E+03</pdfrwt>
<pdfrwt beam="1">  1        1 0.41855789E-01 0.73371285E+02</pdfrwt>
<totfact> 0.68886897E+02</totfact>
</mgrwt>
</event>
<event>
 5    1  0.8891499E-003  0.7449637E+02  0.7546771E-02  0.1483460E+00
          2   -1    0    0  502    0  0.00000000000E+00  0.00000000000E+00  0.12308165421E+03  0.12308165421E+03  0.00000000000E+00 0. -1.
          1   -1    0    0  501    0 -0.00000000000E+00 -0.00000000000E+00 -0.17427346922E+04  0.17427346922E+04  0.00000000000E+00 0. -1.
         25    1    1    2    0    0  0.93834965487E+02  0.14956310791E+02 -0.11546178116E+03  0.19489770365E+03  0.12500000000E+03 0.  0.
          2    1    1    2  501    0 -0.24615711346E+02  0.65971367386E+01 -0.15716702681E+04  0.15718768676E+04  0.00000000000E+00 0. -1.
          1    1    1    2  502    0 -0.69219254141E+02 -0.21553447530E+02  0.67479011295E+02  0.99041775073E+02  0.00000000000E+00 0. -1.
<mgrwt>
<rscale>  0 0.43571739E+02</rscale>
<asrwt>0</asrwt>
<pdfrwt beam="1">  1        2 0.18935640E-01 0.74496368E+02</pdfrwt>
<pdfrwt beam="2">  1        1 0.26811301E+00 0.25484416E+02</pdfrwt>
<totfact> 0.24919173E+02</totfact>
</mgrwt>
</event>
<event>
 5    1  0.8891499E-003  0.6267248E+02  0.7546771E-02  0.1511977E+00
          1   -1    0    0  501    0 -0.00000000000E+00  0.00000000000E+00  0.24771005420E+03  0.24771005420E+03  0.00000000000E+00 0. -1.
          2   -1    0    0  502    0  0.00000000000E+00 -0.00000000000E+00 -0.36485080746E+03  0.36485080746E+03  0.00000000000E+00 0. -1.
         25    1    1    2    0    0  0.40363034261E+02  0.38884738178E+02  0.13513228451E+02  0.13765465754E+03  0.12500000000E+03 0.  0.
          2    1    1    2  501    0 -0.59433601784E+02 -0.22895918489E+02  0.16569478978E+03  0.17751433594E+03  0.00000000000E+00 0. -1.
          1    1    1    2  502    0  0.19070567522E+02 -0.15988819689E+02 -0.29634877149E+03  0.29739186819E+03  0.00000000000E+00 0. -1.
<mgrwt>
<rscale>  0 0.39492876E+02</rscale>
<asrwt>0</asrwt>
<pdfrwt beam="2">  1        2 0.56130893E-01 0.24886320E+02</pdfrwt>
<pdfrwt beam="1">  1        1 0.38109239E-01 0.62672477E+02</pdfrwt>
<totfact> 0.13222215E+03</totfact>
</mgrwt>
</event>
<event>
 5    1  0.8891499E-003  0.1487617E+03  0.7546771E-02  0.1226829E+00
         -1   -1    0    0    0  501 -0.00000000000E+00  0.00000000000E+00  0.13839909346E+04  0.13839909346E+04  0.00000000000E+00 0.  1.
          1   -1    0    0  502    0  0.00000000000E+00 -0.00000000000E+00 -0.10765463284E+03  0.10765463284E+03  0.00000000000E+00 0. -1.
         25    1    1    2    0    0 -0.42873592207E+02 -0.89981227415E+02  0.23806858436E+03  0.28676892624E+03  0.12500000000E+03 0.  0.
          2    1    1    2  502    0 -0.40680937249E+02  0.16804189741E+03  0.13143381983E+02  0.17339482815E+03  0.00000000000E+00 0. -1.
         -2    1    1    2    0  501  0.83554529457E+02 -0.78060669994E+02  0.10251243354E+04  0.10314818130E+04  0.00000000000E+00 0.  1.
<mgrwt>
<rscale>  0 0.13042313E+03</rscale>
<asrwt>0</asrwt>
<pdfrwt beam="2">  1        1 0.16562252E-01 0.14876173E+03</pdfrwt>
<pdfrwt beam="1">  1       -1 0.21292167E+00 0.11434521E+03</pdfrwt>
<totfact> 0.47637138E+01</totfact>
</mgrwt>
</event>
<event>
 5    1  0.8891499E-003  0.6311635E+02  0.7546771E-02  0.1489751E+00
          2   -1    0    0  502    0  0.00000000000E+00  0.00000000000E+00  0.66879010579E+02  0.66879010579E+02  0.00000000000E+00 0. -1.
          1   -1    0    0  501    0 -0.00000000000E+00 -0.00000000000E+00 -0.11034014373E+04  0.11034014373E+04  0.00000000000E+00 0. -1.
         25    1    1    2    0    0 -0.82364413515E+02 -0.25540213669E+00 -0.30663645659E+03  0.34122555349E+03  0.12500000000E+03 0.  0.
          2    1    1    2  501    0  0.22714748940E+02  0.17678575653E+02 -0.75962018568E+03  0.76016532304E+03  0.00000000000E+00 0. -1.
          1    1    1    2  502    0  0.59649664576E+02 -0.17423173516E+02  0.29734215587E+02  0.68889571315E+02  0.00000000000E+00 0. -1.
<mgrwt>
<rscale>  0 0.42622902E+02</rscale>
<asrwt>0</asrwt>
<pdfrwt beam="1">  1        2 0.10289079E-01 0.63116355E+02</pdfrwt>
<pdfrwt beam="2">  1        1 0.16975405E+00 0.28783534E+02</pdfrwt>
<totfact> 0.12171543E+03</totfact>
</mgrwt>
</event>
<event>
 5    1  0.8891499E-003  0.9539086E+02  0.7546771E-02  0.1481140E+00
          2   -1    0    0  502    0  0.00000000000E+00  0.00000000000E+00  0.67079755652E+03  0.67079755652E+03  0.00000000000E+00 0. -1.
          1   -1    0    0  501    0 -0.00000000000E+00 -0.00000000000E+00 -0.31483104007E+03  0.31483104007E+03  0.00000000000E+00 0. -1.
         25    1    1    2    0    0  0.39707812995E+02 -0.82003478732E+02  0.41220788595E+03  0.44027448504E+03  0.12500000000E+03 0.  0.
          2    1    1    2  501    0 -0.58783646858E+02  0.75268021296E+02 -0.29277457508E+03  0.30795737364E+03  0.00000000000E+00 0. -1.
          1    1    1    2  502    0  0.19075833863E+02  0.67354574364E+01  0.23653320559E+03  0.23739673791E+03  0.00000000000E+00 0. -1.
<mgrwt>
<rscale>  0 0.43929025E+02</rscale>
<asrwt>0</asrwt>
<pdfrwt beam="1">  1        2 0.10319962E+00 0.20230023E+02</pdfrwt>
<pdfrwt beam="2">  1        1 0.48435545E-01 0.95390859E+02</pdfrwt>
<totfact> 0.53509089E+02</totfact>
</mgrwt>
</event>
<event>
 5    1  0.8891499E-003  0.1480201E+03  0.7546771E-02  0.1230593E+00
          2   -1    0    0  502    0  0.00000000000E+00  0.00000000000E+00  0.11384387163E+04  0.11384387163E+04  0.00000000000E+00 0. -1.
          1   -1    0    0  501    0 -0.00000000000E+00 -0.00000000000E+00 -0.73051314005E+03  0.73051314005E+03  0.00000000000E+00 0. -1.
         25    1    1    2    0    0  0.35193823157E+02  0.20755872249E+03 -0.91662691596E+02  0.26143120988E+03  0.12500000000E+03 0.  0.
          2    1    1    2  501    0 -0.90331207405E+02 -0.11176400592E+03 -0.54167219499E+03  0.56041028441E+03  0.00000000000E+00 0. -1.
          3    1    1    2  502    0  0.55137384248E+02 -0.95794716565E+02  0.10412604629E+04  0.10471103621E+04  0.00000000000E+00 0. -1.
<mgrwt>
<rscale>  0 0.12790848E+03</rscale>
<asrwt>0</asrwt>
<pdfrwt beam="1">  1        2 0.17514442E+00 0.11052945E+03</pdfrwt>
<pdfrwt beam="2">  1        1 0.11238664E+00 0.14802010E+03</pdfrwt>
<totfact> 0.85278163E+01</totfact>
</mgrwt>
</event>
<event>
 5    1  0.8891499E-003  0.1443043E+03  0.7546771E-02  0.1256442E+00
          1   -1    0    0  501    0 -0.00000000000E+00  0.00000000000E+00  0.69621467361E+03  0.69621467361E+03  0.00000000000E+00 0. -1.
          2   -1    0    0  502    0  0.00000000000E+00 -0.00000000000E+00 -0.13590048184E+04  0.13590048184E+04  0.00000000000E+00 0. -1.
         25    1    1    2    0    0  0.42148522661E+02  0.66088853884E+02 -0.25679110976E+03  0.29616027522E+03  0.12500000000E+03 0.  0.
          2    1    1    2  501    0  0.52689056834E+02  0.69645627807E+02  0.66733647671E+03  0.67302646555E+03  0.00000000000E+00 0. -1.
          1    1    1    2  502    0 -0.94837579495E+02 -0.13573448169E+03 -0.10733355117E+04  0.10860327512E+04  0.00000000000E+00 0. -1.
<mgrwt>
<rscale>  0 0.11225951E+03</rscale>
<asrwt>0</asrwt>
<pdfrwt beam="2">  1        2 0.20907766E+00 0.14430433E+03</pdfrwt>
<pdfrwt beam="1">  1        1 0.10710995E+00 0.87330694E+02</pdfrwt>
<totfact> 0.69605364E+01</totfact>
</mgrwt>
</event>
<event>
 5    1  0.8891499E-003  0.5762613E+02  0.7546771E-02  0.1432895E+00
          2   -1    0    0  502    0  0.00000000000E+00  0.00000000000E+00  0.29111515196E+03  0.29111515196E+03  0.00000000000E+00 0. -1.
          1   -1    0    0  501    0 -0.00000000000E+00 -0.00000000000E+00 -0.24691543951E+03  0.24691543951E+03  0.00000000000E+00 0. -1.
         25    1    1    2    0    0  0.10151294340E+03  0.22437061929E+01  0.67337675831E+02  0.17455450289E+03  0.12500000000E+03 0.  0.
          2    1    1    2  501    0 -0.47476411976E+02 -0.36627049444E+01 -0.18593701588E+03  0.19193748716E+03  0.00000000000E+00 0. -1.
          1    1    1    2  502    0 -0.54036531420E+02  0.14189987515E+01  0.16279905249E+03  0.17153860142E+03  0.00000000000E+00 0. -1.
<mgrwt>
<rscale>  0 0.52383313E+02</rscale>
<asrwt>0</asrwt>
<pdfrwt beam="1">  1        2 0.44786946E-01 0.57626130E+02</pdfrwt>
<pdfrwt beam="2">  1        1 0.37986991E-01 0.47617487E+02</pdfrwt>
<totfact> 0.16753603E+03</totfact>
</mgrwt>
</event>
<event>
 5    1  0.8891499E-003  0.5743259E+02  0.7546771E-02  0.1442181E+00
          2   -1    0    0  502    0  0.00000000000E+00  0.00000000000E+00  0.44623336625E+02  0.44623336625E+02  0.00000000000E+00 0. -1.
          1   -1    0    0  501    0 -0.00000000000E+00 -0.00000000000E+00 -0.73313475987E+03  0.73313475987E+03  0.00000000000E+00 0. -1.
         25    1    1    2    0    0  0.68646117612E+01  0.26988133166E+02 -0.35584852935E+03  0.37819129824E+03  0.12500000000E+03 0.  0.
          2    1    1    2  501    0  0.17121015030E+02 -0.64546535219E+02 -0.34652177881E+03  0.35289761625E+03  0.00000000000E+00 0. -1.
          1    1    1    2  502    0 -0.23985626791E+02  0.37558402053E+02  0.13858884918E+02  0.46669181999E+02  0.00000000000E+00 0. -1.
<mgrwt>
<rscale>  0 0.50590731E+02</rscale>
<asrwt>0</asrwt>
<pdfrwt beam="1">  1        2 0.68651292E-02 0.44563930E+02</pdfrwt>
<pdfrwt beam="2">  1        1 0.11278995E+00 0.57432592E+02</pdfrwt>
<totfact> 0.34402047E+03</totfact>
</mgrwt>
</event>
<event>
 5    1  0.8891499E-003  0.8685272E+02  0.7546771E-02  0.1314667E+00
          1   -1    0    0  501    0 -0.00000000000E+00  0.00000000000E+00  0.27768982569E+02  0.27768982569E+02  0.00000000000E+00 0. -1.
          2   -1    0    0  502    0  0.00000000000E+00 -0.00000000000E+00 -0.34281058045E+04  0.34281058045E+04  0.00000000000E+00 0. -1.
         25    1    1    2    0    0  0.60436333281E+01  0.36412696502E+02 -0.14290383674E+04  0.14349697089E+04  0.12500000000E+03 0.  0.
          2    1    1    2  501    0 -0.88545880953E+02 -0.21938112119E+02 -0.63218633512E+02  0.11098760931E+03  0.00000000000E+00 0. -1.
          1    1    1    2  502    0  0.82502247625E+02 -0.14474584382E+02 -0.19080798210E+04  0.19099174689E+04  0.00000000000E+00 0. -1.
<mgrwt>
<rscale>  0 0.85293550E+02</rscale>
<asrwt>0</asrwt>
<pdfrwt beam="2">  1        2 0.52740102E+00 0.83762369E+02</pdfrwt>
<pdfrwt beam="1">  1        1 0.42721502E-02 0.86852722E+02</pdfrwt>
<totfact> 0.35294919E+02</totfact>
</mgrwt>
</event>
<event>
 5    1  0.8891499E-003  0.9481189E+02  0.7546771E-02  0.1295720E+00
          2   -1    0    0  502    0  0.00000000000E+00  0.00000000000E+00  0.21393838494E+04  0.21393838494E+04  0.00000000000E+00 0. -1.
         -2   -1    0    0    0  501 -0.00000000000E+00 -0.00000000000E+00 -0.63305970617E+03  0.63305970617E+03  0.00000000000E+00 0.  1.
         25    1    1    2    0    0 -0.16739476845E+02 -0.15936105105E+03  0.70640016518E+02  0.21515382081E+03  0.12500000000E+03 0.  0.
          1    1    1    2  502    0 -0.37552352363E+02  0.83158411254E+02  0.19915324439E+04  0.19936215728E+04  0.00000000000E+00 0. -1.
         -1    1    1    2    0  501  0.54291829208E+02  0.76202639793E+02 -0.55584831720E+03  0.56366816192E+03  0.00000000000E+00 0.  1.
<mgrwt>
<rscale>  0 0.93010930E+02</rscale>
<asrwt>0</asrwt>
<pdfrwt beam="1">  1        2 0.32913597E+00 0.91244181E+02</pdfrwt>
<pdfrwt beam="2">  1       -2 0.97393802E-01 0.94811889E+02</pdfrwt>
<totfact> 0.67648283E+00</totfact>
</mgrwt>
</event>
<event>
 5    1  0.8891499E-003  0.5721824E+02  0.7546771E-02  0.1418124E+00
          1   -1    0    0  501    0 -0.00000000000E+00  0.00000000000E+00  0.92536410731E+03  0.92536410731E+03  0.00000000000E+00 0. -1.
          2   -1    0    0  502    0  0.00000000000E+00 -0.00000000000E+00 -0.39496690934E+03  0.39496690934E+03  0.00000000000E+00 0. -1.
         25    1    1    2    0    0 -0.27739575734E+02 -0.38722895189E+02  0.54637948990E+03  0.56251621635E+03  0.12500000000E+03 0.  0.
          2    1    1    2  501    0  0.66527909519E+02  0.16180334469E+01  0.36603983909E+03  0.37203997713E+03  0.00000000000E+00 0. -1.
          1    1    1    2  502    0 -0.38788333785E+02  0.37104861742E+02 -0.38202213102E+03  0.38577482317E+03  0.00000000000E+00 0. -1.
<mgrwt>
<rscale>  0 0.55419754E+02</rscale>
<asrwt>0</asrwt>
<pdfrwt beam="2">  1        2 0.60764140E-01 0.53677794E+02</pdfrwt>
<pdfrwt beam="1">  1        1 0.14236371E+00 0.57218244E+02</pdfrwt>
<totfact> 0.22281514E+02</totfact>
</mgrwt>
</event>
<event>
 5    1  0.8891499E-003  0.9524973E+02  0.7546771E-02  0.1320048E+00
          1   -1    0    0  501    0 -0.00000000000E+00  0.00000000000E+00  0.95211916013E+03  0.95211916013E+03  0.00000000000E+00 0. -1.
          2   -1    0    0  502    0  0.00000000000E+00 -0.00000000000E+00 -0.29415579816E+03  0.29415579816E+03  0.00000000000E+00 0. -1.
         25    1    1    2    0    0  0.85634592866E+02 -0.13393544284E+03  0.74155047848E+02  0.21539720858E+03  0.12500000000E+03 0.  0.
          2    1    1    2  501    0 -0.20588849385E+02  0.69805813730E+02  0.79628234426E+03  0.79960135326E+03  0.00000000000E+00 0. -1.
          1    1    1    2  502    0 -0.65045743481E+02  0.64129629105E+02 -0.21247403014E+03  0.23127639646E+03  0.00000000000E+00 0. -1.
<mgrwt>
<rscale>  0 0.83259593E+02</rscale>
<asrwt>0</asrwt>
<pdfrwt beam="2">  1        2 0.45254739E-01 0.95249726E+02</pdfrwt>
<pdfrwt beam="1">  1        1 0.14647987E+00 0.72778791E+02</pdfrwt>
<totfact> 0.28546914E+02</totfact>
</mgrwt>
</event>
<event>
 5    1  0.8891499E-003  0.1779145E+03  0.7546771E-02  0.1342247E+00
         -2   -1    0    0    0  501 -0.00000000000E+00  0.00000000000E+00  0.73447655327E+03  0.73447655327E+03  0.00000000000E+00 0.  1.
          2   -1    0    0  502    0  0.00000000000E+00 -0.00000000000E+00 -0.14409561516E+03  0.14409561516E+03  0.00000000000E+00 0. -1.
         25    1    1    2    0    0 -0.39546317583E+02  0.15174719988E+03  0.19739841758E+03  0.28139342418E+03  0.12500000000E+03 0.  0.
          1    1    1    2  502    0  0.61609511019E+02 -0.17501098311E+03 -0.16658453361E+02  0.18628494337E+03  0.00000000000E+00 0. -1.
         -1    1    1    2    0  501 -0.22063193436E+02  0.23263783232E+02  0.40964097389E+03  0.41089380089E+03  0.00000000000E+00 0.  1.
<mgrwt>
<rscale>  0 0.75527080E+02</rscale>
<asrwt>0</asrwt>
<pdfrwt beam="2">  1        2 0.22168556E-01 0.17791450E+03</pdfrwt>
<pdfrwt beam="1">  1       -2 0.11299639E+00 0.32062254E+02</pdfrwt>
<totfact> 0.16840891E+02</totfact>
</mgrwt>
</event>
<event>
 5    1  0.8891499E-003  0.1057994E+03  0.7546771E-02  0.1324099E+00
          1   -1    0    0  501    0 -0.00000000000E+00  0.00000000000E+00  0.14214947715E+04  0.14214947715E+04  0.00000000000E+00 0. -1.
          2   -1    0    0  502    0  0.00000000000E+00 -0.00000000000E+00 -0.77292100358E+03  0.77292100358E+03  0.00000000000E+00 0. -1.
         25    1    1    2    0    0  0.77295370307E+02 -0.27612847181E+01 -0.17347971033E+03  0.22738163703E+03  0.12500000000E+03 0.  0.
          2    1    1    2  501    0 -0.83520677252E+02  0.65653977060E+02  0.13907675611E+04  0.13948191844E+04  0.00000000000E+00 0. -1.
          1    1    1    2  502    0  0.62253069454E+01 -0.62892692342E+02 -0.56871408281E+03  0.57221495366E+03  0.00000000000E+00 0. -1.
<mgrwt>
<rscale>  0 0.81771176E+02</rscale>
<asrwt>0</asrwt>
<pdfrwt beam="2">  1        2 0.11891092E+00 0.63200041E+02</pdfrwt>
<pdfrwt beam="1">  1        1 0.21869150E+00 0.10579938E+03</pdfrwt>
<totfact> 0.47033239E+01</totfact>
</mgrwt>
</event>
<event>
 5    1  0.8891499E-003  0.8323780E+02  0.7546771E-02  0.1372439E+00
          1   -1    0    0  501    0 -0.00000000000E+00  0.00000000000E+00  0.20078942094E+03  0.20078942094E+03  0.00000000000E+00 0. -1.
          2   -1    0    0  502    0  0.00000000000E+00 -0.00000000000E+00 -0.44277799256E+03  0.44277799256E+03  0.00000000000E+00 0. -1.
         25    1    1    2    0    0 -0.73312274350E+02 -0.45093866418E+02 -0.20598200008E+03  0.25585490169E+03  0.12500000000E+03 0.  0.
          2    1    1    2  501    0  0.31397234125E+02  0.77722879305E+02  0.16216314924E+03  0.18254730689E+03  0.00000000000E+00 0. -1.
          1    1    1    2  502    0  0.41915040226E+02 -0.32629012887E+02 -0.19816972078E+03  0.20516520493E+03  0.00000000000E+00 0. -1.
<mgrwt>
<rscale>  0 0.66493807E+02</rscale>
<asrwt>0</asrwt>
<pdfrwt beam="2">  1        2 0.68119691E-01 0.53118011E+02</pdfrwt>
<pdfrwt beam="1">  1        1 0.30890680E-01 0.83237800E+02</pdfrwt>
<totfact> 0.14093348E+03</totfact>
</mgrwt>
</event>
<event>
 5    1  0.8891499E-003  0.7742170E+02  0.7546771E-02  0.1505544E+00
         -2   -1    0    0    0  501 -0.00000000000E+00  0.00000000000E+00  0.76889485418E+01  0.76889485418E+01  0.00000000000E+00 0.  1.
          2   -1    0    0  502    0  0.00000000000E+00 -0.00000000000E+00 -0.24149312212E+04  0.24149312212E+04  0.00000000000E+00 0. -1.
         25    1    1    2    0    0  0.67950133333E+02  0.13029332113E+02 -0.92981854022E+03  0.94073083390E+03  0.12500000000E+03 0.  0.
          1    1    1    2  502    0  0.18094741213E+02  0.10745098908E+02 -0.15023292983E+03  0.15169973637E+03  0.00000000000E+00 0. -1.
         -1    1    1    2    0  501 -0.86044874547E+02 -0.23774431021E+02 -0.13271908026E+04  0.13301895994E+04  0.00000000000E+00 0.  1.
<mgrwt>
<rscale>  0 0.40364733E+02</rscale>
<asrwt>0</asrwt>
<pdfrwt beam="2">  1        2 0.37152767E+00 0.21044639E+02</pdfrwt>
<pdfrwt beam="1">  1       -2 0.11829158E-02 0.77421697E+02</pdfrwt>
<totfact> 0.88704439E+03</totfact>
</mgrwt>
</event>
<event>
 5    1  0.9648398E-003  0.6138145E+02  0.7546771E-02  0.1395892E+00
          2   -1    0    0  502    0  0.00000000000E+00  0.00000000000E+00  0.20223050415E+02  0.20223050415E+02  0.00000000000E+00 0. -1.
         -2   -1    0    0    0  501 -0.00000000000E+00 -0.00000000000E+00 -0.90314252406E+03  0.90314252406E+03  0.00000000000E+00 0.  1.
         25    1    1    2    0    0 -0.77987888714E+02  0.82959956904E+01 -0.43043160649E+03  0.45502450725E+03  0.12500000000E+03 0.  0.
          1    1    1    2  502    0  0.44766572483E+02  0.41140075429E+02 -0.24900348939E+03  0.25631872648E+03  0.00000000000E+00 0. -1.
         -1    1    1    2    0  501  0.33221316231E+02 -0.49436071120E+02 -0.20348437777E+03  0.21202234074E+03  0.00000000000E+00 0.  1.
<mgrwt>
<rscale>  0 0.60464667E+02</rscale>
<asrwt>0</asrwt>
<pdfrwt beam="1">  1        2 0.31112387E-02 0.61381455E+02</pdfrwt>
<pdfrwt beam="2">  1       -2 0.13894500E+00 0.59561573E+02</pdfrwt>
<totfact> 0.10544376E+03</totfact>
</mgrwt>
</event>
<event>
 5    1  0.8891499E-003  0.4618355E+02  0.7546771E-02  0.1504391E+00
          1   -1    0    0  501    0 -0.00000000000E+00  0.00000000000E+00  0.92349926503E+02  0.92349926503E+02  0.00000000000E+00 0. -1.
          2   -1    0    0  502    0  0.00000000000E+00 -0.00000000000E+00 -0.20660670007E+04  0.20660670007E+04  0.00000000000E+00 0. -1.
         25    1    1    2    0    0 -0.72035983984E+01 -0.59419520260E+02  0.25538645757E+01  0.13861491061E+03  0.12500000000E+03 0.  0.
          2    1    1    2  501    0  0.30285458620E+02  0.32371513132E+02 -0.11331651948E+01  0.44344198376E+02  0.00000000000E+00 0. -1.
          1    1    1    2  502    0 -0.23081860221E+02  0.27048007127E+02 -0.19751377736E+04  0.19754578182E+04  0.00000000000E+00 0. -1.
<mgrwt>
<rscale>  0 0.40523968E+02</rscale>
<asrwt>0</asrwt>
<pdfrwt beam="2">  1        2 0.31785645E+00 0.35557938E+02</pdfrwt>
<pdfrwt beam="1">  1        1 0.14207681E-01 0.46183554E+02</pdfrwt>
<totfact> 0.43189158E+02</totfact>
</mgrwt>
</event>
<event>
 5    1  0.8891499E-003  0.6672470E+02  0.7546771E-02  0.1396846E+00
          2   -1    0    0  502    0  0.00000000000E+00  0.00000000000E+00  0.13027868780E+04  0.13027868780E+04  0.00000000000E+00 0. -1.
          1   -1    0    0  501    0 -0.00000000000E+00 -0.00000000000E+00 -0.23120673599E+03  0.23120673599E+03  0.00000000000E+00 0. -1.
         25    1    1    2    0    0 -0.11074262061E+03  0.14615590873E+02 -0.90006564575E+02  0.19027276521E+03  0.12500000000E+03 0.  0.
          2    1    1    2  501    0  0.45877411584E+02 -0.29191547982E+02 -0.81981894053E+02  0.98376391069E+02  0.00000000000E+00 0. -1.
          1    1    1    2  502    0  0.64865209023E+02  0.14575957109E+02  0.12435686006E+04  0.12453444577E+04  0.00000000000E+00 0. -1.
<mgrwt>
<rscale>  0 0.60235410E+02</rscale>
<asrwt>0</asrwt>
<pdfrwt beam="1">  1        2 0.20042875E+00 0.66724702E+02</pdfrwt>
<pdfrwt beam="2">  1        1 0.35570268E-01 0.54377232E+02</pdfrwt>
<totfact> 0.31521414E+02</totfact>
</mgrwt>
</event>
<event>
 5    1  0.8891499E-003  0.5288978E+02  0.7546771E-02  0.1467440E+00
          2   -1    0    0  502    0  0.00000000000E+00  0.00000000000E+00  0.56183173433E+03  0.56183173433E+03  0.00000000000E+00 0. -1.
          1   -1    0    0  501    0 -0.00000000000E+00 -0.00000000000E+00 -0.15563778061E+04  0.15563778061E+04  0.00000000000E+00 0. -1.
         25    1    1    2    0    0  0.77557512783E+01  0.10150782052E+02  0.45117445727E+03  0.46834451096E+03  0.12500000000E+03 0.  0.
          2    1    1    2  501    0 -0.28160484546E+02 -0.44816401604E+02 -0.15433583949E+04  0.15442657342E+04  0.00000000000E+00 0. -1.
          1    1    1    2  502    0  0.20404733268E+02  0.34665619552E+02  0.97637865839E+02  0.10559929528E+03  0.00000000000E+00 0. -1.
<mgrwt>
<rscale>  0 0.46124791E+02</rscale>
<asrwt>0</asrwt>
<pdfrwt beam="1">  1        2 0.86435655E-01 0.40225096E+02</pdfrwt>
<pdfrwt beam="2">  1        1 0.23944273E+00 0.52889776E+02</pdfrwt>
<totfact> 0.59759953E+01</totfact>
</mgrwt>
</event>
<event>
 5    1  0.8891499E-003  0.2396723E+03  0.7546771E-02  0.1294838E+00
         -1   -1    0    0    0  502 -0.00000000000E+00  0.00000000000E+00  0.10503147123E+04  0.10503147123E+04  0.00000000000E+00 0.  1.
         -2   -1    0    0    0  501  0.00000000000E+00 -0.00000000000E+00 -0.58505725074E+03  0.58505725074E+03  0.00000000000E+00 0.  1.
         25    1    1    2    0    0  0.75486951669E+02  0.20149875197E+03  0.28689043725E+03  0.37977776383E+03  0.12500000000E+03 0.  0.
         -2    1    1    2    0  502 -0.92504633650E+02 -0.23366678530E+03  0.69429799895E+03  0.73838132773E+03  0.00000000000E+00 0.  1.
         -1    1    1    2    0  501  0.17017681981E+02  0.32168033333E+02 -0.51593097462E+03  0.51721287150E+03  0.00000000000E+00 0.  1.
<mgrwt>
<rscale>  0 0.93392576E+02</rscale>
<asrwt>0</asrwt>
<pdfrwt beam="2">  1       -2 0.90008808E-01 0.36392085E+02</pdfrwt>
<pdfrwt beam="1">  1       -1 0.16158688E+00 0.23967226E+03</pdfrwt>
<totfact> 0.26855135E+00</totfact>
</mgrwt>
</event>
<event>
 5    1  0.8891499E-003  0.5347681E+02  0.7546771E-02  0.1518276E+00
          1   -1    0    0  502    0  0.00000000000E+00  0.00000000000E+00  0.73958250191E+03  0.73958250191E+03  0.00000000000E+00 0. -1.
         -1   -1    0    0    0  501 -0.00000000000E+00 -0.00000000000E+00 -0.66232158870E+02  0.66232158870E+02  0.00000000000E+00 0.  1.
         25    1    1    2    0    0  0.28598537046E+02  0.45083235213E+01  0.14490028652E+03  0.19354403720E+03  0.12500000000E+03 0.  0.
          2    1    1    2  502    0 -0.54557795452E+02  0.58643495784E+01  0.56421485360E+03  0.56687683377E+03  0.00000000000E+00 0. -1.
         -2    1    1    2    0  501  0.25959258406E+02 -0.10372673100E+02 -0.35764797074E+02  0.45393789817E+02  0.00000000000E+00 0.  1.
<mgrwt>
<rscale>  0 0.38664426E+02</rscale>
<asrwt>0</asrwt>
<pdfrwt beam="1">  1        1 0.11378192E+00 0.53476806E+02</pdfrwt>
<pdfrwt beam="2">  1       -1 0.10189563E-01 0.27954882E+02</pdfrwt>
<totfact> 0.14125264E+03</totfact>
</mgrwt>
</event>
<event>
 5    1  0.8891499E-003  0.7812149E+02  0.7546771E-02  0.1424997E+00
         -2   -1    0    0    0  501 -0.00000000000E+00  0.00000000000E+00  0.52003993467E+03  0.52003993467E+03  0.00000000000E+00 0.  1.
          2   -1    0    0  502    0  0.00000000000E+00 -0.00000000000E+00 -0.30310469179E+03  0.30310469179E+03  0.00000000000E+00 0. -1.
         25    1    1    2    0    0  0.56237640337E+02 -0.79623236409E+02 -0.49830284648E+02  0.16616434405E+03  0.12500000000E+03 0.  0.
          1    1    1    2  502    0 -0.37045595218E+02  0.43083371014E+01 -0.19001206358E+03  0.19363760533E+03  0.00000000000E+00 0. -1.
         -1    1    1    2    0  501 -0.19192045119E+02  0.75314899307E+02  0.45677759111E+03  0.46334267707E+03  0.00000000000E+00 0.  1.
<mgrwt>
<rscale>  0 0.53977429E+02</rscale>
<asrwt>0</asrwt>
<pdfrwt beam="2">  1        2 0.46631491E-01 0.37295280E+02</pdfrwt>
<pdfrwt beam="1">  1       -2 0.80006144E-01 0.78121491E+02</pdfrwt>
<totfact> 0.15695856E+02</totfact>
</mgrwt>
</event>
<event>
 5    1  0.8891499E-003  0.2632649E+02  0.7546771E-02  0.1669494E+00
          1   -1    0    0  501    0 -0.00000000000E+00  0.00000000000E+00  0.26466469458E+03  0.26466469458E+03  0.00000000000E+00 0. -1.
          2   -1    0    0  502    0  0.00000000000E+00 -0.00000000000E+00 -0.13940264744E+04  0.13940264744E+04  0.00000000000E+00 0. -1.
         25    1    1    2    0    0 -0.34375518471E+02  0.23398363798E+02  0.27123719788E+02  0.13449853484E+03  0.12500000000E+03 0.  0.
          2    1    1    2  501    0  0.22648747800E+02  0.15433440574E+00  0.18302633980E+03  0.18442242450E+03  0.00000000000E+00 0. -1.
          1    1    1    2  502    0  0.11726770671E+02 -0.23552698204E+02 -0.13395118394E+04  0.13397702096E+04  0.00000000000E+00 0. -1.
<mgrwt>
<rscale>  0 0.24418762E+02</rscale>
<asrwt>0</asrwt>
<pdfrwt beam="2">  1        2 0.21446561E+00 0.26326493E+02</pdfrwt>
<pdfrwt beam="1">  1        1 0.40717646E-01 0.22649274E+02</pdfrwt>
<totfact> 0.25632897E+02</totfact>
</mgrwt>
</event>
<event>
 5    1  0.8891499E-003  0.6678625E+02  0.7546771E-02  0.1498816E+00
          2   -1    0    0  502    0  0.00000000000E+00  0.00000000000E+00  0.14621048176E+04  0.14621048176E+04  0.00000000000E+00 0. -1.
          1   -1    0    0  501    0 -0.00000000000E+00 -0.00000000000E+00 -0.30955589431E+02  0.30955589431E+02  0.00000000000E+00 0. -1.
         25    1    1    2    0    0 -0.66108291056E+01  0.79321558644E+02  0.85611745038E+03  0.86884849172E+03  0.12500000000E+03 0.  0.
          2    1    1    2  501    0 -0.16355214973E+02 -0.19625141284E+02 -0.15727668266E+02  0.29999979605E+02  0.00000000000E+00 0. -1.
          1    1    1    2  502    0  0.22966044078E+02 -0.59696417361E+02  0.59075944604E+03  0.59421193569E+03  0.00000000000E+00 0. -1.
<mgrwt>
<rscale>  0 0.41305875E+02</rscale>
<asrwt>0</asrwt>
<pdfrwt beam="1">  1        2 0.22493915E+00 0.66786252E+02</pdfrwt>
<pdfrwt beam="2">  1        1 0.47623995E-02 0.25546805E+02</pdfrwt>
<totfact> 0.30382863E+03</totfact>
</mgrwt>
</event>
<event>
 5    1  0.8891499E-003  0.4007856E+03  0.7546771E-02  0.1093333E+00
          1   -1    0    0  501    0 -0.00000000000E+00  0.00000000000E+00  0.21296390734E+03  0.21296390734E+03  0.00000000000E+00 0. -1.
          2   -1    0    0  502    0  0.00000000000E+00 -0.00000000000E+00 -0.39426755011E+04  0.39426755011E+04  0.00000000000E+00 0. -1.
         25    1    1    2    0    0 -0.15357897735E+03 -0.20447646134E+03 -0.46956320686E+03  0.54910083843E+03  0.12500000000E+03 0.  0.
          2    1    1    2  501    0 -0.11638794433E+03 -0.16479420856E+03  0.93127190153E+02  0.22220701678E+03  0.00000000000E+00 0. -1.
          1    1    1    2  502    0  0.26996692168E+03  0.36927066990E+03 -0.33532755770E+04  0.33843315532E+04  0.00000000000E+00 0. -1.
<mgrwt>
<rscale>  0 0.28435666E+03</rscale>
<asrwt>0</asrwt>
<pdfrwt beam="2">  1        2 0.60656546E+00 0.40078558E+03</pdfrwt>
<pdfrwt beam="1">  1        1 0.32763678E-01 0.20175055E+03</pdfrwt>
<totfact> 0.84889986E+00</totfact>
</mgrwt>
</event>
<event>
 5    1  0.8891499E-003  0.2066952E+03  0.7546771E-02  0.1294387E+00
          1   -1    0    0  501    0 -0.00000000000E+00  0.00000000000E+00  0.24743741134E+03  0.24743741134E+03  0.00000000000E+00 0. -1.
          2   -1    0    0  502    0  0.00000000000E+00 -0.00000000000E+00 -0.38978627638E+04  0.38978627638E+04  0.00000000000E+00 0. -1.
         25    1    1    2    0    0 -0.72750768424E+02 -0.23358485280E+03 -0.55839983359E+02  0.28035274478E+03  0.12500000000E+03 0.  0.
          2    1    1    2  501    0  0.26444338345E+02  0.33111736327E+02  0.12894871869E+03  0.13573305480E+03  0.00000000000E+00 0. -1.
          1    1    1    2  502    0  0.46306430079E+02  0.20047311648E+03 -0.37235340878E+04  0.37292143755E+04  0.00000000000E+00 0. -1.
<mgrwt>
<rscale>  0 0.93588609E+02</rscale>
<asrwt>0</asrwt>
<pdfrwt beam="2">  1        2 0.59967119E+00 0.20669515E+03</pdfrwt>
<pdfrwt beam="1">  1        1 0.38067294E-01 0.42375584E+02</pdfrwt>
<totfact> 0.84798746E+00</totfact>
</mgrwt>
</event>
<event>
 5    1  0.8891499E-003  0.1409134E+03  0.7546771E-02  0.1288219E+00
          1   -1    0    0  501    0 -0.00000000000E+00  0.00000000000E+00  0.37307647593E+03  0.37307647593E+03  0.00000000000E+00 0. -1.
          2   -1    0    0  502    0  0.00000000000E+00 -0.00000000000E+00 -0.49680360255E+03  0.49680360255E+03  0.00000000000E+00 0. -1.
         25    1    1    2    0    0 -0.22568665020E+02  0.15172734314E+03  0.17113748222E+01  0.19788496684E+03  0.12500000000E+03 0.  0.
          2    1    1    2  501    0 -0.41059661189E+02 -0.13478363392E+03  0.25207580030E+03  0.28878146209E+03  0.00000000000E+00 0. -1.
          1    1    1    2  502    0  0.63628326208E+02 -0.16943709222E+02 -0.37751430174E+03  0.38321364955E+03  0.00000000000E+00 0. -1.
<mgrwt>
<rscale>  0 0.96325160E+02</rscale>
<asrwt>0</asrwt>
<pdfrwt beam="2">  1        2 0.76431323E-01 0.65845677E+02</pdfrwt>
<pdfrwt beam="1">  1        1 0.57396381E-01 0.14091337E+03</pdfrwt>
<totfact> 0.58228642E+02</totfact>
</mgrwt>
</event>
<event>
 5    1  0.8891499E-003  0.1606694E+03  0.7546771E-02  0.1266875E+00
          2   -1    0    0  502    0  0.00000000000E+00  0.00000000000E+00  0.78085523149E+02  0.78085523149E+02  0.00000000000E+00 0. -1.
          1   -1    0    0  501    0 -0.00000000000E+00 -0.00000000000E+00 -0.24520989427E+04  0.24520989427E+04  0.00000000000E+00 0. -1.
         25    1    1    2    0    0  0.11941440388E+03 -0.84922602917E+02 -0.15450344696E+04  0.15569933078E+04  0.12500000000E+03 0.  0.
          2    1    1    2  501    0 -0.41385421715E+02 -0.57458909866E+02 -0.80612579829E+03  0.80922993155E+03  0.00000000000E+00 0. -1.
          1    1    1    2  502    0 -0.78028982169E+02  0.14238151278E+03 -0.22853151640E+02  0.16396122645E+03  0.00000000000E+00 0. -1.
<mgrwt>
<rscale>  0 0.10666420E+03</rscale>
<asrwt>0</asrwt>
<pdfrwt beam="1">  1        2 0.12013158E-01 0.16066936E+03</pdfrwt>
<pdfrwt beam="2">  1        1 0.37724597E+00 0.70811577E+02</pdfrwt>
<totfact> 0.13931661E+02</totfact>
</mgrwt>
</event>
<event>
 5    1  0.8891499E-003  0.5523165E+02  0.7546771E-02  0.1482015E+00
          2   -1    0    0  502    0  0.00000000000E+00  0.00000000000E+00  0.67426687349E+03  0.67426687349E+03  0.00000000000E+00 0. -1.
         -2   -1    0    0    0  501 -0.00000000000E+00 -0.00000000000E+00 -0.25245202296E+02  0.25245202296E+02  0.00000000000E+00 0.  1.
         25    1    1    2    0    0 -0.45890073580E+01 -0.42362769932E+02  0.29008475504E+03  0.31873159300E+03  0.12500000000E+03 0.  0.
          1    1    1    2  502    0 -0.34429076117E+02 -0.45213782540E+01  0.27410675354E+03  0.27629751443E+03  0.00000000000E+00 0. -1.
         -1    1    1    2    0  501  0.39018083475E+02  0.46884148186E+02  0.84830162612E+02  0.10448296836E+03  0.00000000000E+00 0.  1.
<mgrwt>
<rscale>  0 0.43793858E+02</rscale>
<asrwt>0</asrwt>
<pdfrwt beam="1">  1        2 0.10373335E+00 0.34724691E+02</pdfrwt>
<pdfrwt beam="2">  1       -2 0.38838778E-02 0.55231652E+02</pdfrwt>
<totfact> 0.11332664E+04</totfact>
</mgrwt>
</event>
<event>
 5    1  0.8891499E-003  0.9963330E+02  0.7546771E-02  0.1315792E+00
          2   -1    0    0  502    0  0.00000000000E+00  0.00000000000E+00  0.20269861159E+04  0.20269861159E+04  0.00000000000E+00 0. -1.
         -2   -1    0    0    0  501 -0.00000000000E+00 -0.00000000000E+00 -0.92046176490E+03  0.92046176490E+03  0.00000000000E+00 0.  1.
         25    1    1    2    0    0  0.11507253573E+03  0.16656665843E+02  0.20116886159E+03  0.26384283934E+03  0.12500000000E+03 0.  0.
          1    1    1    2  502    0 -0.86654441895E+02  0.49804337595E+02  0.17916160814E+04  0.17944017520E+04  0.00000000000E+00 0. -1.
         -1    1    1    2    0  501 -0.28418093839E+02 -0.66461003438E+02 -0.88626059202E+03  0.88920328947E+03  0.00000000000E+00 0.  1.
<mgrwt>
<rscale>  0 0.84862658E+02</rscale>
<asrwt>0</asrwt>
<pdfrwt beam="1">  1        2 0.31184402E+00 0.99633303E+02</pdfrwt>
<pdfrwt beam="2">  1       -2 0.14160950E+00 0.72281761E+02</pdfrwt>
<totfact> 0.31741015E+00</totfact>
</mgrwt>
</event>
<event>
 5    1  0.8891499E-003  0.3642541E+02  0.7546771E-02  0.1570817E+00
          1   -1    0    0  502    0  0.00000000000E+00  0.00000000000E+00  0.23723559114E+03  0.23723559114E+03  0.00000000000E+00 0. -1.
         -1   -1    0    0    0  501 -0.00000000000E+00 -0.00000000000E+00 -0.63567092418E+02  0.63567092418E+02  0.00000000000E+00 0.  1.
         25    1    1    2    0    0 -0.59438505538E+02  0.21002123519E+02  0.15498129099E+03  0.20884976823E+03  0.12500000000E+03 0.  0.
          2    1    1    2  502    0  0.24821615673E+02 -0.15400797515E+02  0.41034867596E+02  0.50370204758E+02  0.00000000000E+00 0. -1.
         -2    1    1    2    0  501  0.34616889866E+02 -0.56013260038E+01 -0.22347659863E+02  0.41582710570E+02  0.00000000000E+00 0.  1.
<mgrwt>
<rscale>  0 0.32619498E+02</rscale>
<asrwt>0</asrwt>
<pdfrwt beam="1">  1        1 0.36497783E-01 0.29211251E+02</pdfrwt>
<pdfrwt beam="2">  1       -1 0.97795528E-02 0.36425405E+02</pdfrwt>
<totfact> 0.62861332E+03</totfact>
</mgrwt>
</event>
<event>
 5    1  0.8891499E-003  0.7705843E+02  0.7546771E-02  0.1387513E+00
          1   -1    0    0  502    0  0.00000000000E+00  0.00000000000E+00  0.32246795202E+04  0.32246795202E+04  0.00000000000E+00 0. -1.
         -1   -1    0    0    0  501 -0.00000000000E+00 -0.00000000000E+00 -0.40082914558E+03  0.40082914558E+03  0.00000000000E+00 0.  1.
         25    1    1    2    0    0  0.34240952748E+02  0.74548933788E+02  0.34870539102E+02  0.15352830642E+03  0.12500000000E+03 0.  0.
          2    1    1    2  502    0  0.33993361935E+02 -0.37669560981E+02  0.31258674443E+04  0.31262792300E+04  0.00000000000E+00 0. -1.
         -2    1    1    2    0  501 -0.68234314684E+02 -0.36879372807E+02 -0.33688760883E+03  0.34570112934E+03  0.00000000000E+00 0.  1.
<mgrwt>
<rscale>  0 0.62529533E+02</rscale>
<asrwt>0</asrwt>
<pdfrwt beam="1">  1        1 0.49610452E+00 0.50739969E+02</pdfrwt>
<pdfrwt beam="2">  1       -1 0.61666025E-01 0.77058433E+02</pdfrwt>
<totfact> 0.19395270E+00</totfact>
</mgrwt>
</event>
<event>
 5    1  0.8891499E-003  0.9353596E+02  0.7546771E-02  0.1295623E+00
          2   -1    0    0  502    0  0.00000000000E+00  0.00000000000E+00  0.22588850669E+04  0.22588850669E+04  0.00000000000E+00 0. -1.
          1   -1    0    0  501    0 -0.00000000000E+00 -0.00000000000E+00 -0.34704249934E+03  0.34704249934E+03  0.00000000000E+00 0. -1.
         25    1    1    2    0    0  0.10558294400E+03 -0.70458921192E+02 -0.22760094690E+03  0.28903184716E+03  0.12500000000E+03 0.  0.
          2    1    1    2  501    0 -0.14406637494E+02  0.91443889294E+02 -0.63313739432E+02  0.11215242170E+03  0.00000000000E+00 0. -1.
          1    1    1    2  502    0 -0.91176306505E+02 -0.20984968101E+02  0.22027572538E+04  0.22047432973E+04  0.00000000000E+00 0. -1.
<mgrwt>
<rscale>  0 0.93052628E+02</rscale>
<asrwt>0</asrwt>
<pdfrwt beam="1">  1        2 0.34752077E+00 0.93535965E+02</pdfrwt>
<pdfrwt beam="2">  1        1 0.53391155E-01 0.92571789E+02</pdfrwt>
<totfact> 0.61637991E+01</totfact>
</mgrwt>
</event>
<event>
 5    1  0.8891499E-003  0.1246598E+03  0.7546771E-02  0.1300105E+00
          1   -1    0    0  502    0  0.00000000000E+00  0.00000000000E+00  0.41631287703E+04  0.41631287703E+04  0.00000000000E+00 0. -1.
         -1   -1    0    0    0  501 -0.00000000000E+00 -0.00000000000E+00 -0.25201713881E+02  0.25201713881E+02  0.00000000000E+00 0.  1.
         25    1    1    2    0    0 -0.70871320329E+02  0.44137623018E+02  0.18646038065E+04  0.18706531557E+04  0.12500000000E+03 0.  0.
          2    1    1    2  502    0  0.30755603170E+01  0.66568249469E+02  0.21003627638E+04  0.21014196464E+04  0.00000000000E+00 0. -1.
         -2    1    1    2    0  501  0.67795760012E+02 -0.11070587249E+03  0.17296048622E+03  0.21625768211E+03  0.00000000000E+00 0.  1.
<mgrwt>
<rscale>  0 0.91144046E+02</rscale>
<asrwt>0</asrwt>
<pdfrwt beam="1">  1        1 0.64048080E+00 0.66639260E+02</pdfrwt>
<pdfrwt beam="2">  1       -1 0.38771901E-02 0.12465981E+03</pdfrwt>
<totfact> 0.29751014E+01</totfact>
</mgrwt>
</event>
<event>
 5    1  0.8891499E-003  0.1481288E+03  0.7546771E-02  0.1347858E+00
          2   -1    0    0  502    0  0.00000000000E+00  0.00000000000E+00  0.62421426895E+03  0.62421426895E+03  0.00000000000E+00 0. -1.
          1   -1    0    0  501    0 -0.00000000000E+00 -0.00000000000E+00 -0.65004043917E+03  0.65004043917E+03  0.00000000000E+00 0. -1.
         25    1    1    2    0    0 -0.65589739188E+01 -0.11862880645E+03 -0.17999383898E+02  0.17339201734E+03  0.12500000000E+03 0.  0.
          2    1    1    2  501    0 -0.89070771219E+01  0.15190638664E+03 -0.54326243533E+03  0.56417103787E+03  0.00000000000E+00 0. -1.
          1    1    1    2  502    0  0.15466051041E+02 -0.33277580190E+02  0.53543564900E+03  0.53669165291E+03  0.00000000000E+00 0. -1.
<mgrwt>
<rscale>  0 0.73727418E+02</rscale>
<asrwt>0</asrwt>
<pdfrwt beam="1">  1        2 0.96032965E-01 0.36695995E+02</pdfrwt>
<pdfrwt beam="2">  1        1 0.10000622E+00 0.14812876E+03</pdfrwt>
<totfact> 0.22219020E+02</totfact>
</mgrwt>
</event>
<event>
 5    1  0.8891499E-003  0.7437722E+02  0.7546771E-02  0.1370862E+00
          2   -1    0    0  502    0  0.00000000000E+00  0.00000000000E+00  0.11169063526E+04  0.11169063526E+04  0.00000000000E+00 0. -1.
          1   -1    0    0  501    0 -0.00000000000E+00 -0.00000000000E+00 -0.15603723614E+03  0.15603723614E+03  0.00000000000E+00 0. -1.
         25    1    1    2    0    0  0.88699177390E+02  0.83761653492E+02  0.46574173233E+03  0.49741724930E+03  0.12500000000E+03 0.  0.
          2    1    1    2  501    0 -0.55713502709E+02 -0.22870208538E+02 -0.13173582928E+03  0.14484947200E+03  0.00000000000E+00 0. -1.
          1    1    1    2  502    0 -0.32985674681E+02 -0.60891444954E+02  0.62686321341E+03  0.63067686745E+03  0.00000000000E+00 0. -1.
<mgrwt>
<rscale>  0 0.66928035E+02</rscale>
<asrwt>0</asrwt>
<pdfrwt beam="1">  1        2 0.17183174E+00 0.74377217E+02</pdfrwt>
<pdfrwt beam="2">  1        1 0.24005729E-01 0.60224919E+02</pdfrwt>
<totfact> 0.63501412E+02</totfact>
</mgrwt>
</event>
<event>
 5    1  0.8891499E-003  0.1471252E+03  0.7546771E-02  0.1254205E+00
          1   -1    0    0  501    0 -0.00000000000E+00  0.00000000000E+00  0.10639853758E+04  0.10639853758E+04  0.00000000000E+00 0. -1.
          2   -1    0    0  502    0  0.00000000000E+00 -0.00000000000E+00 -0.46949553417E+03  0.46949553417E+03  0.00000000000E+00 0. -1.
         25    1    1    2    0    0 -0.88597517158E+02 -0.16353057046E+03  0.21476135627E+03  0.31038557903E+03  0.12500000000E+03 0.  0.
          2    1    1    2  501    0  0.85835989129E+02  0.17363372183E+02  0.78623641368E+03  0.79109860442E+03  0.00000000000E+00 0. -1.
          3    1    1    2  502    0  0.27615280291E+01  0.14616719828E+03 -0.40650792835E+03  0.43199672649E+03  0.00000000000E+00 0. -1.
<mgrwt>
<rscale>  0 0.11350957E+03</rscale>
<asrwt>0</asrwt>
<pdfrwt beam="2">  1        2 0.72230082E-01 0.14712517E+03</pdfrwt>
<pdfrwt beam="1">  1        1 0.16369006E+00 0.87574561E+02</pdfrwt>
<totfact> 0.14262925E+02</totfact>
</mgrwt>
</event>
<event>
 5    1  0.8891499E-003  0.8769882E+02  0.7546771E-02  0.1417900E+00
          2   -1    0    0  502    0  0.00000000000E+00  0.00000000000E+00  0.46933081007E+03  0.46933081007E+03  0.00000000000E+00 0. -1.
         -2   -1    0    0    0  501 -0.00000000000E+00 -0.00000000000E+00 -0.16278802890E+03  0.16278802890E+03  0.00000000000E+00 0.  1.
         25    1    1    2    0    0 -0.22044602642E+02 -0.99187675944E+02  0.22914457277E+03  0.28010068689E+03  0.12500000000E+03 0.  0.
          1    1    1    2  502    0  0.32738373843E+02  0.12608114752E+02  0.19916239841E+03  0.20222864936E+03  0.00000000000E+00 0. -1.
         -1    1    1    2    0  501 -0.10693771201E+02  0.86579561193E+02 -0.12176419001E+03  0.14978950273E+03  0.00000000000E+00 0.  1.
<mgrwt>
<rscale>  0 0.55467773E+02</rscale>
<asrwt>0</asrwt>
<pdfrwt beam="1">  1        2 0.72204740E-01 0.35082270E+02</pdfrwt>
<pdfrwt beam="2">  1       -2 0.25044312E-01 0.87698824E+02</pdfrwt>
<totfact> 0.94456636E+02</totfact>
</mgrwt>
</event>
<event>
 5    1  0.8891499E-003  0.8363772E+02  0.7546771E-02  0.1431408E+00
         -2   -1    0    0    0  501  0.00000000000E+00  0.00000000000E+00  0.11378913968E+03  0.11378913968E+03  0.00000000000E+00 0.  1.
         -1   -1    0    0    0  502 -0.00000000000E+00 -0.00000000000E+00 -0.38284300058E+03  0.38284300058E+03  0.00000000000E+00 0.  1.
         25    1    1    2    0    0  0.60054935209E+02  0.55566003078E+02 -0.21368483462E+02  0.15091649355E+03  0.12500000000E+03 0.  0.
         -2    1    1    2    0  502  0.21055719465E+02 -0.25641891481E+02 -0.25666076432E+03  0.25879644097E+03  0.00000000000E+00 0.  1.
         -1    1    1    2    0  501 -0.81110654674E+02 -0.29924111597E+02  0.89753868798E+01  0.86919205738E+02  0.00000000000E+00 0.  1.
<mgrwt>
<rscale>  0 0.52678467E+02</rscale>
<asrwt>0</asrwt>
<pdfrwt beam="1">  1       -2 0.17506022E-01 0.83637723E+02</pdfrwt>
<pdfrwt beam="2">  1       -1 0.58898923E-01 0.33179058E+02</pdfrwt>
<totfact> 0.57880112E+02</totfact>
</mgrwt>
</event>
<event>
 5    1  0.8891499E-003  0.1096162E+03  0.7546771E-02  0.1445946E+00
          2   -1    0    0  502    0  0.00000000000E+00  0.00000000000E+00  0.53509530593E+02  0.53509530593E+02  0.00000000000E+00 0. -1.
          1   -1    0    0  501    0 -0.00000000000E+00 -0.00000000000E+00 -0.10855272014E+04  0.10855272014E+04  0.00000000000E+00 0. -1.
         25    1    1    2    0    0 -0.87525916057E+02 -0.95152723899E+02 -0.48795870012E+03  0.52004184434E+03  0.12500000000E+03 0.  0.
          2    1    1    2  501    0  0.16399278604E+02  0.15702708134E+02 -0.50487807350E+03  0.50538834621E+03  0.00000000000E+00 0. -1.
          1    1    1    2  502    0  0.71126637452E+02  0.79450015765E+02 -0.39180897231E+02  0.11360654148E+03  0.00000000000E+00 0. -1.
<mgrwt>
<rscale>  0 0.49888102E+02</rscale>
<asrwt>0</asrwt>
<pdfrwt beam="1">  1        2 0.82322359E-02 0.10961622E+03</pdfrwt>
<pdfrwt beam="2">  1        1 0.16700418E+00 0.22704876E+02</pdfrwt>
<totfact> 0.17367576E+03</totfact>
</mgrwt>
</event>
<event>
 5    1  0.1091009E-002  0.7067227E+02  0.7546771E-02  0.1406819E+00
          1   -1    0    0  501    0 -0.00000000000E+00  0.00000000000E+00  0.10430891578E+04  0.10430891578E+04  0.00000000000E+00 0. -1.
          2   -1    0    0  502    0  0.00000000000E+00 -0.00000000000E+00 -0.30434995957E+04  0.30434995957E+04  0.00000000000E+00 0. -1.
         25    1    1    2    0    0 -0.97490175525E+02  0.39135202269E+02  0.46244731945E+03  0.49042677501E+03  0.12500000000E+03 0.  0.
          2    1    1    2  501    0  0.46447782594E+02  0.97111378018E+01  0.56524593938E+03  0.56723423265E+03  0.00000000000E+00 0. -1.
          1    1    1    2  502    0  0.51042392932E+02 -0.48846340070E+02 -0.30281036967E+04  0.30289277458E+04  0.00000000000E+00 0. -1.
<mgrwt>
<rscale>  0 0.57909829E+02</rscale>
<asrwt>0</asrwt>
<pdfrwt beam="2">  1        2 0.46823070E+00 0.70672270E+02</pdfrwt>
<pdfrwt beam="1">  1        1 0.16047526E+00 0.47452110E+02</pdfrwt>
<totfact> 0.55857919E+00</totfact>
</mgrwt>
</event>
<event>
 5    1  0.8891499E-003  0.1017817E+03  0.7546771E-02  0.1398347E+00
          1   -1    0    0  501    0 -0.00000000000E+00  0.00000000000E+00  0.16111093982E+03  0.16111093982E+03  0.00000000000E+00 0. -1.
          2   -1    0    0  502    0  0.00000000000E+00 -0.00000000000E+00 -0.21616024426E+04  0.21616024426E+04  0.00000000000E+00 0. -1.
         25    1    1    2    0    0 -0.40711557144E+02  0.61254766134E+02 -0.12805596285E+03  0.19347585607E+03  0.12500000000E+03 0.  0.
          2    1    1    2  501    0 -0.33826477371E+02  0.98283498381E+01  0.12463268380E+03  0.12951499104E+03  0.00000000000E+00 0. -1.
          1    1    1    2  502    0  0.74538034516E+02 -0.71083115972E+02 -0.19970682237E+04  0.19997225353E+04  0.00000000000E+00 0. -1.
<mgrwt>
<rscale>  0 0.59877357E+02</rscale>
<asrwt>0</asrwt>
<pdfrwt beam="2">  1        2 0.33255423E+00 0.10178168E+03</pdfrwt>
<pdfrwt beam="1">  1        1 0.24786298E-01 0.35225375E+02</pdfrwt>
<totfact> 0.16996409E+02</totfact>
</mgrwt>
</event>
<event>
 5    1  0.8891499E-003  0.4930106E+02  0.7546771E-02  0.1513107E+00
         -2   -1    0    0    0  501 -0.00000000000E+00  0.00000000000E+00  0.17740862013E+03  0.17740862013E+03  0.00000000000E+00 0.  1.
          2   -1    0    0  502    0  0.00000000000E+00 -0.00000000000E+00 -0.99106662310E+02  0.99106662310E+02  0.00000000000E+00 0. -1.
         25    1    1    2    0    0  0.71756495262E+02 -0.15992382351E+02  0.23485682866E+01  0.14503539802E+03  0.12500000000E+03 0.  0.
          3    1    1    2  502    0 -0.43153802476E+02  0.30480015362E+01 -0.60403802016E+01  0.43680970393E+02  0.00000000000E+00 0. -1.
         -1    1    1    2    0  501 -0.28602692786E+02  0.12944380814E+02  0.81993769737E+02  0.87798914031E+02  0.00000000000E+00 0.  1.
<mgrwt>
<rscale>  0 0.39342424E+02</rscale>
<asrwt>0</asrwt>
<pdfrwt beam="2">  1        2 0.15247179E-01 0.49301057E+02</pdfrwt>
<pdfrwt beam="1">  1       -2 0.27293634E-01 0.31395398E+02</pdfrwt>
<totfact> 0.40260751E+03</totfact>
</mgrwt>
</event>
<event>
 5    1  0.8891499E-003  0.4496250E+03  0.7546771E-02  0.1225251E+00
          2   -1    0    0  502    0  0.00000000000E+00  0.00000000000E+00  0.12920178966E+04  0.12920178966E+04  0.00000000000E+00 0. -1.
          1   -1    0    0  501    0 -0.00000000000E+00 -0.00000000000E+00 -0.23359832564E+04  0.23359832564E+04  0.00000000000E+00 0. -1.
         25    1    1    2    0    0  0.40423881747E+03 -0.27032662750E+03  0.66804370392E+03  0.83569904717E+03  0.12500000000E+03 0.  0.
          2    1    1    2  501    0 -0.37669584408E+03  0.24348661550E+03 -0.22291018837E+04  0.22737811457E+04  0.00000000000E+00 0. -1.
          1    1    1    2  502    0 -0.27542973399E+02  0.26840012001E+02  0.51709281996E+03  0.51852096011E+03  0.00000000000E+00 0. -1.
<mgrwt>
<rscale>  0 0.13149746E+03</rscale>
<asrwt>0</asrwt>
<pdfrwt beam="1">  1        2 0.19877199E+00 0.38457790E+02</pdfrwt>
<pdfrwt beam="2">  1        1 0.35938204E+00 0.44962497E+03</pdfrwt>
<totfact> 0.53616434E+00</totfact>
</mgrwt>
</event>
<event>
 5    1  0.8891499E-003  0.3869094E+02  0.7546771E-02  0.1525795E+00
         -2   -1    0    0    0  501 -0.00000000000E+00  0.00000000000E+00  0.81350606264E+03  0.81350606264E+03  0.00000000000E+00 0.  1.
          2   -1    0    0  502    0  0.00000000000E+00 -0.00000000000E+00 -0.14410987747E+02  0.14410987747E+02  0.00000000000E+00 0. -1.
         25    1    1    2    0    0 -0.13201634085E+02  0.15361639529E+02  0.40883716384E+03  0.42799893650E+03  0.12500000000E+03 0.  0.
          3    1    1    2  502    0 -0.25779962659E+02 -0.28851041089E+02  0.10925197804E+03  0.11590074958E+03  0.00000000000E+00 0. -1.
         -3    1    1    2    0  501  0.38981596744E+02  0.13489401561E+02  0.28100593301E+03  0.28401736431E+03  0.00000000000E+00 0.  1.
<mgrwt>
<rscale>  0 0.37707252E+02</rscale>
<asrwt>0</asrwt>
<pdfrwt beam="2">  1        2 0.22170757E-02 0.38690943E+02</pdfrwt>
<pdfrwt beam="1">  1       -2 0.12515474E+00 0.36748571E+02</pdfrwt>
<totfact> 0.20151988E+03</totfact>
</mgrwt>
</event>
<event>
 5    1  0.8891499E-003  0.3920252E+02  0.7546771E-02  0.1530305E+00
         -1   -1    0    0    0  502 -0.00000000000E+00  0.00000000000E+00  0.38513461168E+02  0.38513461168E+02  0.00000000000E+00 0.  1.
         -2   -1    0    0    0  501  0.00000000000E+00 -0.00000000000E+00 -0.52856586357E+03  0.52856586357E+03  0.00000000000E+00 0.  1.
         25    1    1    2    0    0 -0.14709417323E+02 -0.20881106618E+01 -0.12705256126E+03  0.17885211905E+03  0.12500000000E+03 0.  0.
         -2    1    1    2    0  502  0.22287932874E+02 -0.36374903954E+02 -0.28196104629E+02  0.51136150674E+02  0.00000000000E+00 0.  1.
         -1    1    1    2    0  501 -0.75785155508E+01  0.38463014616E+02 -0.33480373651E+03  0.33709105502E+03  0.00000000000E+00 0.  1.
<mgrwt>
<rscale>  0 0.37149041E+02</rscale>
<asrwt>0</asrwt>
<pdfrwt beam="2">  1       -2 0.81317822E-01 0.39202518E+02</pdfrwt>
<pdfrwt beam="1">  1       -1 0.59251481E-02 0.35203128E+02</pdfrwt>
<totfact> 0.11907266E+03</totfact>
</mgrwt>
</event>
<event>
 5    1  0.8891499E-003  0.5634464E+02  0.7546771E-02  0.1443765E+00
          2   -1    0    0  502    0  0.00000000000E+00  0.00000000000E+00  0.85023347058E+03  0.85023347058E+03  0.00000000000E+00 0. -1.
         -2   -1    0    0    0  501 -0.00000000000E+00 -0.00000000000E+00 -0.13096897131E+04  0.13096897131E+04  0.00000000000E+00 0.  1.
         25    1    1    2    0    0 -0.28936735120E+02  0.78341848808E+02  0.29484264290E+02  0.15319628506E+03  0.12500000000E+03 0.  0.
          1    1    1    2  502    0  0.38587079827E+02 -0.22942330618E+02  0.75759485942E+03  0.75892376711E+03  0.00000000000E+00 0. -1.
         -1    1    1    2    0  501 -0.96503447074E+01 -0.55399518190E+02 -0.12465353662E+04  0.12478031315E+04  0.00000000000E+00 0.  1.
<mgrwt>
<rscale>  0 0.50293508E+02</rscale>
<asrwt>0</asrwt>
<pdfrwt beam="1">  1        2 0.13080515E+00 0.44892241E+02</pdfrwt>
<pdfrwt beam="2">  1       -2 0.20149072E+00 0.56344635E+02</pdfrwt>
<totfact> 0.56278996E+00</totfact>
</mgrwt>
</event>
<event>
 5    1  0.8891499E-003  0.6860537E+02  0.7546771E-02  0.1460715E+00
          1   -1    0    0  501    0 -0.00000000000E+00  0.00000000000E+00  0.68331008850E+02  0.68331008850E+02  0.00000000000E+00 0. -1.
          2   -1    0    0  502    0  0.00000000000E+00 -0.00000000000E+00 -0.16569702049E+04  0.16569702049E+04  0.00000000000E+00 0. -1.
         25    1    1    2    0    0 -0.20129010776E+00 -0.91581784149E+02 -0.83377242312E+03  0.84804994974E+03  0.12500000000E+03 0.  0.
          2    1    1    2  501    0  0.19454438538E+02  0.65331455509E+02  0.41772197184E+02  0.79947424695E+02  0.00000000000E+00 0. -1.
          1    1    1    2  502    0 -0.19253148431E+02  0.26250328640E+02 -0.79663897015E+03  0.79730383935E+03  0.00000000000E+00 0. -1.
<mgrwt>
<rscale>  0 0.47258649E+02</rscale>
<asrwt>0</asrwt>
<pdfrwt beam="2">  1        2 0.25491850E+00 0.32554009E+02</pdfrwt>
<pdfrwt beam="1">  1        1 0.10512463E-01 0.68605372E+02</pdfrwt>
<totfact> 0.10287655E+03</totfact>
</mgrwt>
</event>
<event>
 5    1  0.8891499E-003  0.1051918E+03  0.7546771E-02  0.1328947E+00
          2   -1    0    0  502    0  0.00000000000E+00  0.00000000000E+00  0.10558527122E+04  0.10558527122E+04  0.00000000000E+00 0. -1.
          1   -1    0    0  501    0 -0.00000000000E+00 -0.00000000000E+00 -0.57259744051E+02  0.57259744051E+02  0.00000000000E+00 0. -1.
         25    1    1    2    0    0  0.87239602029E+02  0.10868968383E+03  0.36137352408E+03  0.40698896722E+03  0.12500000000E+03 0.  0.
          2    1    1    2  501    0 -0.87961257817E+02 -0.47796804607E+02  0.43268871984E+02  0.10905921644E+03  0.00000000000E+00 0. -1.
          1    1    1    2  502    0  0.72165578779E+00 -0.60892879223E+02  0.59395057209E+03  0.59706427259E+03  0.00000000000E+00 0. -1.
<mgrwt>
<rscale>  0 0.80036733E+02</rscale>
<asrwt>0</asrwt>
<pdfrwt beam="1">  1        2 0.16243886E+00 0.60897155E+02</pdfrwt>
<pdfrwt beam="2">  1        1 0.88091922E-02 0.10519175E+03</pdfrwt>
<totfact> 0.25645224E+03</totfact>
</mgrwt>
</event>
<event>
 5    1  0.8891499E-003  0.8029820E+02  0.7546771E-02  0.1375367E+00
          2   -1    0    0  502    0  0.00000000000E+00  0.00000000000E+00  0.44880509756E+03  0.44880509756E+03  0.00000000000E+00 0. -1.
          1   -1    0    0  501    0 -0.00000000000E+00 -0.00000000000E+00 -0.51811433005E+03  0.51811433005E+03  0.00000000000E+00 0. -1.
         25    1    1    2    0    0  0.54088607140E+01  0.83317679010E+02  0.11388697261E+03  0.18859038666E+03  0.12500000000E+03 0.  0.
          2    1    1    2  501    0 -0.53841612935E+02 -0.60004992776E+02 -0.47491007681E+03  0.48170436940E+03  0.00000000000E+00 0. -1.
          1    1    1    2  502    0  0.48432752221E+02 -0.23312686234E+02  0.29171387171E+03  0.29662467155E+03  0.00000000000E+00 0. -1.
<mgrwt>
<rscale>  0 0.65697339E+02</rscale>
<asrwt>0</asrwt>
<pdfrwt beam="1">  1        2 0.69046938E-01 0.53751398E+02</pdfrwt>
<pdfrwt beam="2">  1        1 0.79709897E-01 0.80298197E+02</pdfrwt>
<totfact> 0.43254585E+02</totfact>
</mgrwt>
</event>
<event>
 5    1  0.8891499E-003  0.1007066E+03  0.7546771E-02  0.1347590E+00
          2   -1    0    0  502    0  0.00000000000E+00  0.00000000000E+00  0.38663235692E+03  0.38663235692E+03  0.00000000000E+00 0. -1.
          1   -1    0    0  501    0 -0.00000000000E+00 -0.00000000000E+00 -0.31359836468E+04  0.31359836468E+04  0.00000000000E+00 0. -1.
         25    1    1    2    0    0  0.10913502847E+01  0.49577984237E+02 -0.56596443538E+03  0.58172150526E+03  0.12500000000E+03 0.  0.
          2    1    1    2  501    0  0.23548999547E+02  0.48705514942E+02 -0.25550725190E+04  0.25556451944E+04  0.00000000000E+00 0. -1.
          1    1    1    2  502    0 -0.24640349832E+02 -0.98283499180E+02  0.37168566449E+03  0.38524930401E+03  0.00000000000E+00 0. -1.
<mgrwt>
<rscale>  0 0.73811921E+02</rscale>
<asrwt>0</asrwt>
<pdfrwt beam="1">  1        2 0.59481900E-01 0.10070656E+03</pdfrwt>
<pdfrwt beam="2">  1        1 0.48245903E+00 0.54099746E+02</pdfrwt>
<totfact> 0.87729286E+00</totfact>
</mgrwt>
</event>
<event>
 5    1  0.8891499E-003  0.1032260E+03  0.7546771E-02  0.1273822E+00
          2   -1    0    0  502    0  0.00000000000E+00  0.00000000000E+00  0.23534183334E+03  0.23534183334E+03  0.00000000000E+00 0. -1.
          1   -1    0    0  501    0 -0.00000000000E+00 -0.00000000000E+00 -0.16998153023E+04  0.16998153023E+04  0.00000000000E+00 0. -1.
         25    1    1    2    0    0  0.22456402633E+02  0.13530109217E+02 -0.43628690009E+03  0.45459719870E+03  0.12500000000E+03 0.  0.
          2    1    1    2  501    0 -0.55743622703E+02  0.86880695568E+02 -0.12397412786E+04  0.12440313680E+04  0.00000000000E+00 0. -1.
          1    1    1    2  502    0  0.33287220070E+02 -0.10041080479E+03  0.21155470970E+03  0.23652856896E+03  0.00000000000E+00 0. -1.
<mgrwt>
<rscale>  0 0.10314289E+03</rscale>
<asrwt>0</asrwt>
<pdfrwt beam="1">  1        2 0.36206436E-01 0.10305985E+03</pdfrwt>
<pdfrwt beam="2">  1        1 0.26151005E+00 0.10322600E+03</pdfrwt>
<totfact> 0.11218944E+02</totfact>
</mgrwt>
</event>
<event>
 5    1  0.8891499E-003  0.7005734E+02  0.7546771E-02  0.1369906E+00
          1   -1    0    0  501    0 -0.00000000000E+00  0.00000000000E+00  0.19113243171E+04  0.19113243171E+04  0.00000000000E+00 0. -1.
          2   -1    0    0  502    0  0.00000000000E+00 -0.00000000000E+00 -0.27346302831E+03  0.27346302831E+03  0.00000000000E+00 0. -1.
         25    1    1    2    0    0  0.99863577715E+01  0.33228681183E+02  0.80038549453E+03  0.81083032284E+03  0.12500000000E+03 0.  0.
          2    1    1    2  501    0 -0.74198891319E+02 -0.38714437289E+02  0.11002331764E+04  0.11034116754E+04  0.00000000000E+00 0. -1.
          1    1    1    2  502    0  0.64212533548E+02  0.54857561058E+01 -0.26275738212E+03  0.27054534711E+03  0.00000000000E+00 0. -1.
<mgrwt>
<rscale>  0 0.67193344E+02</rscale>
<asrwt>0</asrwt>
<pdfrwt beam="2">  1        2 0.42071236E-01 0.64446435E+02</pdfrwt>
<pdfrwt beam="1">  1        1 0.29404989E+00 0.70057335E+02</pdfrwt>
<totfact> 0.73444740E+01</totfact>
</mgrwt>
</event>
<event>
 5    1  0.8891499E-003  0.7710728E+02  0.7546771E-02  0.1410307E+00
          2   -1    0    0  502    0  0.00000000000E+00  0.00000000000E+00  0.24461898333E+03  0.24461898333E+03  0.00000000000E+00 0. -1.
          1   -1    0    0  501    0 -0.00000000000E+00 -0.00000000000E+00 -0.20650351584E+04  0.20650351584E+04  0.00000000000E+00 0. -1.
         25    1    1    2    0    0  0.80469277317E+02  0.75217593872E+02 -0.42204560504E+03  0.45374054674E+03  0.12500000000E+03 0.  0.
          2    1    1    2  501    0 -0.12059455789E+02 -0.40567156002E+02 -0.16204317915E+04  0.16209843662E+04  0.00000000000E+00 0. -1.
          1    1    1    2  502    0 -0.68409821528E+02 -0.34650437869E+02  0.22206122139E+03  0.23492922886E+03  0.00000000000E+00 0. -1.
<mgrwt>
<rscale>  0 0.57125387E+02</rscale>
<asrwt>0</asrwt>
<pdfrwt beam="1">  1        2 0.37633690E-01 0.77107285E+02</pdfrwt>
<pdfrwt beam="2">  1        1 0.31769771E+00 0.42321680E+02</pdfrwt>
<totfact> 0.71122068E+01</totfact>
</mgrwt>
</event>
<event>
 5    1  0.8891499E-003  0.6512469E+02  0.7546771E-02  0.1455696E+00
          1   -1    0    0  501    0 -0.00000000000E+00  0.00000000000E+00  0.91889392514E+03  0.91889392514E+03  0.00000000000E+00 0. -1.
          2   -1    0    0  502    0  0.00000000000E+00 -0.00000000000E+00 -0.48504916073E+03  0.48504916073E+03  0.00000000000E+00 0. -1.
         25    1    1    2    0    0 -0.57493882093E+02  0.40406332546E+02  0.26223427189E+03  0.29888130009E+03  0.12500000000E+03 0.  0.
          2    1    1    2  501    0  0.30215958447E+02  0.18768566409E+02  0.63556218443E+03  0.63655679519E+03  0.00000000000E+00 0. -1.
          1    1    1    2  502    0  0.27277923647E+02 -0.59174898955E+02 -0.46395169191E+03  0.46850499059E+03  0.00000000000E+00 0. -1.
<mgrwt>
<rscale>  0 0.48130243E+02</rscale>
<asrwt>0</asrwt>
<pdfrwt beam="2">  1        2 0.74622948E-01 0.65124689E+02</pdfrwt>
<pdfrwt beam="1">  1        1 0.14136830E+00 0.35570539E+02</pdfrwt>
<totfact> 0.18700001E+02</totfact>
</mgrwt>
</event>
<event>
 5    1  0.8891499E-003  0.7551903E+02  0.7546771E-02  0.1405288E+00
         -2   -1    0    0    0  501 -0.00000000000E+00  0.00000000000E+00  0.46537019205E+03  0.46537019205E+03  0.00000000000E+00 0.  1.
          2   -1    0    0  502    0  0.00000000000E+00 -0.00000000000E+00 -0.40411838805E+02  0.40411838805E+02  0.00000000000E+00 0. -1.
         25    1    1    2    0    0 -0.30184807547E+02  0.78319987035E+02  0.21704608118E+03  0.26415742339E+03  0.12500000000E+03 0.  0.
          1    1    1    2  502    0 -0.30315165520E+02 -0.33179543134E+02  0.10300392508E+03  0.11238193772E+03  0.00000000000E+00 0.  1.
         -1    1    1    2    0  501  0.60499973067E+02 -0.45140443901E+02  0.10490834698E+03  0.12924266974E+03  0.00000000000E+00 0. -1.
<mgrwt>
<rscale>  0 0.58258621E+02</rscale>
<asrwt>0</asrwt>
<pdfrwt beam="2">  1        2 0.62172063E-02 0.44943201E+02</pdfrwt>
<pdfrwt beam="1">  1       -2 0.71595410E-01 0.75519029E+02</pdfrwt>
<totfact> 0.18892690E+03</totfact>
</mgrwt>
</event>
<event>
 5    1  0.8891499E-003  0.9482154E+02  0.7546771E-02  0.1356006E+00
         -2   -1    0    0    0  501 -0.00000000000E+00  0.00000000000E+00  0.34192579133E+03  0.34192579133E+03  0.00000000000E+00 0.  1.
          2   -1    0    0  502    0  0.00000000000E+00 -0.00000000000E+00 -0.52784062665E+03  0.52784062665E+03  0.00000000000E+00 0. -1.
         25    1    1    2    0    0  0.72249859778E+02  0.13785310912E+02  0.24719465212E+03  0.28660124401E+03  0.12500000000E+03 0.  0.
          1    1    1    2  502    0 -0.87758265288E+02  0.37403983246E+02 -0.49341789354E+03  0.50255525940E+03  0.00000000000E+00 0. -1.
         -1    1    1    2    0  501  0.15508405510E+02 -0.51189294158E+02  0.60308406103E+02  0.80609914555E+02  0.00000000000E+00 0.  1.
<mgrwt>
<rscale>  0 0.71215979E+02</rscale>
<asrwt>0</asrwt>
<pdfrwt beam="2">  1        2 0.81206250E-01 0.94821541E+02</pdfrwt>
<pdfrwt beam="1">  1       -2 0.52603968E-01 0.53486956E+02</pdfrwt>
<totfact> 0.20922169E+02</totfact>
</mgrwt>
</event>
<event>
 5    1  0.8891499E-003  0.8827265E+02  0.7546771E-02  0.1308767E+00
          1   -1    0    0  501    0 -0.00000000000E+00  0.00000000000E+00  0.10531385540E+04  0.10531385540E+04  0.00000000000E+00 0. -1.
          2   -1    0    0  502    0  0.00000000000E+00 -0.00000000000E+00 -0.27655021504E+03  0.27655021504E+03  0.00000000000E+00 0. -1.
         25    1    1    2    0    0  0.30267661121E+02  0.42835174686E+02  0.14301449689E+03  0.19705108429E+03  0.12500000000E+03 0.  0.
          2    1    1    2  501    0 -0.82804604703E+02  0.30585258611E+02  0.87263961685E+03  0.87709290358E+03  0.00000000000E+00 0. -1.
          1    1    1    2  502    0  0.52536943583E+02 -0.73420433297E+02 -0.23906577482E+03  0.25554478112E+03  0.00000000000E+00 0. -1.
<mgrwt>
<rscale>  0 0.87601085E+02</rscale>
<asrwt>0</asrwt>
<pdfrwt beam="2">  1        2 0.42546188E-01 0.86934631E+02</pdfrwt>
<pdfrwt beam="1">  1        1 0.16202131E+00 0.88272649E+02</pdfrwt>
<totfact> 0.25436233E+02</totfact>
</mgrwt>
</event>
<event>
 5    1  0.8891499E-003  0.7707746E+02  0.7546771E-02  0.1463861E+00
          2   -1    0    0  502    0  0.00000000000E+00  0.00000000000E+00  0.81377926803E+03  0.81377926803E+03  0.00000000000E+00 0. -1.
         -2   -1    0    0    0  501 -0.00000000000E+00 -0.00000000000E+00 -0.27863581493E+03  0.27863581493E+03  0.00000000000E+00 0.  1.
         25    1    1    2    0    0  0.70487469017E+02  0.26253466544E+02  0.68214155064E+03  0.69756707413E+03  0.12500000000E+03 0.  0.
          1    1    1    2  502    0 -0.12993609736E+02  0.25166685673E+02  0.11670649650E+03  0.12009413927E+03  0.00000000000E+00 0. -1.
         -1    1    1    2    0  501 -0.57493859281E+02 -0.51420152217E+02 -0.26370459405E+03  0.27475386955E+03  0.00000000000E+00 0.  1.
<mgrwt>
<rscale>  0 0.46723332E+02</rscale>
<asrwt>0</asrwt>
<pdfrwt beam="1">  1        2 0.12519681E+00 0.28323064E+02</pdfrwt>
<pdfrwt beam="2">  1       -2 0.42867049E-01 0.77077458E+02</pdfrwt>
<totfact> 0.19815379E+02</totfact>
</mgrwt>
</event>
<event>
 5    1  0.8891499E-003  0.4433953E+02  0.7546771E-02  0.1488632E+00
          1   -1    0    0  501    0 -0.00000000000E+00  0.00000000000E+00  0.10058349101E+04  0.10058349101E+04  0.00000000000E+00 0. -1.
          2   -1    0    0  502    0  0.00000000000E+00 -0.00000000000E+00 -0.40745144373E+02  0.40745144373E+02  0.00000000000E+00 0. -1.
         25    1    1    2    0    0  0.16176381533E+02 -0.67378552161E+02  0.25353474942E+03  0.29104366300E+03  0.12500000000E+03 0.  0.
          2    1    1    2  501    0  0.15671185332E+02  0.38204807280E+02  0.71114657870E+03  0.71234447408E+03  0.00000000000E+00 0. -1.
          1    1    1    2  502    0 -0.31847566865E+02  0.29173744881E+02  0.40843759201E+00  0.43191917379E+02  0.00000000000E+00 0. -1.
<mgrwt>
<rscale>  0 0.42789673E+02</rscale>
<asrwt>0</asrwt>
<pdfrwt beam="2">  1        2 0.62684845E-02 0.44339534E+02</pdfrwt>
<pdfrwt beam="1">  1        1 0.15474381E+00 0.41293987E+02</pdfrwt>
<totfact> 0.24441099E+03</totfact>
</mgrwt>
</event>
<event>
 5    1  0.8891499E-003  0.7705328E+02  0.7546771E-02  0.1478440E+00
          2   -1    0    0  502    0  0.00000000000E+00  0.00000000000E+00  0.29967186885E+03  0.29967186885E+03  0.00000000000E+00 0. -1.
          1   -1    0    0  501    0 -0.00000000000E+00 -0.00000000000E+00 -0.65416316596E+02  0.65416316596E+02  0.00000000000E+00 0. -1.
         25    1    1    2    0    0 -0.67588063059E+02  0.49272972372E+02  0.15671689766E+03  0.21721224202E+03  0.12500000000E+03 0.  0.
          2    1    1    2  501    0  0.72293128898E+02 -0.24183347082E+02  0.11523006183E+02  0.77096760201E+02  0.00000000000E+00 0. -1.
          1    1    1    2  502    0 -0.47050658393E+01 -0.25089625290E+02  0.66015648411E+02  0.70779183217E+02  0.00000000000E+00 0. -1.
<mgrwt>
<rscale>  0 0.44350174E+02</rscale>
<asrwt>0</asrwt>
<pdfrwt beam="1">  1        2 0.46103364E-01 0.25526985E+02</pdfrwt>
<pdfrwt beam="2">  1        1 0.10064049E-01 0.77053283E+02</pdfrwt>
<totfact> 0.85375402E+03</totfact>
</mgrwt>
</event>
<event>
 5    1  0.8891499E-003  0.1525746E+03  0.7546771E-02  0.1246595E+00
          2   -1    0    0  502    0  0.00000000000E+00  0.00000000000E+00  0.23477515266E+03  0.23477515266E+03  0.00000000000E+00 0. -1.
          1   -1    0    0  501    0 -0.00000000000E+00 -0.00000000000E+00 -0.15268034942E+04  0.15268034942E+04  0.00000000000E+00 0. -1.
         25    1    1    2    0    0 -0.19118279348E+03 -0.45452200402E+02 -0.32892345158E+02  0.23520984124E+03  0.12500000000E+03 0.  0.
          2    1    1    2  501    0  0.50617504014E+02  0.75758101953E+02 -0.13520828021E+04  0.13551491894E+04  0.00000000000E+00 0. -1.
          1    1    1    2  502    0  0.14056528947E+03 -0.30305901551E+02  0.92946805755E+02  0.17121961620E+03  0.00000000000E+00 0. -1.
<mgrwt>
<rscale>  0 0.11790418E+03</rscale>
<asrwt>0</asrwt>
<pdfrwt beam="1">  1        2 0.36119254E-01 0.15257457E+03</pdfrwt>
<pdfrwt beam="2">  1        1 0.23489285E+00 0.91112138E+02</pdfrwt>
<totfact> 0.14741750E+02</totfact>
</mgrwt>
</event>
<event>
 5    1  0.8891499E-003  0.9601050E+02  0.7546771E-02  0.1361348E+00
          1   -1    0    0  501    0 -0.00000000000E+00  0.00000000000E+00  0.74831213749E+03  0.74831213749E+03  0.00000000000E+00 0. -1.
          2   -1    0    0  502    0  0.00000000000E+00 -0.00000000000E+00 -0.68037060220E+03  0.68037060220E+03  0.00000000000E+00 0. -1.
         25    1    1    2    0    0  0.29807488526E+02 -0.94484757622E+02  0.33338089391E+03  0.36957228822E+03  0.12500000000E+03 0.  0.
          2    1    1    2  501    0 -0.50497406692E+02  0.62788529466E+00  0.39171909802E+03  0.39496105387E+03  0.00000000000E+00 0. -1.
          1    1    1    2  502    0  0.20689918166E+02  0.93856872327E+02 -0.65715845664E+03  0.66414939760E+03  0.00000000000E+00 0. -1.
<mgrwt>
<rscale>  0 0.69632293E+02</rscale>
<asrwt>0</asrwt>
<pdfrwt beam="2">  1        2 0.10467240E+00 0.96010503E+02</pdfrwt>
<pdfrwt beam="1">  1        1 0.11512494E+00 0.50501310E+02</pdfrwt>
<totfact> 0.16892128E+02</totfact>
</mgrwt>
</event>
<event>
 5    1  0.8891499E-003  0.7313019E+02  0.7546771E-02  0.1385256E+00
          1   -1    0    0  501    0 -0.00000000000E+00  0.00000000000E+00  0.19332426751E+04  0.19332426751E+04  0.00000000000E+00 0. -1.
          2   -1    0    0  502    0  0.00000000000E+00 -0.00000000000E+00 -0.32248128047E+03  0.32248128047E+03  0.00000000000E+00 0. -1.
         25    1    1    2    0    0  0.76027215950E+02 -0.39916862407E+02  0.14885162637E+03  0.21249776503E+03  0.12500000000E+03 0.  0.
          2    1    1    2  501    0 -0.71850052761E+02 -0.14371838949E+02  0.17492442421E+04  0.17507782265E+04  0.00000000000E+00 0. -1.
          1    1    1    2  502    0 -0.41771631887E+01  0.54288701355E+02 -0.28733447387E+03  0.29244796402E+03  0.00000000000E+00 0. -1.
<mgrwt>
<rscale>  0 0.63102121E+02</rscale>
<asrwt>0</asrwt>
<pdfrwt beam="2">  1        2 0.49612506E-01 0.54449167E+02</pdfrwt>
<pdfrwt beam="1">  1        1 0.29742194E+00 0.73130186E+02</pdfrwt>
<totfact> 0.59652250E+01</totfact>
</mgrwt>
</event>
<event>
 5    1  0.8891499E-003  0.2037559E+03  0.7546771E-02  0.1294554E+00
          2   -1    0    0  502    0  0.00000000000E+00  0.00000000000E+00  0.23915108836E+04  0.23915108836E+04  0.00000000000E+00 0. -1.
          1   -1    0    0  501    0 -0.00000000000E+00 -0.00000000000E+00 -0.14577043883E+04  0.14577043883E+04  0.00000000000E+00 0. -1.
         25    1    1    2    0    0 -0.23665332510E+03  0.64071866409E+01  0.26264753313E+03  0.37503943123E+03  0.12500000000E+03 0.  0.
          2    1    1    2  501    0  0.36322499829E+02 -0.22864769357E+02 -0.13963045760E+04  0.13969640621E+04  0.00000000000E+00 0. -1.
          1    1    1    2  502    0  0.20033082527E+03  0.16457582716E+02  0.20674635382E+04  0.20772117786E+04  0.00000000000E+00 0. -1.
<mgrwt>
<rscale>  0 0.93515730E+02</rscale>
<asrwt>0</asrwt>
<pdfrwt beam="1">  1        2 0.36792475E+00 0.20375590E+03</pdfrwt>
<pdfrwt beam="2">  1        1 0.22426221E+00 0.42919945E+02</pdfrwt>
<totfact> 0.59495944E+00</totfact>
</mgrwt>
</event>
<event>
 5    1  0.8891499E-003  0.6785452E+02  0.7546771E-02  0.1457727E+00
         -1   -1    0    0    0  501 -0.00000000000E+00  0.00000000000E+00  0.35803479498E+02  0.35803479498E+02  0.00000000000E+00 0.  1.
          1   -1    0    0  502    0  0.00000000000E+00 -0.00000000000E+00 -0.93609647295E+03  0.93609647295E+03  0.00000000000E+00 0. -1.
         25    1    1    2    0    0 -0.35640241747E+02  0.62616921667E+02 -0.22804912402E+03  0.26985645939E+03  0.12500000000E+03 0.  0.
          2    1    1    2  502    0 -0.21927371420E+02 -0.25507873807E+02 -0.60541984347E+03  0.60635356691E+03  0.00000000000E+00 0. -1.
         -2    1    1    2    0  501  0.57567613167E+02 -0.37109047860E+02 -0.66824025968E+02  0.95689926144E+02  0.00000000000E+00 0.  1.
<mgrwt>
<rscale>  0 0.47774849E+02</rscale>
<asrwt>0</asrwt>
<pdfrwt beam="2">  1        1 0.14401482E+00 0.33637200E+02</pdfrwt>
<pdfrwt beam="1">  1       -1 0.55082284E-02 0.67854524E+02</pdfrwt>
<totfact> 0.27430758E+03</totfact>
</mgrwt>
</event>
<event>
 5    1  0.8891499E-003  0.1066097E+03  0.7546771E-02  0.1280088E+00
         -1   -1    0    0    0  501 -0.00000000000E+00  0.00000000000E+00  0.17554812391E+03  0.17554812391E+03  0.00000000000E+00 0.  1.
          1   -1    0    0  502    0  0.00000000000E+00 -0.00000000000E+00 -0.20208132521E+04  0.20208132521E+04  0.00000000000E+00 0. -1.
         25    1    1    2    0    0  0.26374034212E+02 -0.17024685114E+02 -0.19180886643E+03  0.23108671711E+03  0.12500000000E+03 0.  0.
          2    1    1    2  502    0 -0.11248009499E+03 -0.20646844248E+02 -0.17932122742E+04  0.17968551206E+04  0.00000000000E+00 0. -1.
         -2    1    1    2    0  501  0.86106060775E+02  0.37671529361E+02  0.13975601253E+03  0.16841953825E+03  0.00000000000E+00 0.  1.
<mgrwt>
<rscale>  0 0.10009912E+03</rscale>
<asrwt>0</asrwt>
<pdfrwt beam="2">  1        1 0.31089435E+00 0.10660967E+03</pdfrwt>
<pdfrwt beam="1">  1       -1 0.27007404E-01 0.93986158E+02</pdfrwt>
<totfact> 0.44177009E+01</totfact>
</mgrwt>
</event>
<event>
 5    1  0.8891499E-003  0.3244024E+02  0.7546771E-02  0.1631803E+00
          2   -1    0    0  502    0  0.00000000000E+00  0.00000000000E+00  0.13944743866E+04  0.13944743866E+04  0.00000000000E+00 0. -1.
          1   -1    0    0  501    0 -0.00000000000E+00 -0.00000000000E+00 -0.14938546214E+04  0.14938546214E+04  0.00000000000E+00 0. -1.
         25    1    1    2    0    0  0.38335948278E+02 -0.42607386761E+01 -0.10641087847E+04  0.10721195384E+04  0.12500000000E+03 0.  0.
          2    1    1    2  501    0 -0.28201221448E+02 -0.16092349549E+02 -0.42502825416E+03  0.42626668816E+03  0.00000000000E+00 0. -1.
          1    1    1    2  502    0 -0.10134726830E+02  0.20353088226E+02  0.13897568041E+04  0.13899427814E+04  0.00000000000E+00 0. -1.
<mgrwt>
<rscale>  0 0.27158542E+02</rscale>
<asrwt>0</asrwt>
<pdfrwt beam="1">  1        2 0.21453452E+00 0.22736774E+02</pdfrwt>
<pdfrwt beam="2">  1        1 0.22982379E+00 0.32440241E+02</pdfrwt>
<totfact> 0.23075830E+01</totfact>
</mgrwt>
</event>
<event>
 5    1  0.8891499E-003  0.8301580E+02  0.7546771E-02  0.1330928E+00
          1   -1    0    0  501    0 -0.00000000000E+00  0.00000000000E+00  0.11643828394E+04  0.11643828394E+04  0.00000000000E+00 0. -1.
          2   -1    0    0  502    0  0.00000000000E+00 -0.00000000000E+00 -0.16028894373E+04  0.16028894373E+04  0.00000000000E+00 0. -1.
         25    1    1    2    0    0  0.11061239363E+03  0.57041801498E+02 -0.45577127050E+03  0.48871394471E+03  0.12500000000E+03 0.  0.
          2    1    1    2  501    0 -0.36784531847E+02 -0.74360054055E+02  0.11451377249E+04  0.11481388977E+04  0.00000000000E+00 0. -1.
          1    1    1    2  502    0 -0.73827861783E+02  0.17318252557E+02 -0.11278730524E+04  0.11304194342E+04  0.00000000000E+00 0. -1.
<mgrwt>
<rscale>  0 0.79342579E+02</rscale>
<asrwt>0</asrwt>
<pdfrwt beam="2">  1        2 0.24659837E+00 0.75831887E+02</pdfrwt>
<pdfrwt beam="1">  1        1 0.17913582E+00 0.83015800E+02</pdfrwt>
<totfact> 0.24426691E+01</totfact>
</mgrwt>
</event>
<event>
 5    1  0.8891499E-003  0.6611789E+02  0.7546771E-02  0.1418680E+00
          1   -1    0    0  501    0 -0.00000000000E+00  0.00000000000E+00  0.15610245287E+02  0.15610245287E+02  0.00000000000E+00 0. -1.
          2   -1    0    0  502    0  0.00000000000E+00 -0.00000000000E+00 -0.15950587759E+04  0.15950587759E+04  0.00000000000E+00 0. -1.
         25    1    1    2    0    0  0.47951942484E+02  0.62790607044E+02 -0.90770087359E+03  0.91966729041E+03  0.12500000000E+03 0.  0.
          2    1    1    2  501    0 -0.63292645616E+02 -0.19154777614E+02 -0.11752037806E+03  0.13484770578E+03  0.00000000000E+00 0. -1.
          1    1    1    2  502    0  0.15340703132E+02 -0.43635829430E+02 -0.55422727897E+03  0.55615402501E+03  0.00000000000E+00 0. -1.
<mgrwt>
<rscale>  0 0.55301083E+02</rscale>
<asrwt>0</asrwt>
<pdfrwt beam="2">  1        2 0.24539365E+00 0.46253895E+02</pdfrwt>
<pdfrwt beam="1">  1        1 0.24015762E-02 0.66117886E+02</pdfrwt>
<totfact> 0.76020794E+03</totfact>
</mgrwt>
</event>
<event>
 5    1  0.8891499E-003  0.1010995E+03  0.7546771E-02  0.1375019E+00
         -1   -1    0    0    0  501 -0.00000000000E+00  0.00000000000E+00  0.13074584985E+04  0.13074584985E+04  0.00000000000E+00 0.  1.
          1   -1    0    0  502    0  0.00000000000E+00 -0.00000000000E+00 -0.14186265289E+04  0.14186265289E+04  0.00000000000E+00 0. -1.
         25    1    1    2    0    0  0.19439712970E+02  0.57677953065E+02 -0.56314508256E+03  0.58005347402E+03  0.12500000000E+03 0.  0.
          2    1    1    2  502    0 -0.49708127932E+01  0.42524668755E+02 -0.84451148857E+03  0.84559606832E+03  0.00000000000E+00 0. -1.
         -2    1    1    2    0  501 -0.14468900177E+02 -0.10020262182E+03  0.12964885407E+04  0.13004354850E+04  0.00000000000E+00 0.  1.
<mgrwt>
<rscale>  0 0.65791300E+02</rscale>
<asrwt>0</asrwt>
<pdfrwt beam="2">  1        1 0.21825024E+00 0.42814208E+02</pdfrwt>
<pdfrwt beam="1">  1       -1 0.20114746E+00 0.10109950E+03</pdfrwt>
<totfact> 0.17446179E+00</totfact>
</mgrwt>
</event>
<event>
 5    1  0.8891499E-003  0.1855448E+03  0.7546771E-02  0.1239994E+00
          2   -1    0    0  502    0  0.00000000000E+00  0.00000000000E+00  0.20267120118E+04  0.20267120118E+04  0.00000000000E+00 0. -1.
          1   -1    0    0  501    0 -0.00000000000E+00 -0.00000000000E+00 -0.68327361418E+03  0.68327361418E+03  0.00000000000E+00 0. -1.
         25    1    1    2    0    0 -0.96529127000E+02  0.15753666540E+03  0.19411796325E+03  0.29570670767E+03  0.12500000000E+03 0.  0.
          2    1    1    2  501    0  0.21398980500E+02 -0.18527473043E+03 -0.61780324371E+03  0.64534137481E+03  0.00000000000E+00 0. -1.
          1    1    1    2  502    0  0.75130146501E+02  0.27738065026E+02  0.17671236780E+04  0.17689375435E+04  0.00000000000E+00 0. -1.
<mgrwt>
<rscale>  0 0.12190053E+03</rscale>
<asrwt>0</asrwt>
<pdfrwt beam="1">  1        2 0.31180185E+00 0.80087072E+02</pdfrwt>
<pdfrwt beam="2">  1        1 0.10511902E+00 0.18554479E+03</pdfrwt>
<totfact> 0.33397244E+01</totfact>
</mgrwt>
</event>
<event>
 5    1  0.8891499E-003  0.1006977E+03  0.7546771E-02  0.1364771E+00
          1   -1    0    0  501    0 -0.00000000000E+00  0.00000000000E+00  0.11333589322E+04  0.11333589322E+04  0.00000000000E+00 0. -1.
          2   -1    0    0  502    0  0.00000000000E+00 -0.00000000000E+00 -0.39169459530E+03  0.39169459530E+03  0.00000000000E+00 0. -1.
         25    1    1    2    0    0 -0.23024265465E+02  0.11495044710E+03  0.11665932654E+03  0.20731165080E+03  0.12500000000E+03 0.  0.
          2    1    1    2  501    0  0.56830696624E+02 -0.82599479048E+02  0.96718982451E+03  0.97237264393E+03  0.00000000000E+00 0. -1.
          1    1    1    2  502    0 -0.33806431159E+02 -0.32350968048E+02 -0.34218481415E+03  0.34536923278E+03  0.00000000000E+00 0. -1.
<mgrwt>
<rscale>  0 0.68642648E+02</rscale>
<asrwt>0</asrwt>
<pdfrwt beam="2">  1        2 0.60260707E-01 0.46791665E+02</pdfrwt>
<pdfrwt beam="1">  1        1 0.17436291E+00 0.10069770E+03</pdfrwt>
<totfact> 0.15419039E+02</totfact>
</mgrwt>
</event>
<event>
 5    1  0.8891499E-003  0.3522892E+02  0.7546771E-02  0.1588445E+00
          1   -1    0    0  501    0 -0.00000000000E+00  0.00000000000E+00  0.35887604760E+03  0.35887604760E+03  0.00000000000E+00 0. -1.
          2   -1    0    0  502    0  0.00000000000E+00 -0.00000000000E+00 -0.22167219531E+03  0.22167219531E+03  0.00000000000E+00 0. -1.
         25    1    1    2    0    0  0.11065100786E+01  0.91828959853E+01  0.76156493222E+02  0.14666411082E+03  0.12500000000E+03 0.  0.
          2    1    1    2  501    0 -0.88434277525E+01  0.25602755899E+02  0.24500949536E+03  0.24650225179E+03  0.00000000000E+00 0. -1.
          1    1    1    2  502    0  0.77369176739E+01 -0.34785651885E+02 -0.18396213629E+03  0.18738188029E+03  0.00000000000E+00 0. -1.
<mgrwt>
<rscale>  0 0.30890886E+02</rscale>
<asrwt>0</asrwt>
<pdfrwt beam="2">  1        2 0.34103415E-01 0.35228917E+02</pdfrwt>
<pdfrwt beam="1">  1        1 0.55211700E-01 0.27087032E+02</pdfrwt>
<totfact> 0.14051346E+03</totfact>
</mgrwt>
</event>
<event>
 5    1  0.8891499E-003  0.8292646E+02  0.7546771E-02  0.1417182E+00
          1   -1    0    0  501    0 -0.00000000000E+00  0.00000000000E+00  0.81942295990E+03  0.81942295990E+03  0.00000000000E+00 0. -1.
          2   -1    0    0  502    0  0.00000000000E+00 -0.00000000000E+00 -0.28231109553E+03  0.28231109553E+03  0.00000000000E+00 0. -1.
         25    1    1    2    0    0 -0.34602615240E+02  0.49221483838E+02  0.38099710403E+02  0.14386341921E+03  0.12500000000E+03 0.  0.
          2    1    1    2  501    0  0.71585650563E+02 -0.44314313441E+02  0.72447067848E+03  0.72934630164E+03  0.00000000000E+00 0. -1.
          1    1    1    2  502    0 -0.36983035323E+02 -0.49071703973E+01 -0.22545852451E+03  0.22852433458E+03  0.00000000000E+00 0. -1.
<mgrwt>
<rscale>  0 0.55621505E+02</rscale>
<asrwt>0</asrwt>
<pdfrwt beam="2">  1        2 0.43432477E-01 0.37307174E+02</pdfrwt>
<pdfrwt beam="1">  1        1 0.12606507E+00 0.82926460E+02</pdfrwt>
<totfact> 0.36845537E+02</totfact>
</mgrwt>
</event>
<event>
 5    1  0.8891499E-003  0.4318223E+02  0.7546771E-02  0.1518309E+00
         -2   -1    0    0    0  501 -0.00000000000E+00  0.00000000000E+00  0.55159526854E+02  0.55159526854E+02  0.00000000000E+00 0.  1.
          2   -1    0    0  502    0  0.00000000000E+00 -0.00000000000E+00 -0.44107452235E+03  0.44107452235E+03  0.00000000000E+00 0. -1.
         25    1    1    2    0    0 -0.10773065412E+01  0.17003064799E+02 -0.15969420245E+03  0.20351290647E+03  0.12500000000E+03 0.  0.
          1    1    1    2  502    0 -0.26851262124E+02 -0.37447131513E+02 -0.24772438855E+03  0.25197351174E+03  0.00000000000E+00 0. -1.
         -1    1    1    2    0  501  0.27928568665E+02  0.20444066714E+02  0.21503595511E+02  0.40747630991E+02  0.00000000000E+00 0.  1.
<mgrwt>
<rscale>  0 0.38660153E+02</rscale>
<asrwt>0</asrwt>
<pdfrwt beam="2">  1        2 0.67857620E-01 0.43182234E+02</pdfrwt>
<pdfrwt beam="1">  1       -2 0.84860809E-02 0.34611628E+02</pdfrwt>
<totfact> 0.53398210E+03</totfact>
</mgrwt>
</event>
<event>
 5    1  0.1171559E-002  0.7326075E+02  0.7546771E-02  0.1405807E+00
          1   -1    0    0  501    0 -0.00000000000E+00  0.00000000000E+00  0.96562074889E+03  0.96562074889E+03  0.00000000000E+00 0. -1.
          2   -1    0    0  502    0  0.00000000000E+00 -0.00000000000E+00 -0.13591379765E+04  0.13591379765E+04  0.00000000000E+00 0. -1.
         25    1    1    2    0    0 -0.45274495009E+02  0.95839136889E+02  0.41062306073E+03  0.44212127076E+03  0.12500000000E+03 0.  0.
          2    1    1    2  501    0  0.48185940246E+02 -0.49791014132E+02  0.53662430766E+03  0.54107917859E+03  0.00000000000E+00 0. -1.
          1    1    1    2  502    0 -0.29114452373E+01 -0.46048122756E+02 -0.13407645960E+04  0.13415582761E+04  0.00000000000E+00 0. -1.
<mgrwt>
<rscale>  0 0.58139969E+02</rscale>
<asrwt>0</asrwt>
<pdfrwt beam="2">  1        2 0.20909815E+00 0.46140071E+02</pdfrwt>
<pdfrwt beam="1">  1        1 0.14855704E+00 0.73260746E+02</pdfrwt>
<totfact> 0.46865690E+01</totfact>
</mgrwt>
</event>
<event>
 5    1  0.8891499E-003  0.3029272E+02  0.7546771E-02  0.1617853E+00
         -2   -1    0    0    0  501  0.00000000000E+00  0.00000000000E+00  0.77382280592E+02  0.77382280592E+02  0.00000000000E+00 0.  1.
         -1   -1    0    0    0  502 -0.00000000000E+00 -0.00000000000E+00 -0.75751247521E+03  0.75751247521E+03  0.00000000000E+00 0.  1.
         25    1    1    2    0    0 -0.51805714323E+02 -0.36744528560E+01 -0.28652112216E+03  0.31688592125E+03  0.12500000000E+03 0.  0.
         -2    1    1    2    0  502  0.23132495564E+02  0.12744970346E+02 -0.45176542330E+03  0.45253678780E+03  0.00000000000E+00 0.  1.
         -1    1    1    2    0  501  0.28673218759E+02 -0.90705174898E+01  0.58156350851E+02  0.65472046751E+02  0.00000000000E+00 0.  1.
<mgrwt>
<rscale>  0 0.28285408E+02</rscale>
<asrwt>0</asrwt>
<pdfrwt beam="1">  1       -2 0.11904966E-01 0.30292720E+02</pdfrwt>
<pdfrwt beam="2">  1       -1 0.11654038E+00 0.26411108E+02</pdfrwt>
<totfact> 0.25775074E+02</totfact>
</mgrwt>
</event>
<event>
 5    1  0.8891499E-003  0.3787970E+02  0.7546771E-02  0.1566184E+00
          2   -1    0    0  502    0  0.00000000000E+00  0.00000000000E+00  0.12044619397E+04  0.12044619397E+04  0.00000000000E+00 0. -1.
         -2   -1    0    0    0  501 -0.00000000000E+00 -0.00000000000E+00 -0.25817777896E+03  0.25817777896E+03  0.00000000000E+00 0.  1.
         25    1    1    2    0    0  0.31728088980E+02  0.47084650291E+02  0.49363154844E+03  0.51236777957E+03  0.12500000000E+03 0.  0.
          1    1    1    2  502    0 -0.46680765300E+01 -0.36887907082E+02  0.70012707216E+03  0.70111370390E+03  0.00000000000E+00 0. -1.
         -1    1    1    2    0  501 -0.27060012450E+02 -0.10196743209E+02 -0.24747445989E+03  0.24915823515E+03  0.00000000000E+00 0.  1.
<mgrwt>
<rscale>  0 0.33096580E+02</rscale>
<asrwt>0</asrwt>
<pdfrwt beam="1">  1        2 0.18530183E+00 0.37879699E+02</pdfrwt>
<pdfrwt beam="2">  1       -2 0.39719659E-01 0.28917432E+02</pdfrwt>
<totfact> 0.13385997E+02</totfact>
</mgrwt>
</event>
<event>
 5    1  0.8891499E-003  0.1688640E+03  0.7546771E-02  0.1328701E+00
          1   -1    0    0  501    0 -0.00000000000E+00  0.00000000000E+00  0.54341223820E+03  0.54341223820E+03  0.00000000000E+00 0. -1.
          2   -1    0    0  502    0  0.00000000000E+00 -0.00000000000E+00 -0.47843239222E+03  0.47843239222E+03  0.00000000000E+00 0. -1.
         25    1    1    2    0    0 -0.13259547119E+03 -0.13343572036E+03  0.16288882300E+03  0.27846798578E+03  0.12500000000E+03 0.  0.
          2    1    1    2  501    0 -0.49843650890E+01  0.37689332801E+02  0.30480795314E+03  0.30716968926E+03  0.00000000000E+00 0. -1.
          1    1    1    2  502    0  0.13757983628E+03  0.95746387563E+02 -0.40271693016E+03  0.43620695537E+03  0.00000000000E+00 0. -1.
<mgrwt>
<rscale>  0 0.80123572E+02</rscale>
<asrwt>0</asrwt>
<pdfrwt beam="2">  1        2 0.73604983E-01 0.16886403E+03</pdfrwt>
<pdfrwt beam="1">  1        1 0.83601883E-01 0.38017492E+02</pdfrwt>
<totfact> 0.38286484E+02</totfact>
</mgrwt>
</event>
<event>
 5    1  0.8891499E-003  0.4389083E+02  0.7546771E-02  0.1572995E+00
          2   -1    0    0  502    0  0.00000000000E+00  0.00000000000E+00  0.18226598941E+04  0.18226598941E+04  0.00000000000E+00 0. -1.
          1   -1    0    0  501    0 -0.00000000000E+00 -0.00000000000E+00 -0.29681154900E+02  0.29681154900E+02  0.00000000000E+00 0. -1.
         25    1    1    2    0    0  0.21298099889E+02 -0.79446182058E+01  0.78962154989E+03  0.79977741783E+03  0.12500000000E+03 0.  0.
          2    1    1    2  501    0  0.18770978403E+02 -0.14818677098E+02 -0.18146713880E+02  0.30020760247E+02  0.00000000000E+00 0. -1.
          1    1    1    2  502    0 -0.40069078292E+02  0.22763295304E+02  0.10215039032E+04  0.10225428710E+04  0.00000000000E+00 0. -1.
<mgrwt>
<rscale>  0 0.32398510E+02</rscale>
<asrwt>0</asrwt>
<pdfrwt beam="1">  1        2 0.28040913E+00 0.43890827E+02</pdfrwt>
<pdfrwt beam="2">  1        1 0.45663329E-02 0.23915326E+02</pdfrwt>
<totfact> 0.21991390E+03</totfact>
</mgrwt>
</event>
<event>
 5    1  0.8891499E-003  0.3950438E+02  0.7546771E-02  0.1602019E+00
          2   -1    0    0  502    0  0.00000000000E+00  0.00000000000E+00  0.13328240651E+04  0.13328240651E+04  0.00000000000E+00 0. -1.
         -2   -1    0    0    0  501 -0.00000000000E+00 -0.00000000000E+00 -0.18061973153E+02  0.18061973153E+02  0.00000000000E+00 0.  1.
         25    1    1    2    0    0 -0.51261450178E+01 -0.22862733028E+02  0.58996114581E+03  0.60351316099E+03  0.12500000000E+03 0.  0.
          3    1    1    2  502    0 -0.20469384299E+02 -0.87214716235E+01  0.69871675711E+03  0.69907093089E+03  0.00000000000E+00 0. -1.
         -1    1    1    2    0  501  0.25595529316E+02  0.31584204652E+02  0.26084189010E+02  0.48301946346E+02  0.00000000000E+00 0.  1.
<mgrwt>
<rscale>  0 0.29647430E+02</rscale>
<asrwt>0</asrwt>
<pdfrwt beam="1">  1        2 0.20504978E+00 0.22249938E+02</pdfrwt>
<pdfrwt beam="2">  1       -2 0.27787662E-02 0.39504384E+02</pdfrwt>
<totfact> 0.76259902E+03</totfact>
</mgrwt>
</event>
<event>
 5    1  0.8891499E-003  0.6280758E+02  0.7546771E-02  0.1396309E+00
          2   -1    0    0  502    0  0.00000000000E+00  0.00000000000E+00  0.17717355838E+04  0.17717355838E+04  0.00000000000E+00 0. -1.
          1   -1    0    0  501    0 -0.00000000000E+00 -0.00000000000E+00 -0.99046920777E+03  0.99046920777E+03  0.00000000000E+00 0. -1.
         25    1    1    2    0    0  0.33818202044E+02  0.19912613553E+02  0.66394293805E+03  0.67674619168E+03  0.12500000000E+03 0.  0.
          2    1    1    2  501    0 -0.52145401656E+02  0.35132520397E+02 -0.98229774041E+03  0.98430802482E+03  0.00000000000E+00 0. -1.
          1    1    1    2  502    0  0.18327199613E+02 -0.55045133950E+02  0.10996211784E+04  0.11011505751E+04  0.00000000000E+00 0. -1.
<mgrwt>
<rscale>  0 0.60364251E+02</rscale>
<asrwt>0</asrwt>
<pdfrwt beam="1">  1        2 0.27257471E+00 0.58015972E+02</pdfrwt>
<pdfrwt beam="2">  1        1 0.15237988E+00 0.62807579E+02</pdfrwt>
<totfact> 0.27825604E+01</totfact>
</mgrwt>
</event>
<event>
 5    1  0.8891499E-003  0.5263594E+02  0.7546771E-02  0.1460134E+00
          2   -1    0    0  502    0  0.00000000000E+00  0.00000000000E+00  0.35555652946E+04  0.35555652946E+04  0.00000000000E+00 0. -1.
          1   -1    0    0  501    0 -0.00000000000E+00 -0.00000000000E+00 -0.12781844119E+03  0.12781844119E+03  0.00000000000E+00 0. -1.
         25    1    1    2    0    0  0.45402104151E+02  0.28049829332E+02  0.84027090756E+03  0.85119230616E+03  0.12500000000E+03 0.  0.
          2    1    1    2  501    0 -0.10016020557E+02 -0.51786462042E+02 -0.11649760371E+03  0.12788217228E+03  0.00000000000E+00 0. -1.
          1    1    1    2  502    0 -0.35386083594E+02  0.23736632710E+02  0.27039735496E+04  0.27043092574E+04  0.00000000000E+00 0. -1.
<mgrwt>
<rscale>  0 0.47358332E+02</rscale>
<asrwt>0</asrwt>
<pdfrwt beam="1">  1        2 0.54700997E+00 0.42609889E+02</pdfrwt>
<pdfrwt beam="2">  1        1 0.19664378E-01 0.52635940E+02</pdfrwt>
<totfact> 0.44606585E+01</totfact>
</mgrwt>
</event>
<event>
 5    1  0.8891499E-003  0.8336448E+02  0.7546771E-02  0.1376803E+00
         -3   -1    0    0    0  501 -0.00000000000E+00  0.00000000000E+00  0.65877449707E+02  0.65877449707E+02  0.00000000000E+00 0.  1.
          3   -1    0    0  502    0  0.00000000000E+00 -0.00000000000E+00 -0.87169713495E+03  0.87169713495E+03  0.00000000000E+00 0. -1.
         25    1    1    2    0    0 -0.21776293882E+02 -0.12556260362E+03 -0.75187561710E+03  0.77277559355E+03  0.12500000000E+03 0.  0.
          2    1    1    2  502    0  0.25744856668E+02  0.44219642025E+02 -0.64878999420E+02  0.82628439120E+02  0.00000000000E+00 0. -1.
         -2    1    1    2    0  501 -0.39685627856E+01  0.81342961598E+02  0.10934931272E+02  0.82170551988E+02  0.00000000000E+00 0.  1.
<mgrwt>
<rscale>  0 0.65311578E+02</rscale>
<asrwt>0</asrwt>
<pdfrwt beam="2">  1        3 0.13410724E+00 0.51168099E+02</pdfrwt>
<pdfrwt beam="1">  1       -3 0.10134993E-01 0.83364484E+02</pdfrwt>
<totfact> 0.72798256E+01</totfact>
</mgrwt>
</event>
<event>
 5    1  0.8891499E-003  0.1256232E+03  0.7546771E-02  0.1317345E+00
         -2   -1    0    0    0  501 -0.00000000000E+00  0.00000000000E+00  0.22388898135E+02  0.22388898135E+02  0.00000000000E+00 0.  1.
          2   -1    0    0  502    0  0.00000000000E+00 -0.00000000000E+00 -0.20857450575E+04  0.20857450575E+04  0.00000000000E+00 0. -1.
         25    1    1    2    0    0 -0.99360518015E+02  0.13830197951E+02 -0.10513421596E+04  0.10634891271E+04  0.12500000000E+03 0.  0.
          1    1    1    2  502    0  0.14406449039E+03 -0.48436853561E+02 -0.94420876650E+03  0.95636337284E+03  0.00000000000E+00 0. -1.
         -1    1    1    2    0  501 -0.44703972379E+02  0.34606655611E+02 -0.67805233220E+02  0.88281455647E+02  0.00000000000E+00 0.  1.
<mgrwt>
<rscale>  0 0.84273068E+02</rscale>
<asrwt>0</asrwt>
<pdfrwt beam="2">  1        2 0.32088393E+00 0.12562317E+03</pdfrwt>
<pdfrwt beam="1">  1       -2 0.34444450E-02 0.56533758E+02</pdfrwt>
<totfact> 0.21205863E+03</totfact>
</mgrwt>
</event>
<event>
 5    1  0.8891499E-003  0.2447389E+02  0.7546771E-02  0.1690778E+00
          1   -1    0    0  501    0 -0.00000000000E+00  0.00000000000E+00  0.60589768399E+03  0.60589768399E+03  0.00000000000E+00 0. -1.
          2   -1    0    0  502    0  0.00000000000E+00 -0.00000000000E+00 -0.23513429902E+03  0.23513429902E+03  0.00000000000E+00 0. -1.
         25    1    1    2    0    0 -0.91770477480E+01 -0.55822894461E+01 -0.62519302807E+02  0.14017504551E+03  0.12500000000E+03 0.  0.
          2    1    1    2  501    0 -0.14897814170E+01  0.24479581475E+02  0.56592256214E+03  0.56645371894E+03  0.00000000000E+00 0. -1.
          1    1    1    2  502    0  0.10666829165E+02 -0.18897292029E+02 -0.13263987436E+03  0.13440321857E+03  0.00000000000E+00 0. -1.
<mgrwt>
<rscale>  0 0.23045234E+02</rscale>
<asrwt>0</asrwt>
<pdfrwt beam="2">  1        2 0.36174508E-01 0.21699974E+02</pdfrwt>
<pdfrwt beam="1">  1        1 0.93215028E-01 0.24473892E+02</pdfrwt>
<totfact> 0.69535414E+02</totfact>
</mgrwt>
</event>
<event>
 5    1  0.8891499E-003  0.4284980E+02  0.7546771E-02  0.1526622E+00
          1   -1    0    0  501    0 -0.00000000000E+00  0.00000000000E+00  0.39874552402E+03  0.39874552402E+03  0.00000000000E+00 0. -1.
          2   -1    0    0  502    0  0.00000000000E+00 -0.00000000000E+00 -0.73557351059E+03  0.73557351059E+03  0.00000000000E+00 0. -1.
         25    1    1    2    0    0 -0.43210290844E+01  0.46244980032E+02  0.76294679610E+02  0.15363315921E+03  0.12500000000E+03 0.  0.
          2    1    1    2  501    0  0.32282599919E+02 -0.28718423680E+02  0.28174306463E+03  0.28503696003E+03  0.00000000000E+00 0. -1.
          1    1    1    2  502    0 -0.27961570835E+02 -0.17526556352E+02 -0.69486573081E+03  0.69564891538E+03  0.00000000000E+00 0. -1.
<mgrwt>
<rscale>  0 0.37604022E+02</rscale>
<asrwt>0</asrwt>
<pdfrwt beam="2">  1        2 0.11316515E+00 0.33000449E+02</pdfrwt>
<pdfrwt beam="1">  1        1 0.61345466E-01 0.42849796E+02</pdfrwt>
<totfact> 0.35945480E+02</totfact>
</mgrwt>
</event>
<event>
 5    1  0.8891499E-003  0.1231205E+03  0.7546771E-02  0.1344022E+00
          2   -1    0    0  502    0  0.00000000000E+00  0.00000000000E+00  0.12848618266E+04  0.12848618266E+04  0.00000000000E+00 0. -1.
          1   -1    0    0  501    0 -0.00000000000E+00 -0.00000000000E+00 -0.54251820612E+02  0.54251820612E+02  0.00000000000E+00 0. -1.
         25    1    1    2    0    0 -0.20153703882E+02 -0.82824628885E+02  0.21168182359E+03  0.26019278501E+03  0.12500000000E+03 0.  0.
          2    1    1    2  501    0  0.26711940678E+01 -0.45549451423E+02 -0.58357976697E+01  0.45999394965E+02  0.00000000000E+00 0. -1.
          1    1    1    2  502    0  0.17482509814E+02  0.12837408031E+03  0.10247639801E+04  0.10329214673E+04  0.00000000000E+00 0. -1.
<mgrwt>
<rscale>  0 0.74951360E+02</rscale>
<asrwt>0</asrwt>
<pdfrwt beam="1">  1        2 0.19767103E+00 0.12312050E+03</pdfrwt>
<pdfrwt beam="2">  1        1 0.83464349E-02 0.45627709E+02</pdfrwt>
<totfact> 0.18530989E+03</totfact>
</mgrwt>
</event>
<event>
 5    1  0.8891499E-003  0.9883437E+02  0.7546771E-02  0.1364769E+00
          1   -1    0    0  501    0 -0.00000000000E+00  0.00000000000E+00  0.87897909432E+02  0.87897909432E+02  0.00000000000E+00 0. -1.
          2   -1    0    0  502    0  0.00000000000E+00 -0.00000000000E+00 -0.36952959839E+03  0.36952959839E+03  0.00000000000E+00 0. -1.
         25    1    1    2    0    0  0.98889770174E+02 -0.39877055115E+02 -0.14771692589E+03  0.22094039098E+03  0.12500000000E+03 0.  0.
          2    1    1    2  501    0 -0.30326406906E+00  0.47673416010E+02  0.21482138314E+02  0.52290810184E+02  0.00000000000E+00 0. -1.
          1    1    1    2  502    0 -0.98586506105E+02 -0.77963608952E+01 -0.15539690138E+03  0.18419630666E+03  0.00000000000E+00 0. -1.
<mgrwt>
<rscale>  0 0.68643045E+02</rscale>
<asrwt>0</asrwt>
<pdfrwt beam="2">  1        2 0.56850708E-01 0.98834374E+02</pdfrwt>
<pdfrwt beam="1">  1        1 0.13522755E-01 0.47674381E+02</pdfrwt>
<totfact> 0.46250991E+03</totfact>
</mgrwt>
</event>
<event>
 5    1  0.8891499E-003  0.7519007E+02  0.7546771E-02  0.1348225E+00
          2   -1    0    0  502    0  0.00000000000E+00  0.00000000000E+00  0.99144942015E+03  0.99144942015E+03  0.00000000000E+00 0. -1.
          1   -1    0    0  501    0 -0.00000000000E+00 -0.00000000000E+00 -0.61446082624E+03  0.61446082624E+03  0.00000000000E+00 0. -1.
         25    1    1    2    0    0  0.82132778446E+02 -0.18157181300E+02  0.90709179897E+02  0.17586537990E+03  0.12500000000E+03 0.  0.
          2    1    1    2  501    0 -0.31043971122E+02  0.68985456635E+02 -0.56785693799E+03  0.57287365395E+03  0.00000000000E+00 0. -1.
          3    1    1    2  502    0 -0.51088807324E+02 -0.50828275335E+02  0.85413635200E+03  0.85717121254E+03  0.00000000000E+00 0. -1.
<mgrwt>
<rscale>  0 0.73611719E+02</rscale>
<asrwt>0</asrwt>
<pdfrwt beam="1">  1        2 0.15253068E+00 0.72066496E+02</pdfrwt>
<pdfrwt beam="2">  1        1 0.94532435E-01 0.75190075E+02</pdfrwt>
<totfact> 0.13836349E+02</totfact>
</mgrwt>
</event>
<event>
 5    1  0.8891499E-003  0.7264095E+02  0.7546771E-02  0.1416159E+00
          2   -1    0    0  502    0  0.00000000000E+00  0.00000000000E+00  0.90031778621E+03  0.90031778621E+03  0.00000000000E+00 0. -1.
         -2   -1    0    0    0  501 -0.00000000000E+00 -0.00000000000E+00 -0.30039403815E+02  0.30039403815E+02  0.00000000000E+00 0.  1.
         25    1    1    2    0    0 -0.77973091913E+02  0.21316413406E+02  0.72450087472E+03  0.73963552512E+03  0.12500000000E+03 0.  0.
          1    1    1    2  502    0  0.46886050373E+02 -0.50920385152E+02  0.12532716440E+03  0.14317152469E+03  0.00000000000E+00 0. -1.
         -1    1    1    2    0  501  0.31087041540E+02  0.29603971746E+02  0.20450343262E+02  0.47550140214E+02  0.00000000000E+00 0.  1.
<mgrwt>
<rscale>  0 0.55841909E+02</rscale>
<asrwt>0</asrwt>
<pdfrwt beam="1">  1        2 0.13851041E+00 0.72640946E+02</pdfrwt>
<pdfrwt beam="2">  1       -2 0.46214474E-02 0.42927838E+02</pdfrwt>
<totfact> 0.59180312E+03</totfact>
</mgrwt>
</event>
<event>
 5    1  0.8891499E-003  0.1188394E+03  0.7546771E-02  0.1307332E+00
          1   -1    0    0  501    0 -0.00000000000E+00  0.00000000000E+00  0.23086698987E+03  0.23086698987E+03  0.00000000000E+00 0. -1.
          2   -1    0    0  502    0  0.00000000000E+00 -0.00000000000E+00 -0.29483373654E+04  0.29483373654E+04  0.00000000000E+00 0. -1.
         25    1    1    2    0    0 -0.16753205830E+03  0.69546753038E+02 -0.38448344170E+03  0.44312104256E+03  0.12500000000E+03 0.  0.
          2    1    1    2  501    0  0.61025272068E+02 -0.23581454411E+02  0.19487368610E+03  0.20556245367E+03  0.00000000000E+00 0. -1.
          1    1    1    2  502    0  0.10650678623E+03 -0.45965298627E+02 -0.25278606200E+04  0.25305208591E+04  0.00000000000E+00 0. -1.
<mgrwt>
<rscale>  0 0.88174984E+02</rscale>
<asrwt>0</asrwt>
<pdfrwt beam="2">  1        2 0.45359033E+00 0.11883937E+03</pdfrwt>
<pdfrwt beam="1">  1        1 0.35518001E-01 0.65422999E+02</pdfrwt>
<totfact> 0.41621297E+01</totfact>
</mgrwt>
</event>
<event>
 5    1  0.8891499E-003  0.6849554E+02  0.7546771E-02  0.1369049E+00
         -2   -1    0    0    0  501 -0.00000000000E+00  0.00000000000E+00  0.53683355312E+03  0.53683355312E+03  0.00000000000E+00 0.  1.
          2   -1    0    0  502    0  0.00000000000E+00 -0.00000000000E+00 -0.15536061576E+04  0.15536061576E+04  0.00000000000E+00 0. -1.
         25    1    1    2    0    0  0.86588431424E+02 -0.46408804681E+02  0.22477513514E+03  0.27531835207E+03  0.12500000000E+03 0.  0.
          1    1    1    2  502    0 -0.21449490051E+02  0.62824595237E+02 -0.15236681377E+04  0.15251136365E+04  0.00000000000E+00 0. -1.
         -1    1    1    2    0  501 -0.65138941373E+02 -0.16415790556E+02  0.28212039810E+03  0.29000772212E+03  0.00000000000E+00 0.  1.
<mgrwt>
<rscale>  0 0.67432176E+02</rscale>
<asrwt>0</asrwt>
<pdfrwt beam="2">  1        2 0.23901633E+00 0.66385318E+02</pdfrwt>
<pdfrwt beam="1">  1       -2 0.82589779E-01 0.68495543E+02</pdfrwt>
<totfact> 0.19909852E+01</totfact>
</mgrwt>
</event>
<event>
 5    1  0.8891499E-003  0.7182660E+02  0.7546771E-02  0.1462413E+00
         -2   -1    0    0    0  501 -0.00000000000E+00  0.00000000000E+00  0.27733870464E+02  0.27733870464E+02  0.00000000000E+00 0.  1.
          2   -1    0    0  502    0  0.00000000000E+00 -0.00000000000E+00 -0.11852345940E+04  0.11852345940E+04  0.00000000000E+00 0. -1.
         25    1    1    2    0    0 -0.38425024704E+02 -0.87037400920E+02 -0.24154210010E+03  0.28813118159E+03  0.12500000000E+03 0.  0.
          3    1    1    2  502    0  0.42087267014E+02  0.56542838163E+02 -0.83930123035E+03  0.84225589096E+03  0.00000000000E+00 0. -1.
         -3    1    1    2    0  501 -0.36622423093E+01  0.30494562757E+02 -0.76657393118E+02  0.82581391948E+02  0.00000000000E+00 0.  1.
<mgrwt>
<rscale>  0 0.46968708E+02</rscale>
<asrwt>0</asrwt>
<pdfrwt beam="2">  1        2 0.18234374E+00 0.71826603E+02</pdfrwt>
<pdfrwt beam="1">  1       -2 0.42667503E-02 0.30713684E+02</pdfrwt>
<totfact> 0.43704312E+03</totfact>
</mgrwt>
</event>
<event>
 5    1  0.8891499E-003  0.1476860E+03  0.7546771E-02  0.1316612E+00
          1   -1    0    0  501    0 -0.00000000000E+00  0.00000000000E+00  0.20845295440E+03  0.20845295440E+03  0.00000000000E+00 0. -1.
          2   -1    0    0  502    0  0.00000000000E+00 -0.00000000000E+00 -0.13522892982E+04  0.13522892982E+04  0.00000000000E+00 0. -1.
         25    1    1    2    0    0  0.18412967738E+02  0.11086796500E+03 -0.30630071411E+03  0.34939357537E+03  0.12500000000E+03 0.  0.
          2    1    1    2  501    0  0.26528018804E+02  0.40488690067E+02  0.17756398750E+03  0.18404358033E+03  0.00000000000E+00 0. -1.
          1    1    1    2  502    0 -0.44940986542E+02 -0.15135665507E+03 -0.10150996172E+04  0.10273050969E+04  0.00000000000E+00 0. -1.
<mgrwt>
<rscale>  0 0.84550445E+02</rscale>
<asrwt>0</asrwt>
<pdfrwt beam="2">  1        2 0.20804451E+00 0.14768595E+03</pdfrwt>
<pdfrwt beam="1">  1        1 0.32069685E-01 0.48405266E+02</pdfrwt>
<totfact> 0.31691474E+02</totfact>
</mgrwt>
</event>
<event>
 5    1  0.8891499E-003  0.2985409E+03  0.7546771E-02  0.1239351E+00
          2   -1    0    0  502    0  0.00000000000E+00  0.00000000000E+00  0.40544107899E+03  0.40544107899E+03  0.00000000000E+00 0. -1.
          1   -1    0    0  501    0 -0.00000000000E+00 -0.00000000000E+00 -0.86896312235E+03  0.86896312235E+03  0.00000000000E+00 0. -1.
         25    1    1    2    0    0 -0.91783157190E+02 -0.29276518473E+03 -0.37468194701E+03  0.50014714110E+03  0.12500000000E+03 0.  0.
          2    1    1    2  501    0  0.50055491150E+02 -0.21341636510E+01 -0.36480139868E+03  0.36822570162E+03  0.00000000000E+00 0. -1.
          1    1    1    2  502    0  0.41727666040E+02  0.29489934838E+03  0.27596130234E+03  0.40603135862E+03  0.00000000000E+00 0. -1.
<mgrwt>
<rscale>  0 0.12229958E+03</rscale>
<asrwt>0</asrwt>
<pdfrwt beam="1">  1        2 0.62375551E-01 0.29854088E+03</pdfrwt>
<pdfrwt beam="2">  1        1 0.13368663E+00 0.50100967E+02</pdfrwt>
<totfact> 0.23820781E+02</totfact>
</mgrwt>
</event>
<event>
 5    1  0.8891499E-003  0.5634508E+02  0.7546771E-02  0.1501046E+00
          2   -1    0    0  502    0  0.00000000000E+00  0.00000000000E+00  0.20013903309E+04  0.20013903309E+04  0.00000000000E+00 0. -1.
          1   -1    0    0  501    0 -0.00000000000E+00 -0.00000000000E+00 -0.31147174023E+03  0.31147174023E+03  0.00000000000E+00 0. -1.
         25    1    1    2    0    0 -0.47031421164E+02  0.68745008569E+02  0.26924171947E+03  0.30830818070E+03  0.12500000000E+03 0.  0.
          2    1    1    2  501    0  0.23677955743E+02 -0.18127368982E+02 -0.29072199642E+03  0.29224737176E+03  0.00000000000E+00 0. -1.
          1    1    1    2  502    0  0.23353465421E+02 -0.50617639587E+02  0.17113988676E+04  0.17123065187E+04  0.00000000000E+00 0. -1.
<mgrwt>
<rscale>  0 0.40990537E+02</rscale>
<asrwt>0</asrwt>
<pdfrwt beam="1">  1        2 0.30790620E+00 0.56345077E+02</pdfrwt>
<pdfrwt beam="2">  1        1 0.47918730E-01 0.29820246E+02</pdfrwt>
<totfact> 0.10038063E+02</totfact>
</mgrwt>
</event>
<event>
 5    1  0.8891499E-003  0.2717398E+02  0.7546771E-02  0.1653950E+00
         -1   -1    0    0    0  501 -0.00000000000E+00  0.00000000000E+00  0.10488655730E+04  0.10488655730E+04  0.00000000000E+00 0.  1.
          1   -1    0    0  502    0  0.00000000000E+00 -0.00000000000E+00 -0.23969885027E+02  0.23969885027E+02  0.00000000000E+00 0. -1.
         25    1    1    2    0    0  0.42784887295E+02 -0.73210118043E+01  0.75378153281E+03  0.76530761332E+03  0.12500000000E+03 0.  0.
          2    1    1    2  502    0 -0.18178410106E+02  0.15555412913E+02 -0.94810166185E+01  0.25735484083E+02  0.00000000000E+00 0. -1.
         -2    1    1    2    0  501 -0.24606477189E+02 -0.82344011085E+01  0.28059517173E+03  0.28179236058E+03  0.00000000000E+00 0.  1.
<mgrwt>
<rscale>  0 0.25498015E+02</rscale>
<asrwt>0</asrwt>
<pdfrwt beam="2">  1        1 0.36876754E-02 0.23925415E+02</pdfrwt>
<pdfrwt beam="1">  1       -1 0.16136390E+00 0.27173982E+02</pdfrwt>
<totfact> 0.71246069E+02</totfact>
</mgrwt>
</event>
<event>
 5    1  0.8891499E-003  0.2303242E+03  0.7546771E-02  0.1126412E+00
         -1   -1    0    0    0  501 -0.00000000000E+00  0.00000000000E+00  0.65233158180E+02  0.65233158180E+02  0.00000000000E+00 0.  1.
          1   -1    0    0  502    0  0.00000000000E+00 -0.00000000000E+00 -0.20330619900E+03  0.20330619900E+03  0.00000000000E+00 0. -1.
         25    1    1    2    0    0 -0.51876077126E+02 -0.53964072535E+02 -0.70829673009E+02  0.16200336750E+03  0.12500000000E+03 0.  0.
          2    1    1    2  502    0  0.15484901431E+02  0.19098528198E+02 -0.45354014859E+02  0.51589946845E+02  0.00000000000E+00 0. -1.
         -2    1    1    2    0  501  0.36391175695E+02  0.34865544337E+02 -0.21889352951E+02  0.54946042833E+02  0.00000000000E+00 0.  1.
<mgrwt>
<rscale>  0 0.23032417E+03</rscale>
<asrwt>0</asrwt>
<pdfrwt beam="2">  1        1 0.31277877E-01 0.23032417E+03</pdfrwt>
<pdfrwt beam="1">  1       -1 0.10035871E-01 0.23032417E+03</pdfrwt>
<totfact> 0.85366426E+03</totfact>
</mgrwt>
</event>
<event>
 5    1  0.8891499E-003  0.8621545E+02  0.7546771E-02  0.1391224E+00
          2   -1    0    0  502    0  0.00000000000E+00  0.00000000000E+00  0.93756676675E+02  0.93756676675E+02  0.00000000000E+00 0. -1.
          1   -1    0    0  501    0 -0.00000000000E+00 -0.00000000000E+00 -0.36413683299E+03  0.36413683299E+03  0.00000000000E+00 0. -1.
         25    1    1    2    0    0 -0.43055909092E+02  0.48769061683E+02 -0.53411573429E+02  0.15069847000E+03  0.12500000000E+03 0.  0.
          2    1    1    2  501    0  0.84413567119E+02 -0.33700843284E+02 -0.24062810770E+03  0.25722224508E+03  0.00000000000E+00 0. -1.
          1    1    1    2  502    0 -0.41357658027E+02 -0.15068218400E+02  0.23659524814E+02  0.49972794576E+02  0.00000000000E+00 0. -1.
<mgrwt>
<rscale>  0 0.61603215E+02</rscale>
<asrwt>0</asrwt>
<pdfrwt beam="1">  1        2 0.14424104E-01 0.44017123E+02</pdfrwt>
<pdfrwt beam="2">  1        1 0.56021051E-01 0.86215452E+02</pdfrwt>
<totfact> 0.34934732E+03</totfact>
</mgrwt>
</event>
<event>
 5    1  0.8891499E-003  0.3427075E+03  0.7546771E-02  0.1148594E+00
          1   -1    0    0  501    0 -0.00000000000E+00  0.00000000000E+00  0.81672880269E+03  0.81672880269E+03  0.00000000000E+00 0. -1.
          2   -1    0    0  502    0  0.00000000000E+00 -0.00000000000E+00 -0.17133029534E+04  0.17133029534E+04  0.00000000000E+00 0. -1.
         25    1    1    2    0    0  0.22391910337E+03  0.27414922785E+03 -0.35713991196E+03  0.51814233634E+03  0.12500000000E+03 0.  0.
          2    1    1    2  501    0  0.69968674871E+02 -0.95407595591E+02  0.70804177910E+03  0.71785888983E+03  0.00000000000E+00 0. -1.
          1    1    1    2  502    0 -0.29388777824E+03 -0.17874163226E+03 -0.12474760179E+04  0.12940305299E+04  0.00000000000E+00 0. -1.
<mgrwt>
<rscale>  0 0.20136318E+03</rscale>
<asrwt>0</asrwt>
<pdfrwt beam="2">  1        2 0.26358507E+00 0.34270751E+03</pdfrwt>
<pdfrwt beam="1">  1        1 0.12565059E+00 0.11831409E+03</pdfrwt>
<totfact> 0.33025445E+01</totfact>
</mgrwt>
</event>
<event>
 5    1  0.8891499E-003  0.2404271E+03  0.7546771E-02  0.1267892E+00
          2   -1    0    0  502    0  0.00000000000E+00  0.00000000000E+00  0.18588773703E+04  0.18588773703E+04  0.00000000000E+00 0. -1.
          1   -1    0    0  501    0 -0.00000000000E+00 -0.00000000000E+00 -0.10773140059E+04  0.10773140059E+04  0.00000000000E+00 0. -1.
         25    1    1    2    0    0  0.26252615979E+03  0.10697141394E+03 -0.43604829152E+02  0.31287257646E+03  0.12500000000E+03 0.  0.
          2    1    1    2  501    0 -0.46454928602E+02 -0.61161738276E+01 -0.89021223920E+03  0.89144450124E+03  0.00000000000E+00 0. -1.
          1    1    1    2  502    0 -0.21607123119E+03 -0.10085524012E+03  0.17153804328E+04  0.17318742985E+04  0.00000000000E+00 0. -1.
<mgrwt>
<rscale>  0 0.10613863E+03</rscale>
<asrwt>0</asrwt>
<pdfrwt beam="1">  1        2 0.28598113E+00 0.24042710E+03</pdfrwt>
<pdfrwt beam="2">  1        1 0.16574062E+00 0.46855821E+02</pdfrwt>
<totfact> 0.19456112E+01</totfact>
</mgrwt>
</event>
<event>
 5    1  0.8891499E-003  0.5910375E+02  0.7546771E-02  0.1450443E+00
          2   -1    0    0  502    0  0.00000000000E+00  0.00000000000E+00  0.12850992714E+04  0.12850992714E+04  0.00000000000E+00 0. -1.
          1   -1    0    0  501    0 -0.00000000000E+00 -0.00000000000E+00 -0.14679269479E+03  0.14679269479E+03  0.00000000000E+00 0. -1.
         25    1    1    2    0    0 -0.92608675447E+02 -0.18459776770E+02 -0.87021935180E+00  0.15666169732E+03  0.12500000000E+03 0.  0.
          2    1    1    2  501    0  0.53920578819E+02  0.57140553951E+01 -0.56819788153E+02  0.78540229023E+02  0.00000000000E+00 0. -1.
          1    1    1    2  502    0  0.38688096628E+02  0.12745721375E+02  0.11959965841E+04  0.11966900398E+04  0.00000000000E+00 0. -1.
<mgrwt>
<rscale>  0 0.49066338E+02</rscale>
<asrwt>0</asrwt>
<pdfrwt beam="1">  1        2 0.19770757E+00 0.40733552E+02</pdfrwt>
<pdfrwt beam="2">  1        1 0.22583492E-01 0.59103746E+02</pdfrwt>
<totfact> 0.58006863E+02</totfact>
</mgrwt>
</event>
<event>
 5    1  0.8891499E-003  0.7588149E+02  0.7546771E-02  0.1449566E+00
         -2   -1    0    0    0  501  0.00000000000E+00  0.00000000000E+00  0.46778741997E+03  0.46778741997E+03  0.00000000000E+00 0.  1.
         -1   -1    0    0    0  502 -0.00000000000E+00 -0.00000000000E+00 -0.13178655061E+03  0.13178655061E+03  0.00000000000E+00 0.  1.
         25    1    1    2    0    0 -0.77138508462E+02  0.60497830324E+02  0.12719288375E+03  0.20350274357E+03  0.12500000000E+03 0.  0.
         -2    1    1    2    0  502  0.31830349466E+02 -0.25562071549E+01 -0.86256317776E+02  0.91977484736E+02  0.00000000000E+00 0.  1.
         -1    1    1    2    0  501  0.45308158996E+02 -0.57941623169E+02  0.29506430338E+03  0.30409374228E+03  0.00000000000E+00 0.  1.
<mgrwt>
<rscale>  0 0.49225100E+02</rscale>
<asrwt>0</asrwt>
<pdfrwt beam="1">  1       -2 0.71967294E-01 0.75881494E+02</pdfrwt>
<pdfrwt beam="2">  1       -1 0.20274854E-01 0.31932825E+02</pdfrwt>
<totfact> 0.24750087E+02</totfact>
</mgrwt>
</event>
<event>
 5    1  0.8891499E-003  0.8306041E+02  0.7546771E-02  0.1500129E+00
          1   -1    0    0  501    0 -0.00000000000E+00  0.00000000000E+00  0.22973222159E+03  0.22973222159E+03  0.00000000000E+00 0. -1.
          2   -1    0    0  502    0  0.00000000000E+00 -0.00000000000E+00 -0.70387414846E+03  0.70387414846E+03  0.00000000000E+00 0. -1.
         25    1    1    2    0    0 -0.97855178460E+01  0.84134365399E+02 -0.59407791583E+02  0.16226100425E+03  0.12500000000E+03 0.  0.
          2    1    1    2  501    0  0.29144289917E+02 -0.77838882885E+02  0.16843235159E+03  0.18782368963E+03  0.00000000000E+00 0. -1.
          3    1    1    2  502    0 -0.19358772071E+02 -0.62954825135E+01 -0.58316648687E+03  0.58352167617E+03  0.00000000000E+00 0. -1.
<mgrwt>
<rscale>  0 0.41119771E+02</rscale>
<asrwt>0</asrwt>
<pdfrwt beam="2">  1        2 0.10828833E+00 0.20356698E+02</pdfrwt>
<pdfrwt beam="1">  1        1 0.35343419E-01 0.83060406E+02</pdfrwt>
<totfact> 0.74571102E+02</totfact>
</mgrwt>
</event>
<event>
 5    1  0.8891499E-003  0.4970769E+02  0.7546771E-02  0.1482940E+00
          2   -1    0    0  502    0  0.00000000000E+00  0.00000000000E+00  0.24641751022E+03  0.24641751022E+03  0.00000000000E+00 0. -1.
         -2   -1    0    0    0  501 -0.00000000000E+00 -0.00000000000E+00 -0.14850029696E+03  0.14850029696E+03  0.00000000000E+00 0.  1.
         25    1    1    2    0    0  0.58054367641E+01  0.21866210788E+02 -0.20621700580E+01  0.12704757698E+03  0.12500000000E+03 0.  0.
          1    1    1    2  502    0  0.24389583636E+02 -0.45481694997E+02  0.17563345276E+03  0.18305885965E+03  0.00000000000E+00 0. -1.
         -1    1    1    2    0  501 -0.30195020400E+02  0.23615484209E+02 -0.75654069438E+02  0.84811370546E+02  0.00000000000E+00 0.  1.
<mgrwt>
<rscale>  0 0.43651486E+02</rscale>
<asrwt>0</asrwt>
<pdfrwt beam="1">  1        2 0.37910386E-01 0.49707687E+02</pdfrwt>
<pdfrwt beam="2">  1       -2 0.22846199E-01 0.38333150E+02</pdfrwt>
<totfact> 0.20640870E+03</totfact>
</mgrwt>
</event>
<event>
 5    1  0.8891499E-003  0.6393480E+02  0.7546771E-02  0.1402271E+00
          1   -1    0    0  501    0 -0.00000000000E+00  0.00000000000E+00  0.14444452970E+03  0.14444452970E+03  0.00000000000E+00 0. -1.
          2   -1    0    0  502    0  0.00000000000E+00 -0.00000000000E+00 -0.73842284640E+03  0.73842284640E+03  0.00000000000E+00 0. -1.
         25    1    1    2    0    0 -0.65787392274E+02 -0.40579737579E+02 -0.47335346181E+02  0.15440314466E+03  0.12500000000E+03 0.  0.
          2    1    1    2  501    0  0.63146014912E+02 -0.13718599109E+02  0.78096442252E+02  0.10136406391E+03  0.00000000000E+00 0. -1.
          1    1    1    2  502    0  0.26413773615E+01  0.54298336688E+02 -0.62473941277E+03  0.62710016752E+03  0.00000000000E+00 0. -1.
<mgrwt>
<rscale>  0 0.58954716E+02</rscale>
<asrwt>0</asrwt>
<pdfrwt beam="2">  1        2 0.11360351E+00 0.54362544E+02</pdfrwt>
<pdfrwt beam="1">  1        1 0.22222236E-01 0.63934802E+02</pdfrwt>
<totfact> 0.12021662E+03</totfact>
</mgrwt>
</event>
<event>
 5    1  0.8891499E-003  0.8985818E+02  0.7546771E-02  0.1400701E+00
          2   -1    0    0  502    0  0.00000000000E+00  0.00000000000E+00  0.58594403207E+03  0.58594403207E+03  0.00000000000E+00 0. -1.
         -2   -1    0    0    0  501 -0.00000000000E+00 -0.00000000000E+00 -0.10667681755E+03  0.10667681755E+03  0.00000000000E+00 0.  1.
         25    1    1    2    0    0 -0.36861910544E+02 -0.44775516225E+02  0.15284602698E+03  0.20579250536E+03  0.12500000000E+03 0.  0.
          1    1    1    2  502    0 -0.35157548888E+02 -0.17252002591E+02  0.37708983233E+03  0.37911795854E+03  0.00000000000E+00 0. -1.
         -1    1    1    2    0  501  0.72019459432E+02  0.62027518817E+02 -0.50668644792E+02  0.10771038572E+03  0.00000000000E+00 0.  1.
<mgrwt>
<rscale>  0 0.59321597E+02</rscale>
<asrwt>0</asrwt>
<pdfrwt beam="1">  1        2 0.90145234E-01 0.39162288E+02</pdfrwt>
<pdfrwt beam="2">  1       -2 0.16411818E-01 0.89858178E+02</pdfrwt>
<totfact> 0.15222771E+03</totfact>
</mgrwt>
</event>
<event>
 5    1  0.8891499E-003  0.8522035E+02  0.7546771E-02  0.1319971E+00
          2   -1    0    0  502    0  0.00000000000E+00  0.00000000000E+00  0.83235509191E+03  0.83235509191E+03  0.00000000000E+00 0. -1.
         -2   -1    0    0    0  501 -0.00000000000E+00 -0.00000000000E+00 -0.75270839266E+03  0.75270839266E+03  0.00000000000E+00 0.  1.
         25    1    1    2    0    0  0.36497228532E+02 -0.10400627856E+03  0.23872320818E+03  0.29114107198E+03  0.12500000000E+03 0.  0.
          1    1    1    2  502    0 -0.76241646507E+02  0.28515849894E+02  0.56197587111E+03  0.56784048998E+03  0.00000000000E+00 0. -1.
         -1    1    1    2    0  501  0.39744417975E+02  0.75490428663E+02 -0.72105238004E+03  0.72608192261E+03  0.00000000000E+00 0.  1.
<mgrwt>
<rscale>  0 0.83288216E+02</rscale>
<asrwt>0</asrwt>
<pdfrwt beam="1">  1        2 0.12805463E+00 0.81399892E+02</pdfrwt>
<pdfrwt beam="2">  1       -2 0.11580129E+00 0.85220345E+02</pdfrwt>
<totfact> 0.22621483E+01</totfact>
</mgrwt>
</event>
<event>
 5    1  0.8891499E-003  0.5892979E+02  0.7546771E-02  0.1468102E+00
          2   -1    0    0  502    0  0.00000000000E+00  0.00000000000E+00  0.43922224762E+03  0.43922224762E+03  0.00000000000E+00 0. -1.
         -2   -1    0    0    0  501 -0.00000000000E+00 -0.00000000000E+00 -0.84920595646E+03  0.84920595646E+03  0.00000000000E+00 0.  1.
         25    1    1    2    0    0 -0.70567617505E+02 -0.52235311827E+02 -0.13755880090E+03  0.20556201046E+03  0.12500000000E+03 0.  0.
          1    1    1    2  502    0  0.35406891195E+02  0.61137995480E+01  0.40317936623E+03  0.40477725708E+03  0.00000000000E+00 0. -1.
         -1    1    1    2    0  501  0.35160726310E+02  0.46121512279E+02 -0.67560427418E+03  0.67808893654E+03  0.00000000000E+00 0.  1.
<mgrwt>
<rscale>  0 0.46015192E+02</rscale>
<asrwt>0</asrwt>
<pdfrwt beam="1">  1        2 0.67572654E-01 0.35930857E+02</pdfrwt>
<pdfrwt beam="2">  1       -2 0.13064707E+00 0.58929791E+02</pdfrwt>
<totfact> 0.35456542E+01</totfact>
</mgrwt>
</event>
<event>
 5    1  0.8891499E-003  0.5189075E+02  0.7546771E-02  0.1439818E+00
          2   -1    0    0  502    0  0.00000000000E+00  0.00000000000E+00  0.94298471773E+03  0.94298471773E+03  0.00000000000E+00 0. -1.
         -2   -1    0    0    0  501 -0.00000000000E+00 -0.00000000000E+00 -0.44166228345E+02  0.44166228345E+02  0.00000000000E+00 0.  1.
         25    1    1    2    0    0  0.44928379780E+02 -0.89274276530E+02  0.80694794093E+03  0.82266544545E+03  0.12500000000E+03 0.  0.
          3    1    1    2  502    0 -0.28453789613E+02  0.41358295618E+02  0.10119777491E+03  0.11296511146E+03  0.00000000000E+00 0. -1.
         -3    1    1    2    0  501 -0.16474590167E+02  0.47915980911E+02 -0.93272264483E+01  0.51520389179E+02  0.00000000000E+00 0.  1.
<mgrwt>
<rscale>  0 0.51038813E+02</rscale>
<asrwt>0</asrwt>
<pdfrwt beam="1">  1        2 0.14507456E+00 0.50200864E+02</pdfrwt>
<pdfrwt beam="2">  1       -2 0.67948051E-02 0.51890748E+02</pdfrwt>
<totfact> 0.32949669E+03</totfact>
</mgrwt>
</event>
<event>
 5    1  0.8891499E-003  0.2717454E+03  0.7546771E-02  0.1283185E+00
          1   -1    0    0  501    0 -0.00000000000E+00  0.00000000000E+00  0.23874669398E+04  0.23874669398E+04  0.00000000000E+00 0. -1.
          2   -1    0    0  502    0  0.00000000000E+00 -0.00000000000E+00 -0.18485808879E+04  0.18485808879E+04  0.00000000000E+00 0. -1.
         25    1    1    2    0    0 -0.29505232318E+03 -0.76051340517E+02  0.22309466439E+03  0.39778877446E+03  0.12500000000E+03 0.  0.
          2    1    1    2  501    0  0.30558954988E+02  0.18656831759E+02  0.20664715658E+04  0.20667817154E+04  0.00000000000E+00 0. -1.
          1    1    1    2  502    0  0.26449336819E+03  0.57394508757E+02 -0.17506801783E+04  0.17714773378E+04  0.00000000000E+00 0. -1.
<mgrwt>
<rscale>  0 0.98638604E+02</rscale>
<asrwt>0</asrwt>
<pdfrwt beam="2">  1        2 0.28439706E+00 0.27174538E+03</pdfrwt>
<pdfrwt beam="1">  1        1 0.36730260E+00 0.35804010E+02</pdfrwt>
<totfact> 0.31050156E+00</totfact>
</mgrwt>
</event>
<event>
 5    1  0.8891499E-003  0.1464179E+03  0.7546771E-02  0.1348082E+00
          2   -1    0    0  502    0  0.00000000000E+00  0.00000000000E+00  0.81106839396E+03  0.81106839396E+03  0.00000000000E+00 0. -1.
          1   -1    0    0  501    0 -0.00000000000E+00 -0.00000000000E+00 -0.30254467273E+03  0.30254467273E+03  0.00000000000E+00 0. -1.
         25    1    1    2    0    0  0.10663174749E+03  0.60468141870E+02 -0.45458252967E+02  0.18088166993E+03  0.12500000000E+03 0.  0.
          2    1    1    2  501    0 -0.13150207697E+03 -0.87935060429E+02 -0.15577006454E+03  0.22201280168E+03  0.00000000000E+00 0. -1.
          1    1    1    2  502    0  0.24870329480E+02  0.27466918559E+02  0.70975203874E+03  0.71071859509E+03  0.00000000000E+00 0. -1.
<mgrwt>
<rscale>  0 0.73656642E+02</rscale>
<asrwt>0</asrwt>
<pdfrwt beam="1">  1        2 0.12477975E+00 0.37053541E+02</pdfrwt>
<pdfrwt beam="2">  1        1 0.46545335E-01 0.14641788E+03</pdfrwt>
<totfact> 0.44554284E+02</totfact>
</mgrwt>
</event>
<event>
 5    1  0.8891499E-003  0.8408259E+02  0.7546771E-02  0.1349045E+00
          1   -1    0    0  501    0 -0.00000000000E+00  0.00000000000E+00  0.11899672083E+03  0.11899672083E+03  0.00000000000E+00 0. -1.
          2   -1    0    0  502    0  0.00000000000E+00 -0.00000000000E+00 -0.16618663990E+04  0.16618663990E+04  0.00000000000E+00 0. -1.
         25    1    1    2    0    0 -0.63005582911E+01  0.12937378224E+03 -0.24219452489E+03  0.30176225817E+03  0.12500000000E+03 0.  0.
          2    1    1    2  501    0  0.36556631558E+02 -0.72983613176E+02  0.69636888258E+02  0.10729534617E+03  0.00000000000E+00 0. -1.
          1    1    1    2  502    0 -0.30256073266E+02 -0.56390169069E+02 -0.13703120415E+04  0.13718055155E+04  0.00000000000E+00 0. -1.
<mgrwt>
<rscale>  0 0.73354029E+02</rscale>
<asrwt>0</asrwt>
<pdfrwt beam="2">  1        2 0.25567175E+00 0.63994384E+02</pdfrwt>
<pdfrwt beam="1">  1        1 0.18307188E-01 0.84082591E+02</pdfrwt>
<totfact> 0.47645569E+02</totfact>
</mgrwt>
</event>
<event>
 5    1  0.8891499E-003  0.7437672E+02  0.7546771E-02  0.1372760E+00
         -2   -1    0    0    0  501 -0.00000000000E+00  0.00000000000E+00  0.77761857504E+03  0.77761857504E+03  0.00000000000E+00 0.  1.
          2   -1    0    0  502    0  0.00000000000E+00 -0.00000000000E+00 -0.17325585494E+04  0.17325585494E+04  0.00000000000E+00 0. -1.
         25    1    1    2    0    0  0.95497569247E+02  0.65318659590E+02 -0.20764566668E+03  0.26856663217E+03  0.12500000000E+03 0.  0.
          1    1    1    2  502    0 -0.36224616558E+02 -0.63936515957E+02 -0.14923707169E+04  0.14941788573E+04  0.00000000000E+00 0. -1.
         -1    1    1    2    0  501 -0.59272952689E+02 -0.13821436332E+01  0.74507640927E+03  0.74743163493E+03  0.00000000000E+00 0.  1.
<mgrwt>
<rscale>  0 0.66405770E+02</rscale>
<asrwt>0</asrwt>
<pdfrwt beam="2">  1        2 0.26654747E+00 0.74376722E+02</pdfrwt>
<pdfrwt beam="1">  1       -2 0.11963363E+00 0.59289065E+02</pdfrwt>
<totfact> 0.69558172E+00</totfact>
</mgrwt>
</event>
<event>
 5    1  0.8891499E-003  0.3919960E+02  0.7546771E-02  0.1554857E+00
         -1   -1    0    0    0  501 -0.00000000000E+00  0.00000000000E+00  0.77043901086E+03  0.77043901086E+03  0.00000000000E+00 0.  1.
          1   -1    0    0  502    0  0.00000000000E+00 -0.00000000000E+00 -0.73504465762E+03  0.73504465762E+03  0.00000000000E+00 0. -1.
         25    1    1    2    0    0 -0.60297800222E+02 -0.27408367116E+02 -0.47225152848E+02  0.14913838661E+03  0.12500000000E+03 0.  0.
          2    1    1    2  502    0  0.38270307593E+02  0.70093255225E+01 -0.63595492870E+03  0.63714395424E+03  0.00000000000E+00 0. -1.
         -2    1    1    2    0  501  0.22027492629E+02  0.20399041593E+02  0.71857443479E+03  0.71920132763E+03  0.00000000000E+00 0.  1.
<mgrwt>
<rscale>  0 0.34305356E+02</rscale>
<asrwt>0</asrwt>
<pdfrwt beam="2">  1        1 0.11308379E+00 0.39199600E+02</pdfrwt>
<pdfrwt beam="1">  1       -1 0.11852908E+00 0.30022181E+02</pdfrwt>
<totfact> 0.22158408E+01</totfact>
</mgrwt>
</event>
<event>
 5    1  0.8891499E-003  0.2604045E+03  0.7546771E-02  0.1213293E+00
          2   -1    0    0  502    0  0.00000000000E+00  0.00000000000E+00  0.13574499815E+04  0.13574499815E+04  0.00000000000E+00 0. -1.
          1   -1    0    0  501    0 -0.00000000000E+00 -0.00000000000E+00 -0.13095060225E+04  0.13095060225E+04  0.00000000000E+00 0. -1.
         25    1    1    2    0    0 -0.13133016794E+03 -0.19981907228E+03  0.24024724650E+03  0.36127415367E+03  0.12500000000E+03 0.  0.
          2    1    1    2  501    0  0.20000506307E+03  0.16894313242E+03 -0.12338987900E+04  0.12613683171E+04  0.00000000000E+00 0. -1.
          1    1    1    2  502    0 -0.68674895130E+02  0.30875939858E+02  0.10415955025E+04  0.10443135332E+04  0.00000000000E+00 0. -1.
<mgrwt>
<rscale>  0 0.14002698E+03</rscale>
<asrwt>0</asrwt>
<pdfrwt beam="1">  1        2 0.20883846E+00 0.75296513E+02</pdfrwt>
<pdfrwt beam="2">  1        1 0.20146246E+00 0.26040454E+03</pdfrwt>
<totfact> 0.23781081E+01</totfact>
</mgrwt>
</event>
<event>
 5    1  0.8891499E-003  0.1281691E+03  0.7546771E-02  0.1387236E+00
          1   -1    0    0  501    0 -0.00000000000E+00  0.00000000000E+00  0.21137327101E+02  0.21137327101E+02  0.00000000000E+00 0. -1.
          2   -1    0    0  502    0  0.00000000000E+00 -0.00000000000E+00 -0.27108419061E+04  0.27108419061E+04  0.00000000000E+00 0. -1.
         25    1    1    2    0    0 -0.13309102358E+03  0.36776410451E+01 -0.63899503306E+03  0.66457986569E+03  0.12500000000E+03 0.  0.
          2    1    1    2  501    0  0.94888735789E+01  0.29064725896E+02 -0.30633420731E+02  0.43280520779E+02  0.00000000000E+00 0. -1.
          1    1    1    2  502    0  0.12360215000E+03 -0.32742366941E+02 -0.20200761252E+04  0.20241188467E+04  0.00000000000E+00 0. -1.
<mgrwt>
<rscale>  0 0.62599525E+02</rscale>
<asrwt>0</asrwt>
<pdfrwt beam="2">  1        2 0.41705246E+00 0.12816912E+03</pdfrwt>
<pdfrwt beam="1">  1        1 0.32518975E-02 0.30574450E+02</pdfrwt>
<totfact> 0.10909966E+03</totfact>
</mgrwt>
</event>
<event>
 5    1  0.8891499E-003  0.3310800E+02  0.7546771E-02  0.1624196E+00
         -2   -1    0    0    0  501 -0.00000000000E+00  0.00000000000E+00  0.18975923372E+02  0.18975923372E+02  0.00000000000E+00 0.  1.
          2   -1    0    0  502    0  0.00000000000E+00 -0.00000000000E+00 -0.13251817859E+04  0.13251817859E+04  0.00000000000E+00 0. -1.
         25    1    1    2    0    0  0.40216228803E+02 -0.16404193358E+02 -0.81325828020E+03  0.82395416919E+03  0.12500000000E+03 0.  0.
          1    1    1    2  502    0 -0.20863624652E+02 -0.10337188998E+02 -0.48589058309E+03  0.48644815453E+03  0.00000000000E+00 0. -1.
         -1    1    1    2    0  501 -0.19352604151E+02  0.26741382356E+02 -0.70569992863E+01  0.33755385595E+02  0.00000000000E+00 0.  1.
<mgrwt>
<rscale>  0 0.27764892E+02</rscale>
<asrwt>0</asrwt>
<pdfrwt beam="2">  1        2 0.20387423E+00 0.23284078E+02</pdfrwt>
<pdfrwt beam="1">  1       -2 0.29193712E-02 0.33107998E+02</pdfrwt>
<totfact> 0.69563609E+03</totfact>
</mgrwt>
</event>
<event>
 5    1  0.8891499E-003  0.1859529E+03  0.7546771E-02  0.1314201E+00
          1   -1    0    0  501    0 -0.00000000000E+00  0.00000000000E+00  0.15050161592E+03  0.15050161592E+03  0.00000000000E+00 0. -1.
          2   -1    0    0  502    0  0.00000000000E+00 -0.00000000000E+00 -0.66250682561E+03  0.66250682561E+03  0.00000000000E+00 0. -1.
         25    1    1    2    0    0  0.12909134728E+02 -0.18727774955E+03 -0.17332561755E+03  0.28444045235E+03  0.12500000000E+03 0.  0.
          2    1    1    2  501    0 -0.51359855937E+02  0.17921435867E+03  0.11928505408E+01  0.18643241147E+03  0.00000000000E+00 0. -1.
          1    1    1    2  502    0  0.38450721209E+02  0.80633908784E+01 -0.33987244269E+03  0.34213557771E+03  0.00000000000E+00 0. -1.
<mgrwt>
<rscale>  0 0.85472519E+02</rscale>
<asrwt>0</asrwt>
<pdfrwt beam="2">  1        2 0.10192413E+00 0.39287100E+02</pdfrwt>
<pdfrwt beam="1">  1        1 0.23154094E-01 0.18595294E+03</pdfrwt>
<totfact> 0.13427041E+03</totfact>
</mgrwt>
</event>
<event>
 5    1  0.8891499E-003  0.7657438E+02  0.7546771E-02  0.1465090E+00
          2   -1    0    0  502    0  0.00000000000E+00  0.00000000000E+00  0.24878623365E+04  0.24878623365E+04  0.00000000000E+00 0. -1.
         -2   -1    0    0    0  501 -0.00000000000E+00 -0.00000000000E+00 -0.12926108470E+02  0.12926108470E+02  0.00000000000E+00 0.  1.
         25    1    1    2    0    0  0.69169434148E+02 -0.28464442721E+02  0.12519946459E+04  0.12604404899E+04  0.12500000000E+03 0.  0.
          1    1    1    2  502    0  0.82739257503E+01  0.27019022929E+02  0.10552892497E+04  0.10556675073E+04  0.00000000000E+00 0. -1.
         -1    1    1    2    0  501 -0.77443359899E+02  0.14454197927E+01  0.16765233239E+03  0.18468044776E+03  0.00000000000E+00 0.  1.
<mgrwt>
<rscale>  0 0.46516657E+02</rscale>
<asrwt>0</asrwt>
<pdfrwt beam="1">  1        2 0.38274767E+00 0.28257485E+02</pdfrwt>
<pdfrwt beam="2">  1       -2 0.19886340E-02 0.76574379E+02</pdfrwt>
<totfact> 0.37197756E+03</totfact>
</mgrwt>
</event>
<event>
 5    1  0.8891499E-003  0.2819252E+02  0.7546771E-02  0.1631851E+00
         -1   -1    0    0    0  501 -0.00000000000E+00  0.00000000000E+00  0.37110372768E+03  0.37110372768E+03  0.00000000000E+00 0.  1.
          1   -1    0    0  502    0  0.00000000000E+00 -0.00000000000E+00 -0.60387580048E+02  0.60387580048E+02  0.00000000000E+00 0. -1.
         25    1    1    2    0    0  0.42454609062E+02 -0.92665356881E+01  0.11616163393E+03  0.17608744337E+03  0.12500000000E+03 0.  0.
          2    1    1    2  502    0 -0.25666566653E+02 -0.10789770576E+02 -0.23103741956E+02  0.36179755184E+02  0.00000000000E+00 0. -1.
         -2    1    1    2    0  501 -0.16788042409E+02  0.20056306265E+02  0.21765825566E+03  0.21922410918E+03  0.00000000000E+00 0.  1.
<mgrwt>
<rscale>  0 0.27154752E+02</rscale>
<asrwt>0</asrwt>
<pdfrwt beam="2">  1        1 0.92903972E-02 0.28192518E+02</pdfrwt>
<pdfrwt beam="1">  1       -1 0.57092880E-01 0.26155187E+02</pdfrwt>
<totfact> 0.19846209E+03</totfact>
</mgrwt>
</event>
<event>
 5    1  0.8891499E-003  0.1666769E+03  0.7546771E-02  0.1303470E+00
          2   -1    0    0  502    0  0.00000000000E+00  0.00000000000E+00  0.35682022007E+03  0.35682022007E+03  0.00000000000E+00 0. -1.
          1   -1    0    0  501    0 -0.00000000000E+00 -0.00000000000E+00 -0.49908966731E+03  0.49908966731E+03  0.00000000000E+00 0. -1.
         25    1    1    2    0    0  0.12842315454E+03 -0.15544868780E+03  0.38970934931E+02  0.24041741811E+03  0.12500000000E+03 0.  0.
          2    1    1    2  501    0 -0.16430293273E+02  0.45443278030E+02 -0.36820520204E+03  0.37136251408E+03  0.00000000000E+00 0. -1.
          1    1    1    2  502    0 -0.11199286127E+03  0.11000540977E+03  0.18696481987E+03  0.24412995519E+03  0.00000000000E+00 0. -1.
<mgrwt>
<rscale>  0 0.89745273E+02</rscale>
<asrwt>0</asrwt>
<pdfrwt beam="1">  1        2 0.54895419E-01 0.16667691E+03</pdfrwt>
<pdfrwt beam="2">  1        1 0.76783025E-01 0.48322314E+02</pdfrwt>
<totfact> 0.58168300E+02</totfact>
</mgrwt>
</event>
<event>
 5    1  0.8891499E-003  0.5988281E+02  0.7546771E-02  0.1533051E+00
          1   -1    0    0  501    0 -0.00000000000E+00  0.00000000000E+00  0.22362775229E+03  0.22362775229E+03  0.00000000000E+00 0. -1.
          2   -1    0    0  502    0  0.00000000000E+00 -0.00000000000E+00 -0.11872186292E+04  0.11872186292E+04  0.00000000000E+00 0. -1.
         25    1    1    2    0    0 -0.31224552523E+02 -0.53468678503E+02 -0.81015200674E+02  0.16131439800E+03  0.12500000000E+03 0.  0.
          2    1    1    2  501    0  0.93380541973E+01  0.59233785866E+02  0.17845469616E+03  0.18826024335E+03  0.00000000000E+00 0. -1.
          1    1    1    2  502    0  0.21886498326E+02 -0.57651073622E+01 -0.10610303724E+04  0.10612717402E+04  0.00000000000E+00 0. -1.
<mgrwt>
<rscale>  0 0.36814821E+02</rscale>
<asrwt>0</asrwt>
<pdfrwt beam="2">  1        2 0.18264902E+00 0.22633057E+02</pdfrwt>
<pdfrwt beam="1">  1        1 0.34404270E-01 0.59882809E+02</pdfrwt>
<totfact> 0.40695555E+02</totfact>
</mgrwt>
</event>
<event>
 5    1  0.8891499E-003  0.9092129E+02  0.7546771E-02  0.1335253E+00
         -2   -1    0    0    0  501 -0.00000000000E+00  0.00000000000E+00  0.35831142794E+02  0.35831142794E+02  0.00000000000E+00 0.  1.
          2   -1    0    0  502    0  0.00000000000E+00 -0.00000000000E+00 -0.20072164949E+04  0.20072164949E+04  0.00000000000E+00 0. -1.
         25    1    1    2    0    0 -0.11334514176E+03  0.45011115695E+02 -0.15161046091E+04  0.15261295186E+04  0.12500000000E+03 0.  0.
          3    1    1    2  502    0  0.75236198170E+02  0.96879134206E+01 -0.44260481065E+03  0.44905830311E+03  0.00000000000E+00 0. -1.
         -1    1    1    2    0  501  0.38108943589E+02 -0.54699029116E+02 -0.12675932341E+02  0.67859816006E+02  0.00000000000E+00 0.  1.
<mgrwt>
<rscale>  0 0.77854379E+02</rscale>
<asrwt>0</asrwt>
<pdfrwt beam="2">  1        2 0.30880260E+00 0.90921295E+02</pdfrwt>
<pdfrwt beam="1">  1       -2 0.55124824E-02 0.66665399E+02</pdfrwt>
<totfact> 0.12354396E+03</totfact>
</mgrwt>
</event>
<event>
 5    1  0.8891499E-003  0.2982999E+02  0.7546771E-02  0.1600031E+00
          2   -1    0    0  502    0  0.00000000000E+00  0.00000000000E+00  0.22527976065E+03  0.22527976065E+03  0.00000000000E+00 0. -1.
          1   -1    0    0  501    0 -0.00000000000E+00 -0.00000000000E+00 -0.21330424382E+03  0.21330424382E+03  0.00000000000E+00 0. -1.
         25    1    1    2    0    0  0.38354551891E+02  0.37161732288E+01 -0.19275376251E+02  0.13221732762E+03  0.12500000000E+03 0.  0.
          2    1    1    2  501    0 -0.21306736390E+02  0.20862763650E+02 -0.13458787993E+03  0.13785183838E+03  0.00000000000E+00 0. -1.
          1    1    1    2  502    0 -0.17047815501E+02 -0.24578936879E+02  0.16583877300E+03  0.16851483847E+03  0.00000000000E+00 0. -1.
<mgrwt>
<rscale>  0 0.29824990E+02</rscale>
<asrwt>0</asrwt>
<pdfrwt beam="1">  1        2 0.34658425E-01 0.29829989E+02</pdfrwt>
<pdfrwt beam="2">  1        1 0.32816037E-01 0.29819992E+02</pdfrwt>
<totfact> 0.25273015E+03</totfact>
</mgrwt>
</event>
<event>
 5    1  0.8891499E-003  0.8238716E+02  0.7546771E-02  0.1370893E+00
          1   -1    0    0  502    0  0.00000000000E+00  0.00000000000E+00  0.18251848799E+04  0.18251848799E+04  0.00000000000E+00 0. -1.
         -1   -1    0    0    0  501 -0.00000000000E+00 -0.00000000000E+00 -0.39524938879E+02  0.39524938879E+02  0.00000000000E+00 0.  1.
         25    1    1    2    0    0  0.24338486941E+02  0.12758134942E+03  0.46801963258E+03  0.50153438481E+03  0.12500000000E+03 0.  0.
          2    1    1    2  502    0 -0.29436549391E+02 -0.73465136738E+02  0.13049631482E+04  0.13073608740E+04  0.00000000000E+00 0. -1.
         -2    1    1    2    0  501  0.50980624502E+01 -0.54116212679E+02  0.12677160295E+02  0.55814560006E+02  0.00000000000E+00 0.  1.
<mgrwt>
<rscale>  0 0.66919513E+02</rscale>
<asrwt>0</asrwt>
<pdfrwt beam="1">  1        1 0.28079761E+00 0.82387158E+02</pdfrwt>
<pdfrwt beam="2">  1       -1 0.60807612E-02 0.54355816E+02</pdfrwt>
<totfact> 0.57227834E+02</totfact>
</mgrwt>
</event>
<event>
 5    1  0.8891499E-003  0.5662535E+02  0.7546771E-02  0.1474322E+00
          1   -1    0    0  501    0 -0.00000000000E+00  0.00000000000E+00  0.64811069042E+03  0.64811069042E+03  0.00000000000E+00 0. -1.
          2   -1    0    0  502    0  0.00000000000E+00 -0.00000000000E+00 -0.57921746513E+03  0.57921746513E+03  0.00000000000E+00 0. -1.
         25    1    1    2    0    0 -0.72329714262E+01  0.37912422284E+02  0.10114516489E+03  0.16536327288E+03  0.12500000000E+03 0.  0.
          2    1    1    2  501    0 -0.25673600412E+02 -0.51926448372E+02  0.51263898954E+03  0.51590136984E+03  0.00000000000E+00 0. -1.
          1    1    1    2  502    0  0.32906571838E+02  0.14014026088E+02 -0.54489092914E+03  0.54606351284E+03  0.00000000000E+00 0. -1.
<mgrwt>
<rscale>  0 0.45003166E+02</rscale>
<asrwt>0</asrwt>
<pdfrwt beam="2">  1        2 0.89110379E-01 0.35766400E+02</pdfrwt>
<pdfrwt beam="1">  1        1 0.99709337E-01 0.56625350E+02</pdfrwt>
<totfact> 0.25061515E+02</totfact>
</mgrwt>
</event>
<event>
 5    1  0.8891499E-003  0.1407468E+03  0.7546771E-02  0.1269840E+00
          1   -1    0    0  501    0 -0.00000000000E+00  0.00000000000E+00  0.30806393665E+03  0.30806393665E+03  0.00000000000E+00 0. -1.
          2   -1    0    0  502    0  0.00000000000E+00 -0.00000000000E+00 -0.31945383023E+04  0.31945383023E+04  0.00000000000E+00 0. -1.
         25    1    1    2    0    0 -0.37173346383E+01  0.91986254614E+02 -0.13282019924E+04  0.13372437408E+04  0.12500000000E+03 0.  0.
          2    1    1    2  501    0 -0.67947172398E+02 -0.12413353109E+03  0.28616820379E+03  0.31924628838E+03  0.00000000000E+00 0. -1.
          1    1    1    2  502    0  0.71664507036E+02  0.32147276480E+02 -0.18444405770E+04  0.18461122098E+04  0.00000000000E+00 0. -1.
<mgrwt>
<rscale>  0 0.10514228E+03</rscale>
<asrwt>0</asrwt>
<pdfrwt beam="2">  1        2 0.49146742E+00 0.78544567E+02</pdfrwt>
<pdfrwt beam="1">  1        1 0.47394452E-01 0.14074683E+03</pdfrwt>
<totfact> 0.22654769E+01</totfact>
</mgrwt>
</event>
<event>
 5    1  0.8891499E-003  0.3856422E+02  0.7546771E-02  0.1536036E+00
          1   -1    0    0  502    0  0.00000000000E+00  0.00000000000E+00  0.56645037186E+03  0.56645037186E+03  0.00000000000E+00 0. -1.
         -1   -1    0    0    0  501 -0.00000000000E+00 -0.00000000000E+00 -0.73975241111E+03  0.73975241111E+03  0.00000000000E+00 0.  1.
         25    1    1    2    0    0 -0.57950513252E+02  0.29743613350E+02  0.11265467904E+03  0.18044118496E+03  0.12500000000E+03 0.  0.
          2    1    1    2  502    0  0.34455594742E+02  0.74495386762E+00  0.41866913534E+03  0.42008521499E+03  0.00000000000E+00 0. -1.
         -2    1    1    2    0  501  0.23494918510E+02 -0.30488567218E+02 -0.70462585364E+03  0.70567638301E+03  0.00000000000E+00 0.  1.
<mgrwt>
<rscale>  0 0.36456327E+02</rscale>
<asrwt>0</asrwt>
<pdfrwt beam="1">  1        1 0.87146211E-01 0.34463647E+02</pdfrwt>
<pdfrwt beam="2">  1       -1 0.11380806E+00 0.38564222E+02</pdfrwt>
<totfact> 0.33913978E+01</totfact>
</mgrwt>
</event>
<event>
 5    1  0.8891499E-003  0.2989749E+02  0.7546771E-02  0.1600168E+00
          1   -1    0    0  501    0 -0.00000000000E+00  0.00000000000E+00  0.12682045973E+04  0.12682045973E+04  0.00000000000E+00 0. -1.
          2   -1    0    0  502    0  0.00000000000E+00 -0.00000000000E+00 -0.60661747759E+02  0.60661747759E+02  0.00000000000E+00 0. -1.
         25    1    1    2    0    0 -0.69858061125E+00 -0.20559613118E+02  0.45761810495E+03  0.47482893307E+03  0.12500000000E+03 0.  0.
          2    1    1    2  501    0  0.28729101770E+02  0.10160111584E+02  0.79737315767E+03  0.79795522539E+03  0.00000000000E+00 0. -1.
          1    1    1    2  502    0 -0.28030521159E+02  0.10399501534E+02 -0.47448413083E+02  0.56082186590E+02  0.00000000000E+00 0. -1.
<mgrwt>
<rscale>  0 0.29812766E+02</rscale>
<asrwt>0</asrwt>
<pdfrwt beam="2">  1        2 0.93325775E-02 0.29897487E+02</pdfrwt>
<pdfrwt beam="1">  1        1 0.19510838E+00 0.29728285E+02</pdfrwt>
<totfact> 0.10066110E+03</totfact>
</mgrwt>
</event>
<event>
 5    1  0.8891499E-003  0.8760329E+02  0.7546771E-02  0.1474061E+00
         -1   -1    0    0    0  502 -0.00000000000E+00  0.00000000000E+00  0.44742981463E+03  0.44742981463E+03  0.00000000000E+00 0.  1.
         -2   -1    0    0    0  501  0.00000000000E+00 -0.00000000000E+00 -0.62809012685E+03  0.62809012685E+03  0.00000000000E+00 0.  1.
         25    1    1    2    0    0  0.12625518611E+02 -0.70441620980E+02 -0.22099190113E+03  0.26378750170E+03  0.12500000000E+03 0.  0.
         -2    1    1    2    0  502 -0.90092369119E+01 -0.21337878293E+02  0.42024025230E+03  0.42087805960E+03  0.00000000000E+00 0.  1.
         -1    1    1    2    0  501 -0.36162816991E+01  0.91779499272E+02 -0.37990866339E+03  0.39085438018E+03  0.00000000000E+00 0.  1.
<mgrwt>
<rscale>  0 0.45045028E+02</rscale>
<asrwt>0</asrwt>
<pdfrwt beam="2">  1       -2 0.96629250E-01 0.87603295E+02</pdfrwt>
<pdfrwt beam="1">  1       -1 0.68835356E-01 0.23161852E+02</pdfrwt>
<totfact> 0.16759118E+01</totfact>
</mgrwt>
</event>
<event>
 5    1  0.8891499E-003  0.6192554E+02  0.7546771E-02  0.1449919E+00
          1   -1    0    0  501    0 -0.00000000000E+00  0.00000000000E+00  0.14547736174E+03  0.14547736174E+03  0.00000000000E+00 0. -1.
          2   -1    0    0  502    0  0.00000000000E+00 -0.00000000000E+00 -0.27730565763E+03  0.27730565763E+03  0.00000000000E+00 0. -1.
         25    1    1    2    0    0  0.96558446575E+02 -0.19653123347E+02 -0.13755358089E+03  0.21037054565E+03  0.12500000000E+03 0.  0.
          2    1    1    2  501    0 -0.59765554745E+02  0.66353952140E+01  0.96444088067E+02  0.11365479368E+03  0.00000000000E+00 0. -1.
          3    1    1    2  502    0 -0.36792891829E+02  0.13017728133E+02 -0.90718803077E+02  0.98757680039E+02  0.00000000000E+00 0. -1.
<mgrwt>
<rscale>  0 0.49161212E+02</rscale>
<asrwt>0</asrwt>
<pdfrwt beam="2">  1        2 0.42662408E-01 0.39027915E+02</pdfrwt>
<pdfrwt beam="1">  1        1 0.22381133E-01 0.61925541E+02</pdfrwt>
<totfact> 0.33404958E+03</totfact>
</mgrwt>
</event>
<event>
 5    1  0.8891499E-003  0.6734181E+02  0.7546771E-02  0.1395270E+00
          1   -1    0    0  501    0 -0.00000000000E+00  0.00000000000E+00  0.51649146361E+02  0.51649146361E+02  0.00000000000E+00 0. -1.
          2   -1    0    0  502    0  0.00000000000E+00 -0.00000000000E+00 -0.28200631338E+04  0.28200631338E+04  0.00000000000E+00 0. -1.
         25    1    1    2    0    0 -0.56511039407E+02  0.90212177755E+02 -0.22840509991E+03  0.28129277320E+03  0.12500000000E+03 0.  0.
          2    1    1    2  501    0  0.49113410688E+02 -0.23761473806E+02 -0.52859926759E+01  0.54814929220E+02  0.00000000000E+00 0. -1.
          1    1    1    2  502    0  0.73976287196E+01 -0.66450703949E+02 -0.25347228948E+04  0.25356045777E+04  0.00000000000E+00 0. -1.
<mgrwt>
<rscale>  0 0.60614623E+02</rscale>
<asrwt>0</asrwt>
<pdfrwt beam="2">  1        2 0.43385601E+00 0.67341805E+02</pdfrwt>
<pdfrwt beam="1">  1        1 0.79460199E-02 0.54559461E+02</pdfrwt>
<totfact> 0.34690850E+02</totfact>
</mgrwt>
</event>
<event>
 5    1  0.8891499E-003  0.5547955E+02  0.7546771E-02  0.1435452E+00
          1   -1    0    0  501    0 -0.00000000000E+00  0.00000000000E+00  0.49613580345E+02  0.49613580345E+02  0.00000000000E+00 0. -1.
          2   -1    0    0  502    0  0.00000000000E+00 -0.00000000000E+00 -0.72379131645E+03  0.72379131645E+03  0.00000000000E+00 0. -1.
         25    1    1    2    0    0 -0.78609510595E+02  0.97253225236E+01 -0.41136623231E+03  0.43717412337E+03  0.12500000000E+03 0.  0.
          2    1    1    2  501    0  0.40182929463E+02  0.27186636212E+02  0.16987228423E+02  0.51403763853E+02  0.00000000000E+00 0. -1.
          1    1    1    2  502    0  0.38426581131E+02 -0.36911958735E+02 -0.27979873221E+03  0.28482700957E+03  0.00000000000E+00 0. -1.
<mgrwt>
<rscale>  0 0.51880957E+02</rscale>
<asrwt>0</asrwt>
<pdfrwt beam="2">  1        2 0.11135251E+00 0.55479551E+02</pdfrwt>
<pdfrwt beam="1">  1        1 0.76328588E-02 0.48515781E+02</pdfrwt>
<totfact> 0.46852085E+03</totfact>
</mgrwt>
</event>
<event>
 5    1  0.8891499E-003  0.5322747E+02  0.7546771E-02  0.1472604E+00
         -1   -1    0    0    0  501 -0.00000000000E+00  0.00000000000E+00  0.10264786649E+03  0.10264786649E+03  0.00000000000E+00 0.  1.
          1   -1    0    0  502    0  0.00000000000E+00 -0.00000000000E+00 -0.18763903604E+03  0.18763903604E+03  0.00000000000E+00 0. -1.
         25    1    1    2    0    0 -0.20389620472E+02 -0.75910872135E+02 -0.84311170519E+02  0.17003402779E+03  0.12500000000E+03 0.  0.
          2    1    1    2  502    0 -0.56222176232E+01  0.47502290531E+02 -0.42077562148E+02  0.63707128117E+02  0.00000000000E+00 0. -1.
         -2    1    1    2    0  501  0.26011838095E+02  0.28408581604E+02  0.41397563110E+02  0.56545746624E+02  0.00000000000E+00 0.  1.
<mgrwt>
<rscale>  0 0.45279513E+02</rscale>
<asrwt>0</asrwt>
<pdfrwt beam="2">  1        1 0.28867544E-01 0.53227470E+02</pdfrwt>
<pdfrwt beam="1">  1       -1 0.15791980E-01 0.38518349E+02</pdfrwt>
<totfact> 0.41451186E+03</totfact>
</mgrwt>
</event>
<event>
 5    1  0.8891499E-003  0.5603168E+02  0.7546771E-02  0.1450871E+00
         -1   -1    0    0    0  501 -0.00000000000E+00  0.00000000000E+00  0.31986118122E+03  0.31986118122E+03  0.00000000000E+00 0.  1.
          1   -1    0    0  502    0  0.00000000000E+00 -0.00000000000E+00 -0.89599646005E+03  0.89599646005E+03  0.00000000000E+00 0. -1.
         25    1    1    2    0    0 -0.13836835310E+02 -0.28327206114E+02 -0.53210779480E+02  0.13946424513E+03  0.12500000000E+03 0.  0.
          2    1    1    2  502    0 -0.40994496062E+02  0.12410963254E+02 -0.79613225101E+03  0.79728360187E+03  0.00000000000E+00 0. -1.
         -2    1    1    2    0  501  0.54831331372E+02  0.15916242860E+02  0.27320775167E+03  0.27910979427E+03  0.00000000000E+00 0.  1.
<mgrwt>
<rscale>  0 0.48989275E+02</rscale>
<asrwt>0</asrwt>
<pdfrwt beam="2">  1        1 0.13784561E+00 0.42832006E+02</pdfrwt>
<pdfrwt beam="1">  1       -1 0.49209412E-01 0.56031677E+02</pdfrwt>
<totfact> 0.92492188E+01</totfact>
</mgrwt>
</event>
<event>
 5    1  0.8891499E-003  0.2492128E+03  0.7546771E-02  0.1172039E+00
          2   -1    0    0  502    0  0.00000000000E+00  0.00000000000E+00  0.82418802538E+03  0.82418802538E+03  0.00000000000E+00 0. -1.
          1   -1    0    0  501    0 -0.00000000000E+00 -0.00000000000E+00 -0.19924763124E+04  0.19924763124E+04  0.00000000000E+00 0. -1.
         25    1    1    2    0    0 -0.22269143704E+03 -0.81283717185E+02  0.15524106365E+03  0.30971487961E+03  0.12500000000E+03 0.  0.
          2    1    1    2  501    0 -0.36434768807E+02  0.11838055710E+03 -0.18841551051E+04  0.18882218908E+04  0.00000000000E+00 0. -1.
          1    1    1    2  502    0  0.25912620585E+03 -0.37096839919E+02  0.56062575445E+03  0.61872756739E+03  0.00000000000E+00 0. -1.
<mgrwt>
<rscale>  0 0.17569192E+03</rscale>
<asrwt>0</asrwt>
<pdfrwt beam="1">  1        2 0.12679816E+00 0.24921284E+03</pdfrwt>
<pdfrwt beam="2">  1        1 0.30653482E+00 0.12386060E+03</pdfrwt>
<totfact> 0.17594045E+01</totfact>
</mgrwt>
</event>
<event>
 5    1  0.8891499E-003  0.3517249E+02  0.7546771E-02  0.1596567E+00
         -2   -1    0    0    0  501 -0.00000000000E+00  0.00000000000E+00  0.33232742614E+02  0.33232742614E+02  0.00000000000E+00 0.  1.
          2   -1    0    0  502    0  0.00000000000E+00 -0.00000000000E+00 -0.11892457647E+04  0.11892457647E+04  0.00000000000E+00 0. -1.
         25    1    1    2    0    0 -0.25197007507E+02  0.19724231315E+02 -0.49647029170E+03  0.51296362935E+03  0.12500000000E+03 0.  0.
          1    1    1    2  502    0  0.35643724930E+02  0.38927355058E+01 -0.67725279476E+03  0.67820128024E+03  0.00000000000E+00 0. -1.
         -1    1    1    2    0  501 -0.10446717423E+02 -0.23616966821E+02  0.17710064329E+02  0.31313597770E+02  0.00000000000E+00 0.  1.
<mgrwt>
<rscale>  0 0.30138104E+02</rscale>
<asrwt>0</asrwt>
<pdfrwt beam="2">  1        2 0.18296091E+00 0.35172489E+02</pdfrwt>
<pdfrwt beam="1">  1       -2 0.51127290E-02 0.25824311E+02</pdfrwt>
<totfact> 0.34390803E+03</totfact>
</mgrwt>
</event>
<event>
 5    1  0.8891499E-003  0.4892997E+02  0.7546771E-02  0.1523849E+00
          2   -1    0    0  502    0  0.00000000000E+00  0.00000000000E+00  0.15036401995E+03  0.15036401995E+03  0.00000000000E+00 0. -1.
          1   -1    0    0  501    0 -0.00000000000E+00 -0.00000000000E+00 -0.61417765102E+03  0.61417765102E+03  0.00000000000E+00 0. -1.
         25    1    1    2    0    0  0.73432696240E+02 -0.10626559484E+02 -0.16475972608E+03  0.21971811937E+03  0.12500000000E+03 0.  0.
          2    1    1    2  501    0 -0.44672360403E+02  0.16900611475E+02 -0.41879878412E+03  0.42151354905E+03  0.00000000000E+00 0. -1.
          1    1    1    2  502    0 -0.28760335837E+02 -0.62740519904E+01  0.11974487914E+03  0.12331000254E+03  0.00000000000E+00 0. -1.
<mgrwt>
<rscale>  0 0.37951786E+02</rscale>
<asrwt>0</asrwt>
<pdfrwt beam="1">  1        2 0.23132926E-01 0.29436723E+02</pdfrwt>
<pdfrwt beam="2">  1        1 0.94488870E-01 0.48929973E+02</pdfrwt>
<totfact> 0.10675289E+03</totfact>
</mgrwt>
</event>
<event>
 5    1  0.8891499E-003  0.1137148E+03  0.7546771E-02  0.1373375E+00
         -1   -1    0    0    0  501 -0.00000000000E+00  0.00000000000E+00  0.20148579338E+02  0.20148579338E+02  0.00000000000E+00 0.  1.
          1   -1    0    0  502    0  0.00000000000E+00 -0.00000000000E+00 -0.29510593280E+04  0.29510593280E+04  0.00000000000E+00 0. -1.
         25    1    1    2    0    0  0.10508841354E+03  0.66462822704E+02 -0.87173247337E+03  0.88938371168E+03  0.12500000000E+03 0.  0.
          2    1    1    2  502    0 -0.10916771857E+03 -0.28096249952E+02 -0.20308066990E+04  0.20339328502E+04  0.00000000000E+00 0. -1.
         -2    1    1    2    0  501  0.40793050312E+01 -0.38366572752E+02 -0.28371576197E+02  0.47891345462E+02  0.00000000000E+00 0.  1.
<mgrwt>
<rscale>  0 0.66237748E+02</rscale>
<asrwt>0</asrwt>
<pdfrwt beam="2">  1        1 0.45400902E+00 0.11371482E+03</pdfrwt>
<pdfrwt beam="1">  1       -1 0.30997822E-02 0.38582828E+02</pdfrwt>
<totfact> 0.25824841E+02</totfact>
</mgrwt>
</event>
<event>
 5    1  0.8891499E-003  0.6927825E+02  0.7546771E-02  0.1373759E+00
          2   -1    0    0  502    0  0.00000000000E+00  0.00000000000E+00  0.26860729725E+03  0.26860729725E+03  0.00000000000E+00 0. -1.
          1   -1    0    0  501    0 -0.00000000000E+00 -0.00000000000E+00 -0.24531203936E+04  0.24531203936E+04  0.00000000000E+00 0. -1.
         25    1    1    2    0    0  0.32488290905E+02  0.20813495139E+02  0.87609475496E+02  0.15744558051E+03  0.12500000000E+03 0.  0.
          2    1    1    2  501    0  0.31302096597E+02 -0.61803353478E+02 -0.24078309954E+04  0.24088274280E+04  0.00000000000E+00 0. -1.
          3    1    1    2  502    0 -0.63790387502E+02  0.40989858339E+02  0.13570842355E+03  0.15545468229E+03  0.00000000000E+00 0. -1.
<mgrwt>
<rscale>  0 0.66133069E+02</rscale>
<asrwt>0</asrwt>
<pdfrwt beam="1">  1        2 0.41324200E-01 0.63130678E+02</pdfrwt>
<pdfrwt beam="2">  1        1 0.37740313E+00 0.69278249E+02</pdfrwt>
<totfact> 0.34328834E+01</totfact>
</mgrwt>
</event>
<event>
 5    1  0.8891499E-003  0.1037570E+03  0.7546771E-02  0.1433624E+00
          2   -1    0    0  502    0  0.00000000000E+00  0.00000000000E+00  0.16430627248E+04  0.16430627248E+04  0.00000000000E+00 0. -1.
          1   -1    0    0  501    0 -0.00000000000E+00 -0.00000000000E+00 -0.22108046035E+03  0.22108046035E+03  0.00000000000E+00 0. -1.
         25    1    1    2    0    0  0.19035078649E+02  0.12789421749E+03  0.71862332189E+02  0.19367100938E+03  0.12500000000E+03 0.  0.
          2    1    1    2  501    0 -0.30099546488E+01 -0.26128550222E+02 -0.15732639708E+03  0.15950973695E+03  0.00000000000E+00 0. -1.
          1    1    1    2  502    0 -0.16025124001E+02 -0.10176566727E+03  0.15074463293E+04  0.15109624388E+04  0.00000000000E+00 0. -1.
<mgrwt>
<rscale>  0 0.52239335E+02</rscale>
<asrwt>0</asrwt>
<pdfrwt beam="1">  1        2 0.25277887E+00 0.10375697E+03</pdfrwt>
<pdfrwt beam="2">  1        1 0.34012379E-01 0.26301349E+02</pdfrwt>
<totfact> 0.21148337E+02</totfact>
</mgrwt>
</event>
<event>
 5    1  0.8891499E-003  0.1742538E+03  0.7546771E-02  0.1243441E+00
          2   -1    0    0  502    0  0.00000000000E+00  0.00000000000E+00  0.68819913780E+02  0.68819913780E+02  0.00000000000E+00 0. -1.
          1   -1    0    0  501    0 -0.00000000000E+00 -0.00000000000E+00 -0.22219355089E+04  0.22219355089E+04  0.00000000000E+00 0. -1.
         25    1    1    2    0    0  0.10114490364E+03  0.99930934275E+02 -0.31314037439E+03  0.36592127190E+03  0.12500000000E+03 0.  0.
          2    1    1    2  501    0  0.81080071903E+02 -0.14414805681E+02 -0.16366554994E+04  0.16387260260E+04  0.00000000000E+00 0. -1.
          1    1    1    2  502    0 -0.18222497554E+03 -0.85516128594E+02 -0.20331972131E+03  0.28610812472E+03  0.00000000000E+00 0. -1.
<mgrwt>
<rscale>  0 0.11979171E+03</rscale>
<asrwt>0</asrwt>
<pdfrwt beam="1">  1        2 0.10587677E-01 0.17425375E+03</pdfrwt>
<pdfrwt beam="2">  1        1 0.34183630E+00 0.82351470E+02</pdfrwt>
<totfact> 0.22313116E+02</totfact>
</mgrwt>
</event>
<event>
 5    1  0.8891499E-003  0.1480046E+03  0.7546771E-02  0.1370413E+00
         -1   -1    0    0    0  502 -0.00000000000E+00  0.00000000000E+00  0.38549734945E+03  0.38549734945E+03  0.00000000000E+00 0.  1.
         -2   -1    0    0    0  501  0.00000000000E+00 -0.00000000000E+00 -0.21598927027E+04  0.21598927027E+04  0.00000000000E+00 0.  1.
         25    1    1    2    0    0  0.20117975732E+01 -0.17521072623E+03 -0.15983600005E+04  0.16127871953E+04  0.12500000000E+03 0.  0.
         -2    1    1    2    0  502 -0.13614545961E+02  0.14713621596E+03  0.36341018619E+03  0.39230267056E+03  0.00000000000E+00 0.  1.
         -1    1    1    2    0  501  0.11602748387E+02  0.28074510276E+02 -0.53944553887E+03  0.54030018629E+03  0.00000000000E+00 0.  1.
<mgrwt>
<rscale>  0 0.67052452E+02</rscale>
<asrwt>0</asrwt>
<pdfrwt beam="2">  1       -2 0.33229118E+00 0.30377655E+02</pdfrwt>
<pdfrwt beam="1">  1       -1 0.59307286E-01 0.14800456E+03</pdfrwt>
<totfact> 0.70517171E-01</totfact>
</mgrwt>
</event>
<event>
 5    1  0.8891499E-003  0.9112939E+02  0.7546771E-02  0.1365488E+00
          2   -1    0    0  502    0  0.00000000000E+00  0.00000000000E+00  0.13672812679E+03  0.13672812679E+03  0.00000000000E+00 0. -1.
          1   -1    0    0  501    0 -0.00000000000E+00 -0.00000000000E+00 -0.22911445657E+03  0.22911445657E+03  0.00000000000E+00 0. -1.
         25    1    1    2    0    0 -0.77230295881E+02 -0.53349371137E+02  0.20152819152E+02  0.15761284885E+03  0.12500000000E+03 0.  0.
          2    1    1    2  501    0  0.92669588047E+02  0.43270259316E+01 -0.12469128472E+03  0.15541651196E+03  0.00000000000E+00 0. -1.
          1    1    1    2  502    0 -0.15439292166E+02  0.49022345206E+02  0.12152135800E+02  0.52813222554E+02  0.00000000000E+00 0. -1.
<mgrwt>
<rscale>  0 0.68437548E+02</rscale>
<asrwt>0</asrwt>
<pdfrwt beam="1">  1        2 0.21035096E-01 0.51396129E+02</pdfrwt>
<pdfrwt beam="2">  1        1 0.35248378E-01 0.91129391E+02</pdfrwt>
<totfact> 0.40806961E+03</totfact>
</mgrwt>
</event>
<event>
 5    1  0.8891499E-003  0.5966654E+02  0.7546771E-02  0.1455188E+00
          2   -1    0    0  502    0  0.00000000000E+00  0.00000000000E+00  0.58026844523E+03  0.58026844523E+03  0.00000000000E+00 0. -1.
         -2   -1    0    0    0  501 -0.00000000000E+00 -0.00000000000E+00 -0.13922354766E+04  0.13922354766E+04  0.00000000000E+00 0.  1.
         25    1    1    2    0    0  0.11285867546E+02  0.35220940213E+02 -0.30133575778E+02  0.13379431163E+03  0.12500000000E+03 0.  0.
          1    1    1    2  502    0  0.38906231892E+02 -0.22070967046E+01  0.52702971069E+03  0.52846843057E+03  0.00000000000E+00 0. -1.
         -1    1    1    2    0  501 -0.50192099438E+02 -0.33013843509E+02 -0.13088631663E+04  0.13102411796E+04  0.00000000000E+00 0.  1.
<mgrwt>
<rscale>  0 0.48219629E+02</rscale>
<asrwt>0</asrwt>
<pdfrwt beam="1">  1        2 0.89272069E-01 0.38968784E+02</pdfrwt>
<pdfrwt beam="2">  1       -2 0.21419007E+00 0.59666543E+02</pdfrwt>
<totfact> 0.72788576E+00</totfact>
</mgrwt>
</event>
<event>
 5    1  0.8891499E-003  0.7022978E+02  0.7546771E-02  0.1434694E+00
         -2   -1    0    0    0  501 -0.00000000000E+00  0.00000000000E+00  0.74161663952E+02  0.74161663952E+02  0.00000000000E+00 0.  1.
          2   -1    0    0  502    0  0.00000000000E+00 -0.00000000000E+00 -0.50014843304E+03  0.50014843304E+03  0.00000000000E+00 0. -1.
         25    1    1    2    0    0  0.29051103326E+02 -0.34056424806E+02 -0.10228861916E+03  0.16760599120E+03  0.12500000000E+03 0.  0.
          1    1    1    2  502    0 -0.73159403075E+00 -0.38538407326E+02 -0.32646432501E+03  0.32873195703E+03  0.00000000000E+00 0. -1.
         -1    1    1    2    0  501 -0.28319509295E+02  0.72594832132E+02  0.27661750810E+01  0.77972148769E+02  0.00000000000E+00 0.  1.
<mgrwt>
<rscale>  0 0.52029142E+02</rscale>
<asrwt>0</asrwt>
<pdfrwt beam="2">  1        2 0.76945909E-01 0.38545351E+02</pdfrwt>
<pdfrwt beam="1">  1       -2 0.11409487E-01 0.70229783E+02</pdfrwt>
<totfact> 0.31688720E+03</totfact>
</mgrwt>
</event>
<event>
 5    1  0.8891499E-003  0.1193093E+03  0.7546771E-02  0.1349608E+00
          2   -1    0    0  502    0  0.00000000000E+00  0.00000000000E+00  0.22802435536E+03  0.22802435536E+03  0.00000000000E+00 0. -1.
          1   -1    0    0  501    0 -0.00000000000E+00 -0.00000000000E+00 -0.33864567746E+04  0.33864567746E+04  0.00000000000E+00 0. -1.
         25    1    1    2    0    0 -0.10279388983E+03  0.21173988077E+02 -0.24940148760E+03  0.29806211362E+03  0.12500000000E+03 0.  0.
          2    1    1    2  501    0 -0.16116381505E+02 -0.41889974930E+02 -0.30946672011E+04  0.30949926645E+04  0.00000000000E+00 0. -1.
          1    1    1    2  502    0  0.11891027134E+03  0.20715986852E+02  0.18563626947E+03  0.22142635183E+03  0.00000000000E+00 0. -1.
<mgrwt>
<rscale>  0 0.73177792E+02</rscale>
<asrwt>0</asrwt>
<pdfrwt beam="1">  1        2 0.35080668E-01 0.11930925E+03</pdfrwt>
<pdfrwt beam="2">  1        1 0.52099338E+00 0.44883268E+02</pdfrwt>
<totfact> 0.10686634E+01</totfact>
</mgrwt>
</event>
<event>
 5    1  0.8891499E-003  0.8308773E+02  0.7546771E-02  0.1378135E+00
          2   -1    0    0  502    0  0.00000000000E+00  0.00000000000E+00  0.15606265012E+03  0.15606265012E+03  0.00000000000E+00 0. -1.
          1   -1    0    0  501    0 -0.00000000000E+00 -0.00000000000E+00 -0.11927590668E+04  0.11927590668E+04  0.00000000000E+00 0. -1.
         25    1    1    2    0    0 -0.20362936585E+02 -0.12029503680E+03 -0.19849192803E+03  0.26440421812E+03  0.12500000000E+03 0.  0.
          2    1    1    2  501    0 -0.16499741228E+02  0.48026514256E+02 -0.94719093175E+03  0.94855123674E+03  0.00000000000E+00 0. -1.
          1    1    1    2  502    0  0.36862677813E+02  0.72268522546E+02  0.10898644315E+03  0.13586626202E+03  0.00000000000E+00 0. -1.
<mgrwt>
<rscale>  0 0.64956459E+02</rscale>
<asrwt>0</asrwt>
<pdfrwt beam="1">  1        2 0.24009639E-01 0.83087732E+02</pdfrwt>
<pdfrwt beam="2">  1        1 0.18350139E+00 0.50781764E+02</pdfrwt>
<totfact> 0.39127333E+02</totfact>
</mgrwt>
</event>
<event>
 5    1  0.8891499E-003  0.2465368E+03  0.7546771E-02  0.1272622E+00
          2   -1    0    0  502    0  0.00000000000E+00  0.00000000000E+00  0.12427600808E+03  0.12427600808E+03  0.00000000000E+00 0. -1.
          1   -1    0    0  501    0 -0.00000000000E+00 -0.00000000000E+00 -0.38882246271E+04  0.38882246271E+04  0.00000000000E+00 0. -1.
         25    1    1    2    0    0 -0.12545221498E+03  0.18516780059E+03 -0.58193408000E+03  0.63584404226E+03  0.12500000000E+03 0.  0.
          2    1    1    2  501    0  0.13006214631E+02  0.41670084309E+02 -0.31142633742E+04  0.31145692995E+04  0.00000000000E+00 0. -1.
          1    1    1    2  502    0  0.11244600035E+03 -0.22683788490E+03 -0.67751164789E+02  0.26208729338E+03  0.00000000000E+00 0. -1.
<mgrwt>
<rscale>  0 0.10374003E+03</rscale>
<asrwt>0</asrwt>
<pdfrwt beam="1">  1        2 0.19119384E-01 0.24653677E+03</pdfrwt>
<pdfrwt beam="2">  1        1 0.59818845E+00 0.43652692E+02</pdfrwt>
<totfact> 0.91155462E+00</totfact>
</mgrwt>
</event>
<event>
 5    1  0.8891499E-003  0.1152830E+03  0.7546771E-02  0.1354961E+00
          2   -1    0    0  502    0  0.00000000000E+00  0.00000000000E+00  0.37721739734E+03  0.37721739734E+03  0.00000000000E+00 0. -1.
          1   -1    0    0  501    0 -0.00000000000E+00 -0.00000000000E+00 -0.10100630488E+04  0.10100630488E+04  0.00000000000E+00 0. -1.
         25    1    1    2    0    0  0.89009402320E+02  0.10604474049E+03 -0.24993556933E+03  0.31186687786E+03  0.12500000000E+03 0.  0.
          2    1    1    2  501    0 -0.44382554978E+02 -0.38484806491E+00 -0.71896010543E+03  0.72032880860E+03  0.00000000000E+00 0. -1.
          1    1    1    2  502    0 -0.44626847342E+02 -0.10565989242E+03  0.33605002333E+03  0.35508475967E+03  0.00000000000E+00 0. -1.
<mgrwt>
<rscale>  0 0.71531431E+02</rscale>
<asrwt>0</asrwt>
<pdfrwt beam="1">  1        2 0.58033446E-01 0.11528298E+03</pdfrwt>
<pdfrwt beam="2">  1        1 0.15539431E+00 0.44384223E+02</pdfrwt>
<totfact> 0.20657093E+02</totfact>
</mgrwt>
</event>
<event>
 5    1  0.8891499E-003  0.1335132E+03  0.7546771E-02  0.1345745E+00
         -1   -1    0    0    0  501 -0.00000000000E+00  0.00000000000E+00  0.16398094331E+03  0.16398094331E+03  0.00000000000E+00 0.  1.
          1   -1    0    0  502    0  0.00000000000E+00 -0.00000000000E+00 -0.59151515086E+03  0.59151515086E+03  0.00000000000E+00 0. -1.
         25    1    1    2    0    0  0.28362705448E+02  0.95984701641E+02 -0.12905532118E+03  0.20566424564E+03  0.12500000000E+03 0.  0.
          2    1    1    2  502    0  0.11633581090E+02  0.39791403010E+02 -0.38282416071E+03  0.38506237674E+03  0.00000000000E+00 0. -1.
         -2    1    1    2    0  501 -0.39996286538E+02 -0.13577610465E+03  0.84345274331E+02  0.16476947179E+03  0.00000000000E+00 0.  1.
<mgrwt>
<rscale>  0 0.74398107E+02</rscale>
<asrwt>0</asrwt>
<pdfrwt beam="2">  1        1 0.91002331E-01 0.41457158E+02</pdfrwt>
<pdfrwt beam="1">  1       -1 0.25227837E-01 0.13351321E+03</pdfrwt>
<totfact> 0.51826346E+02</totfact>
</mgrwt>
</event>
<event>
 5    1  0.8891499E-003  0.4375887E+02  0.7546771E-02  0.1533796E+00
          1   -1    0    0  502    0  0.00000000000E+00  0.00000000000E+00  0.67817418057E+03  0.67817418057E+03  0.00000000000E+00 0. -1.
         -1   -1    0    0    0  501 -0.00000000000E+00 -0.00000000000E+00 -0.33285036921E+03  0.33285036921E+03  0.00000000000E+00 0.  1.
         25    1    1    2    0    0  0.44529971963E+01  0.74321161550E+02 -0.27959104912E+03  0.31518188238E+03  0.12500000000E+03 0.  0.
          2    1    1    2  502    0 -0.39629122001E+01 -0.43503482238E+02  0.65281132146E+03  0.65427125802E+03  0.00000000000E+00 0. -1.
         -2    1    1    2    0  501 -0.49008499612E+00 -0.30817679311E+02 -0.27896460985E+02  0.41571409369E+02  0.00000000000E+00 0.  1.
<mgrwt>
<rscale>  0 0.36724886E+02</rscale>
<asrwt>0</asrwt>
<pdfrwt beam="1">  1        1 0.10433449E+00 0.43758867E+02</pdfrwt>
<pdfrwt beam="2">  1       -1 0.51207749E-01 0.30821576E+02</pdfrwt>
<totfact> 0.12787553E+02</totfact>
</mgrwt>
</event>
<event>
 5    1  0.8891499E-003  0.8082246E+02  0.7546771E-02  0.1366748E+00
          2   -1    0    0  502    0  0.00000000000E+00  0.00000000000E+00  0.25581904971E+02  0.25581904971E+02  0.00000000000E+00 0. -1.
         -2   -1    0    0    0  501 -0.00000000000E+00 -0.00000000000E+00 -0.10181723452E+04  0.10181723452E+04  0.00000000000E+00 0.  1.
         25    1    1    2    0    0 -0.56082755237E+02  0.73878211670E+02 -0.50086831712E+03  0.52449722277E+03  0.12500000000E+03 0.  0.
          1    1    1    2  502    0 -0.22739776521E+02 -0.52644718194E+02 -0.73926907310E+02  0.93561484674E+02  0.00000000000E+00 0. -1.
         -1    1    1    2    0  501  0.78822531758E+02 -0.21233493475E+02 -0.41779521584E+03  0.42569554277E+03  0.00000000000E+00 0.  1.
<mgrwt>
<rscale>  0 0.68079695E+02</rscale>
<asrwt>0</asrwt>
<pdfrwt beam="1">  1        2 0.39356780E-02 0.57346001E+02</pdfrwt>
<pdfrwt beam="2">  1       -2 0.15664189E+00 0.80822460E+02</pdfrwt>
<totfact> 0.56310101E+02</totfact>
</mgrwt>
</event>
<event>
 5    1  0.8891499E-003  0.5306111E+02  0.7546771E-02  0.1531514E+00
         -1   -1    0    0    0  501 -0.00000000000E+00  0.00000000000E+00  0.85861883580E+02  0.85861883580E+02  0.00000000000E+00 0.  1.
          1   -1    0    0  502    0  0.00000000000E+00 -0.00000000000E+00 -0.56105673642E+03  0.56105673642E+03  0.00000000000E+00 0. -1.
         25    1    1    2    0    0 -0.26712335152E+02  0.72304599800E+02 -0.10731986548E+03  0.18189023484E+03  0.12500000000E+03 0.  0.
          2    1    1    2  502    0  0.13215222231E+02 -0.50313943249E+02 -0.41126727362E+03  0.41454421397E+03  0.00000000000E+00 0. -1.
         -2    1    1    2    0  501  0.13497112921E+02 -0.21990656551E+02  0.43392286271E+02  0.50484171188E+02  0.00000000000E+00 0.  1.
<mgrwt>
<rscale>  0 0.37001365E+02</rscale>
<asrwt>0</asrwt>
<pdfrwt beam="2">  1        1 0.86316422E-01 0.53061106E+02</pdfrwt>
<pdfrwt beam="1">  1       -1 0.13209520E-01 0.25802345E+02</pdfrwt>
<totfact> 0.13885547E+03</totfact>
</mgrwt>
</event>
<event>
 5    1  0.8891499E-003  0.3819519E+02  0.7546771E-02  0.1577229E+00
          2   -1    0    0  502    0  0.00000000000E+00  0.00000000000E+00  0.38476913344E+03  0.38476913344E+03  0.00000000000E+00 0. -1.
          1   -1    0    0  501    0 -0.00000000000E+00 -0.00000000000E+00 -0.19272057190E+04  0.19272057190E+04  0.00000000000E+00 0. -1.
         25    1    1    2    0    0 -0.86672080417E+01  0.99009877455E+01 -0.22843622716E+02  0.12774968161E+03  0.12500000000E+03 0.  0.
          2    1    1    2  501    0 -0.25596113418E+02  0.78339181333E+01 -0.18506921595E+04  0.18508857341E+04  0.00000000000E+00 0. -1.
          1    1    1    2  502    0  0.34263321459E+02 -0.17734905879E+02  0.33109919665E+03  0.33333943677E+03  0.00000000000E+00 0. -1.
<mgrwt>
<rscale>  0 0.31975190E+02</rscale>
<asrwt>0</asrwt>
<pdfrwt beam="1">  1        2 0.59195252E-01 0.38195191E+02</pdfrwt>
<pdfrwt beam="2">  1        1 0.29649319E+00 0.26768102E+02</pdfrwt>
<totfact> 0.57353944E+01</totfact>
</mgrwt>
</event>
<event>
 5    1  0.8891499E-003  0.5132583E+02  0.7546771E-02  0.1500702E+00
          1   -1    0    0  502    0  0.00000000000E+00  0.00000000000E+00  0.18310559387E+04  0.18310559387E+04  0.00000000000E+00 0. -1.
         -1   -1    0    0    0  501 -0.00000000000E+00 -0.00000000000E+00 -0.25723529124E+03  0.25723529124E+03  0.00000000000E+00 0.  1.
         25    1    1    2    0    0 -0.67666816212E+02 -0.24410664318E+02  0.28689944253E+02  0.14704690221E+03  0.12500000000E+03 0.  0.
          2    1    1    2  502    0  0.51085488887E+02 -0.39054101484E+01  0.17414490373E+04  0.17422025511E+04  0.00000000000E+00 0. -1.
         -2    1    1    2    0  501  0.16581327325E+02  0.28316074467E+02 -0.19631833418E+03  0.19904177658E+03  0.00000000000E+00 0.  1.
<mgrwt>
<rscale>  0 0.41038903E+02</rscale>
<asrwt>0</asrwt>
<pdfrwt beam="1">  1        1 0.28170091E+00 0.51325829E+02</pdfrwt>
<pdfrwt beam="2">  1       -1 0.39574661E-01 0.32813724E+02</pdfrwt>
<totfact> 0.32954758E+01</totfact>
</mgrwt>
</event>
<event>
 5    1  0.8891499E-003  0.8820209E+02  0.7546771E-02  0.1391594E+00
          2   -1    0    0  502    0  0.00000000000E+00  0.00000000000E+00  0.79834876830E+03  0.79834876830E+03  0.00000000000E+00 0. -1.
          1   -1    0    0  501    0 -0.00000000000E+00 -0.00000000000E+00 -0.34537731461E+04  0.34537731461E+04  0.00000000000E+00 0. -1.
         25    1    1    2    0    0  0.11409557100E+02  0.49185903201E+02  0.17992832416E+03  0.22483023129E+03  0.12500000000E+03 0.  0.
          2    1    1    2  501    0 -0.44815682553E+02 -0.76098664803E+02 -0.34299811103E+04  0.34311178745E+04  0.00000000000E+00 0. -1.
          1    1    1    2  502    0  0.33406125453E+02  0.26912761601E+02  0.59462840836E+03  0.59617380853E+03  0.00000000000E+00 0. -1.
<mgrwt>
<rscale>  0 0.61511964E+02</rscale>
<asrwt>0</asrwt>
<pdfrwt beam="1">  1        2 0.12282289E+00 0.42898321E+02</pdfrwt>
<pdfrwt beam="2">  1        1 0.53134970E+00 0.88202094E+02</pdfrwt>
<totfact> 0.21884459E+00</totfact>
</mgrwt>
</event>
<event>
 5    1  0.8891499E-003  0.6687242E+02  0.7546771E-02  0.1451611E+00
         -1   -1    0    0    0  502 -0.00000000000E+00  0.00000000000E+00  0.35970117389E+03  0.35970117389E+03  0.00000000000E+00 0.  1.
         -2   -1    0    0    0  501  0.00000000000E+00 -0.00000000000E+00 -0.15548270270E+03  0.15548270270E+03  0.00000000000E+00 0.  1.
         25    1    1    2    0    0  0.51299501404E+02  0.42785451193E+01  0.42285003628E+02  0.14164380087E+03  0.12500000000E+03 0.  0.
         -2    1    1    2    0  502 -0.56321321361E+02 -0.39617228600E+02  0.26011316465E+03  0.26907336261E+03  0.00000000000E+00 0.  1.
         -1    1    1    2    0  501  0.50218199577E+01  0.35338683480E+02 -0.98179697092E+02  0.10446671310E+03  0.00000000000E+00 0.  1.
<mgrwt>
<rscale>  0 0.48856167E+02</rscale>
<asrwt>0</asrwt>
<pdfrwt beam="2">  1       -2 0.23920416E-01 0.35693714E+02</pdfrwt>
<pdfrwt beam="1">  1       -1 0.55338642E-01 0.66872420E+02</pdfrwt>
<totfact> 0.36913461E+02</totfact>
</mgrwt>
</event>
<event>
 5    1  0.8891499E-003  0.2292437E+03  0.7546771E-02  0.1167354E+00
          1   -1    0    0  501    0 -0.00000000000E+00  0.00000000000E+00  0.17475729042E+04  0.17475729042E+04  0.00000000000E+00 0. -1.
          2   -1    0    0  502    0  0.00000000000E+00 -0.00000000000E+00 -0.54558900320E+03  0.54558900320E+03  0.00000000000E+00 0. -1.
         25    1    1    2    0    0  0.24913945504E+03  0.79932163719E+02  0.61958552009E+03  0.68408393897E+03  0.12500000000E+03 0.  0.
          2    1    1    2  501    0 -0.10340295157E+03  0.97417157255E+02  0.10651227150E+04  0.10745551038E+04  0.00000000000E+00 0. -1.
          1    1    1    2  502    0 -0.14573650347E+03 -0.17734932097E+03 -0.48272433413E+03  0.53452286467E+03  0.00000000000E+00 0. -1.
<mgrwt>
<rscale>  0 0.18046428E+03</rscale>
<asrwt>0</asrwt>
<pdfrwt beam="2">  1        2 0.83936770E-01 0.22924372E+03</pdfrwt>
<pdfrwt beam="1">  1        1 0.26885737E+00 0.14206433E+03</pdfrwt>
<totfact> 0.40814660E+01</totfact>
</mgrwt>
</event>
<event>
 5    1  0.8891499E-003  0.1236310E+03  0.7546771E-02  0.1381912E+00
          2   -1    0    0  502    0  0.00000000000E+00  0.00000000000E+00  0.21542007156E+04  0.21542007156E+04  0.00000000000E+00 0. -1.
          1   -1    0    0  501    0 -0.00000000000E+00 -0.00000000000E+00 -0.74831120248E+02  0.74831120248E+02  0.00000000000E+00 0. -1.
         25    1    1    2    0    0 -0.37955832237E+02 -0.13966507097E+03  0.36502396016E+03  0.41208551144E+03  0.12500000000E+03 0.  0.
          2    1    1    2  501    0  0.11688938033E+02  0.11953469142E+03  0.19380851280E+02  0.12165850206E+03  0.00000000000E+00 0. -1.
          1    1    1    2  502    0  0.26266894204E+02  0.20130379542E+02  0.16949647839E+04  0.16952878224E+04  0.00000000000E+00 0. -1.
<mgrwt>
<rscale>  0 0.63963937E+02</rscale>
<asrwt>0</asrwt>
<pdfrwt beam="1">  1        2 0.33141545E+00 0.33093533E+02</pdfrwt>
<pdfrwt beam="2">  1        1 0.11512482E-01 0.12363096E+03</pdfrwt>
<totfact> 0.54766302E+02</totfact>
</mgrwt>
</event>
<event>
 5    1  0.8891499E-003  0.1993403E+03  0.7546771E-02  0.1319286E+00
          2   -1    0    0  502    0  0.00000000000E+00  0.00000000000E+00  0.55385340153E+03  0.55385340153E+03  0.00000000000E+00 0. -1.
         -2   -1    0    0    0  501 -0.00000000000E+00 -0.00000000000E+00 -0.13847659401E+03  0.13847659401E+03  0.00000000000E+00 0.  1.
         25    1    1    2    0    0 -0.74611118010E+01  0.18662082746E+03  0.24041773179E+03  0.32910285199E+03  0.12500000000E+03 0.  0.
          1    1    1    2  502    0 -0.31827013361E+02  0.14592712956E+02  0.15309911147E+03  0.15705172391E+03  0.00000000000E+00 0. -1.
         -1    1    1    2    0  501  0.39288125162E+02 -0.20121354042E+03  0.21859964262E+02  0.20617541964E+03  0.00000000000E+00 0.  1.
<mgrwt>
<rscale>  0 0.83543353E+02</rscale>
<asrwt>0</asrwt>
<pdfrwt beam="1">  1        2 0.85208215E-01 0.35012941E+02</pdfrwt>
<pdfrwt beam="2">  1       -2 0.21304092E-01 0.19934034E+03</pdfrwt>
<totfact> 0.10765788E+03</totfact>
</mgrwt>
</event>
<event>
 5    1  0.8891499E-003  0.6282746E+02  0.7546771E-02  0.1457422E+00
          2   -1    0    0  502    0  0.00000000000E+00  0.00000000000E+00  0.35575543898E+03  0.35575543898E+03  0.00000000000E+00 0. -1.
          1   -1    0    0  501    0 -0.00000000000E+00 -0.00000000000E+00 -0.73218391045E+03  0.73218391045E+03  0.00000000000E+00 0. -1.
         25    1    1    2    0    0  0.17865614229E+02 -0.41209507836E+02 -0.35380063467E+03  0.37791175267E+03  0.12500000000E+03 0.  0.
          2    1    1    2  501    0  0.60710602146E+01  0.68644643310E+02 -0.36210471473E+03  0.36860381069E+03  0.00000000000E+00 0. -1.
          3    1    1    2  502    0 -0.23936674444E+02 -0.27435135474E+02  0.33947687793E+03  0.34142378607E+03  0.00000000000E+00 0. -1.
<mgrwt>
<rscale>  0 0.47827980E+02</rscale>
<asrwt>0</asrwt>
<pdfrwt beam="1">  1        2 0.54731606E-01 0.36409491E+02</pdfrwt>
<pdfrwt beam="2">  1        1 0.11264368E+00 0.62827456E+02</pdfrwt>
<totfact> 0.34808376E+02</totfact>
</mgrwt>
</event>
<event>
 5    1  0.8891499E-003  0.1232802E+03  0.7546771E-02  0.1267467E+00
          2   -1    0    0  502    0  0.00000000000E+00  0.00000000000E+00  0.73279760556E+03  0.73279760556E+03  0.00000000000E+00 0. -1.
          1   -1    0    0  501    0 -0.00000000000E+00 -0.00000000000E+00 -0.63564408024E+03  0.63564408024E+03  0.00000000000E+00 0. -1.
         25    1    1    2    0    0 -0.21317901203E+02  0.18720937562E+03  0.15433553080E+03  0.27376314452E+03  0.12500000000E+03 0.  0.
          2    1    1    2  501    0 -0.36698615903E+02 -0.11611946002E+03 -0.56533732110E+03  0.57830511327E+03  0.00000000000E+00 0. -1.
          1    1    1    2  502    0  0.58016517106E+02 -0.71089915602E+02  0.50815531563E+03  0.51637342801E+03  0.00000000000E+00 0. -1.
<mgrwt>
<rscale>  0 0.10635813E+03</rscale>
<asrwt>0</asrwt>
<pdfrwt beam="1">  1        2 0.11273809E+00 0.91758882E+02</pdfrwt>
<pdfrwt beam="2">  1        1 0.97791397E-01 0.12328019E+03</pdfrwt>
<totfact> 0.18759595E+02</totfact>
</mgrwt>
</event>
<event>
 5    1  0.8891499E-003  0.5455231E+02  0.7546771E-02  0.1554035E+00
          2   -1    0    0  502    0  0.00000000000E+00  0.00000000000E+00  0.17894067239E+04  0.17894067239E+04  0.00000000000E+00 0. -1.
          1   -1    0    0  501    0 -0.00000000000E+00 -0.00000000000E+00 -0.46541709090E+03  0.46541709090E+03  0.00000000000E+00 0. -1.
         25    1    1    2    0    0  0.59032710023E+01 -0.42170521906E+02  0.86801321494E+02  0.15802743730E+03  0.12500000000E+03 0.  0.
          2    1    1    2  501    0  0.20972912971E+02 -0.55176422730E+01 -0.42908072783E+03  0.42962841905E+03  0.00000000000E+00 0. -1.
          1    1    1    2  502    0 -0.26876183973E+02  0.47688164179E+02  0.16662690393E+04  0.16671679584E+04  0.00000000000E+00 0. -1.
<mgrwt>
<rscale>  0 0.34395531E+02</rscale>
<asrwt>0</asrwt>
<pdfrwt beam="1">  1        2 0.27529334E+00 0.54552305E+02</pdfrwt>
<pdfrwt beam="2">  1        1 0.71602630E-01 0.21686573E+02</pdfrwt>
<totfact> 0.79921437E+01</totfact>
</mgrwt>
</event>
<event>
 5    1  0.8891499E-003  0.1061491E+03  0.7546771E-02  0.1363618E+00
         -2   -1    0    0    0  501 -0.00000000000E+00  0.00000000000E+00  0.26539964648E+02  0.26539964648E+02  0.00000000000E+00 0.  1.
          2   -1    0    0  502    0  0.00000000000E+00 -0.00000000000E+00 -0.32702020084E+04  0.32702020084E+04  0.00000000000E+00 0. -1.
         25    1    1    2    0    0  0.70289206098E+02 -0.19237605146E+02 -0.22345719801E+04  0.22392515697E+04  0.12500000000E+03 0.  0.
          1    1    1    2  502    0  0.20233670335E+02 -0.39990382753E+02 -0.90902472637E+03  0.91012888389E+03  0.00000000000E+00 0. -1.
         -1    1    1    2    0  501 -0.90522876433E+02  0.59227987899E+02 -0.10006533730E+03  0.14736151952E+03  0.00000000000E+00 0.  1.
<mgrwt>
<rscale>  0 0.68973650E+02</rscale>
<asrwt>0</asrwt>
<pdfrwt beam="2">  1        2 0.50310780E+00 0.44817766E+02</pdfrwt>
<pdfrwt beam="1">  1       -2 0.40830731E-02 0.10614908E+03</pdfrwt>
<totfact> 0.47791231E+02</totfact>
</mgrwt>
</event>
<event>
 5    1  0.1085627E-002  0.4336663E+02  0.7546771E-02  0.1514436E+00
          2   -1    0    0  502    0  0.00000000000E+00  0.00000000000E+00  0.23704937783E+04  0.23704937783E+04  0.00000000000E+00 0. -1.
         -2   -1    0    0    0  501 -0.00000000000E+00 -0.00000000000E+00 -0.61251759277E+01  0.61251759277E+01  0.00000000000E+00 0.  1.
         25    1    1    2    0    0  0.26480171122E+02 -0.10936244508E+02  0.17672914875E+04  0.17719382051E+04  0.12500000000E+03 0.  0.
          1    1    1    2  502    0 -0.35590604757E+02  0.45116103854E+02  0.43564130423E+03  0.43941495187E+03  0.00000000000E+00 0. -1.
         -1    1    1    2    0  501  0.91104336348E+01 -0.34179859346E+02  0.16143581066E+03  0.16526579728E+03  0.00000000000E+00 0.  1.
<mgrwt>
<rscale>  0 0.39166520E+02</rscale>
<asrwt>0</asrwt>
<pdfrwt beam="1">  1        2 0.36469062E+00 0.43366634E+02</pdfrwt>
<pdfrwt beam="2">  1       -2 0.94233665E-03 0.35373193E+02</pdfrwt>
<totfact> 0.99289531E+03</totfact>
</mgrwt>
</event>
<event>
 5    1  0.8891499E-003  0.1764082E+03  0.7546771E-02  0.1270891E+00
          1   -1    0    0  501    0 -0.00000000000E+00  0.00000000000E+00  0.13003587013E+04  0.13003587013E+04  0.00000000000E+00 0. -1.
          2   -1    0    0  502    0  0.00000000000E+00 -0.00000000000E+00 -0.45385778006E+03  0.45385778006E+03  0.00000000000E+00 0. -1.
         25    1    1    2    0    0  0.48075218280E+02  0.17304775334E+03 -0.59570567245E+02  0.22678272428E+03  0.12500000000E+03 0.  0.
          2    1    1    2  501    0 -0.10276984637E+03 -0.14377968648E+03  0.12071563546E+04  0.12200248785E+04  0.00000000000E+00 0. -1.
          1    1    1    2  502    0  0.54694628092E+02 -0.29268066859E+02 -0.30108486611E+03  0.30740887866E+03  0.00000000000E+00 0. -1.
<mgrwt>
<rscale>  0 0.10460960E+03</rscale>
<asrwt>0</asrwt>
<pdfrwt beam="2">  1        2 0.69824274E-01 0.62033234E+02</pdfrwt>
<pdfrwt beam="1">  1        1 0.20005518E+00 0.17640815E+03</pdfrwt>
<totfact> 0.97537141E+01</totfact>
</mgrwt>
</event>
<event>
 5    1  0.8891499E-003  0.8007339E+02  0.7546771E-02  0.1461067E+00
          1   -1    0    0  501    0 -0.00000000000E+00  0.00000000000E+00  0.50160112805E+02  0.50160112805E+02  0.00000000000E+00 0. -1.
          2   -1    0    0  502    0  0.00000000000E+00 -0.00000000000E+00 -0.14587372605E+04  0.14587372605E+04  0.00000000000E+00 0. -1.
         25    1    1    2    0    0  0.85956082020E+02 -0.24272866291E+02 -0.23839043252E+03  0.28360644984E+03  0.12500000000E+03 0.  0.
          2    1    1    2  501    0 -0.19500897876E+02 -0.19841755574E+02  0.18835031795E+02  0.33596706758E+02  0.00000000000E+00 0. -1.
          1    1    1    2  502    0 -0.66455184144E+02  0.44114621865E+02 -0.11890217470E+04  0.11916942167E+04  0.00000000000E+00 0. -1.
<mgrwt>
<rscale>  0 0.47198326E+02</rscale>
<asrwt>0</asrwt>
<pdfrwt beam="2">  1        2 0.22442116E+00 0.80073395E+02</pdfrwt>
<pdfrwt beam="1">  1        1 0.77169391E-02 0.27820501E+02</pdfrwt>
<totfact> 0.16357587E+03</totfact>
</mgrwt>
</event>
<event>
 5    1  0.8891499E-003  0.3413587E+03  0.7546771E-02  0.1132704E+00
          2   -1    0    0  502    0  0.00000000000E+00  0.00000000000E+00  0.18806057924E+04  0.18806057924E+04  0.00000000000E+00 0. -1.
         -2   -1    0    0    0  501 -0.00000000000E+00 -0.00000000000E+00 -0.28797979655E+03  0.28797979655E+03  0.00000000000E+00 0.  1.
         25    1    1    2    0    0  0.26449114204E+03 -0.22547166519E+03  0.25576119134E+03  0.44925696768E+03  0.12500000000E+03 0.  0.
          1    1    1    2  502    0  0.69003106216E+02  0.12621023234E+03  0.13628377367E+04  0.13704076576E+04  0.00000000000E+00 0. -1.
         -1    1    1    2    0  501 -0.33349424825E+03  0.99261432850E+02 -0.25972932214E+02  0.34892096366E+03  0.00000000000E+00 0.  1.
<mgrwt>
<rscale>  0 0.22158890E+03</rscale>
<asrwt>0</asrwt>
<pdfrwt beam="1">  1        2 0.28932396E+00 0.14384176E+03</pdfrwt>
<pdfrwt beam="2">  1       -2 0.44304585E-01 0.34135874E+03</pdfrwt>
<totfact> 0.45142529E+01</totfact>
</mgrwt>
</event>
<event>
 5    1  0.8891499E-003  0.2659630E+03  0.7546771E-02  0.1336633E+00
          2   -1    0    0  502    0  0.00000000000E+00  0.00000000000E+00  0.99975340503E+02  0.99975340503E+02  0.00000000000E+00 0. -1.
          1   -1    0    0  501    0 -0.00000000000E+00 -0.00000000000E+00 -0.24444419179E+04  0.24444419179E+04  0.00000000000E+00 0. -1.
         25    1    1    2    0    0 -0.44779487887E+02 -0.27423220548E+03 -0.66778952929E+03  0.73401386941E+03  0.12500000000E+03 0.  0.
          2    1    1    2  501    0 -0.12370331778E+02  0.18815189975E+02 -0.14869931741E+04  0.14871636548E+04  0.00000000000E+00 0. -1.
          1    1    1    2  502    0  0.57149819665E+02  0.25541701550E+03 -0.18968387410E+03  0.32323973424E+03  0.00000000000E+00 0. -1.
<mgrwt>
<rscale>  0 0.77387428E+02</rscale>
<asrwt>0</asrwt>
<pdfrwt beam="1">  1        2 0.15380822E-01 0.26596300E+03</pdfrwt>
<pdfrwt beam="2">  1        1 0.37606799E+00 0.22517471E+02</pdfrwt>
<totfact> 0.12940075E+02</totfact>
</mgrwt>
</event>
<event>
 5    1  0.8891499E-003  0.1487196E+03  0.7546771E-02  0.1347107E+00
         -2   -1    0    0    0  501 -0.00000000000E+00  0.00000000000E+00  0.13391943658E+03  0.13391943658E+03  0.00000000000E+00 0.  1.
          2   -1    0    0  502    0  0.00000000000E+00 -0.00000000000E+00 -0.41777699611E+03  0.41777699611E+03  0.00000000000E+00 0. -1.
         25    1    1    2    0    0 -0.10964224359E+03 -0.65901437118E+02 -0.83837662798E+02  0.19753018680E+03  0.12500000000E+03 0.  0.
          1    1    1    2  502    0  0.12103123311E+03  0.10087997584E+03 -0.24793200152E+03  0.29376113816E+03  0.00000000000E+00 0. -1.
         -1    1    1    2    0  501 -0.11388989517E+02 -0.34978538725E+02  0.47912104794E+02  0.60405107726E+02  0.00000000000E+00 0.  1.
<mgrwt>
<rscale>  0 0.73964809E+02</rscale>
<asrwt>0</asrwt>
<pdfrwt beam="2">  1        2 0.64273383E-01 0.14871957E+03</pdfrwt>
<pdfrwt beam="1">  1       -2 0.20602991E-01 0.36785965E+02</pdfrwt>
<totfact> 0.14152181E+03</totfact>
</mgrwt>
</event>
<event>
 5    1  0.8891499E-003  0.1201135E+03  0.7546771E-02  0.1316893E+00
          2   -1    0    0  502    0  0.00000000000E+00  0.00000000000E+00  0.12413137962E+04  0.12413137962E+04  0.00000000000E+00 0. -1.
          1   -1    0    0  501    0 -0.00000000000E+00 -0.00000000000E+00 -0.21387304497E+03  0.21387304497E+03  0.00000000000E+00 0. -1.
         25    1    1    2    0    0 -0.15521809893E+03  0.21566141552E+02  0.88149517535E+03  0.90400027703E+03  0.12500000000E+03 0.  0.
          2    1    1    2  501    0  0.57972302793E+02 -0.12793960208E+02 -0.19119066593E+03  0.20019576431E+03  0.00000000000E+00 0. -1.
          1    1    1    2  502    0  0.97245796137E+02 -0.87721813442E+01  0.33713624177E+03  0.35099079981E+03  0.00000000000E+00 0. -1.
<mgrwt>
<rscale>  0 0.84444127E+02</rscale>
<asrwt>0</asrwt>
<pdfrwt beam="1">  1        2 0.19097135E+00 0.12011349E+03</pdfrwt>
<pdfrwt beam="2">  1        1 0.32903546E-01 0.59367275E+02</pdfrwt>
<totfact> 0.35911817E+02</totfact>
</mgrwt>
</event>
<event>
 5    1  0.8891499E-003  0.3222044E+02  0.7546771E-02  0.1638355E+00
         -2   -1    0    0    0  501 -0.00000000000E+00  0.00000000000E+00  0.16936485428E+03  0.16936485428E+03  0.00000000000E+00 0.  1.
          2   -1    0    0  502    0  0.00000000000E+00 -0.00000000000E+00 -0.33822279717E+03  0.33822279717E+03  0.00000000000E+00 0. -1.
         25    1    1    2    0    0 -0.12945368052E+02 -0.28357575740E+02 -0.50827706010E+02  0.13849256426E+03  0.12500000000E+03 0.  0.
          1    1    1    2  502    0 -0.16437673962E+02  0.14689600923E+02 -0.24095963626E+03  0.24196596415E+03  0.00000000000E+00 0. -1.
         -1    1    1    2    0  501  0.29383042014E+02  0.13667974817E+02  0.12292939938E+03  0.12712912305E+03  0.00000000000E+00 0.  1.
<mgrwt>
<rscale>  0 0.26651438E+02</rscale>
<asrwt>0</asrwt>
<pdfrwt beam="2">  1        2 0.52034276E-01 0.22044988E+02</pdfrwt>
<pdfrwt beam="1">  1       -2 0.26056132E-01 0.32220437E+02</pdfrwt>
<totfact> 0.11775966E+03</totfact>
</mgrwt>
</event>
<event>
 5    1  0.8891499E-003  0.8467006E+02  0.7546771E-02  0.1358553E+00
          1   -1    0    0  501    0 -0.00000000000E+00  0.00000000000E+00  0.83280194175E+03  0.83280194175E+03  0.00000000000E+00 0. -1.
          2   -1    0    0  502    0  0.00000000000E+00 -0.00000000000E+00 -0.19052820501E+03  0.19052820501E+03  0.00000000000E+00 0. -1.
         25    1    1    2    0    0  0.11114126656E+03 -0.54566836024E+02  0.56372116835E+02  0.18475047032E+03  0.12500000000E+03 0.  0.
          2    1    1    2  501    0 -0.29921086432E+02  0.50415736783E+02  0.69779514005E+03  0.70025357936E+03  0.00000000000E+00 0. -1.
          1    1    1    2  502    0 -0.81220180126E+02  0.41510992412E+01 -0.11189352015E+03  0.13832609709E+03  0.00000000000E+00 0. -1.
<mgrwt>
<rscale>  0 0.70454765E+02</rscale>
<asrwt>0</asrwt>
<pdfrwt beam="2">  1        2 0.29312032E-01 0.84670056E+02</pdfrwt>
<pdfrwt beam="1">  1        1 0.12812337E+00 0.58626086E+02</pdfrwt>
<totfact> 0.56044752E+02</totfact>
</mgrwt>
</event>
<event>
 5    1  0.8891499E-003  0.8765813E+02  0.7546771E-02  0.1327873E+00
          1   -1    0    0  501    0 -0.00000000000E+00  0.00000000000E+00  0.17496652867E+04  0.17496652867E+04  0.00000000000E+00 0. -1.
          2   -1    0    0  502    0  0.00000000000E+00 -0.00000000000E+00 -0.67672498824E+03  0.67672498824E+03  0.00000000000E+00 0. -1.
         25    1    1    2    0    0  0.19375815592E+01  0.17313493562E+02  0.22747333426E+02  0.12824177346E+03  0.12500000000E+03 0.  0.
          2    1    1    2  501    0  0.26247337824E+02  0.68946127845E+02  0.16700526589E+04  0.16716813018E+04  0.00000000000E+00 0. -1.
          1    1    1    2  502    0 -0.28184919383E+02 -0.86259621406E+02 -0.61985969396E+03  0.62646719959E+03  0.00000000000E+00 0. -1.
<mgrwt>
<rscale>  0 0.80416568E+02</rscale>
<asrwt>0</asrwt>
<pdfrwt beam="2">  1        2 0.10411154E+00 0.87658129E+02</pdfrwt>
<pdfrwt beam="1">  1        1 0.26917927E+00 0.73773242E+02</pdfrwt>
<totfact> 0.34944756E+01</totfact>
</mgrwt>
</event>
<event>
 5    1  0.8891499E-003  0.1171852E+03  0.7546771E-02  0.1266214E+00
          1   -1    0    0  501    0 -0.00000000000E+00  0.00000000000E+00  0.17802378821E+04  0.17802378821E+04  0.00000000000E+00 0. -1.
          2   -1    0    0  502    0  0.00000000000E+00 -0.00000000000E+00 -0.35988029008E+03  0.35988029008E+03  0.00000000000E+00 0. -1.
         25    1    1    2    0    0 -0.11475698528E+03  0.12671025194E+01  0.24314083645E+03  0.29650166537E+03  0.12500000000E+03 0.  0.
          2    1    1    2  501    0  0.36477746924E+02 -0.90649416705E+02  0.14981823629E+04  0.15013654902E+04  0.00000000000E+00 0. -1.
          1    1    1    2  502    0  0.78279238355E+02  0.89382314186E+02 -0.32096560734E+03  0.34225101657E+03  0.00000000000E+00 0. -1.
<mgrwt>
<rscale>  0 0.10700741E+03</rscale>
<asrwt>0</asrwt>
<pdfrwt beam="2">  1        2 0.55366200E-01 0.11718520E+03</pdfrwt>
<pdfrwt beam="1">  1        1 0.27388275E+00 0.97713575E+02</pdfrwt>
<totfact> 0.64235423E+01</totfact>
</mgrwt>
</event>
<event>
 5    1  0.8891499E-003  0.1848459E+03  0.7546771E-02  0.1199313E+00
          2   -1    0    0  502    0  0.00000000000E+00  0.00000000000E+00  0.48645891132E+03  0.48645891132E+03  0.00000000000E+00 0. -1.
          1   -1    0    0  501    0 -0.00000000000E+00 -0.00000000000E+00 -0.17633715683E+04  0.17633715683E+04  0.00000000000E+00 0. -1.
         25    1    1    2    0    0  0.33523373553E+02  0.11399783790E+03 -0.13546513847E+03  0.21930601305E+03  0.12500000000E+03 0.  0.
          2    1    1    2  501    0 -0.10197636677E+03  0.69250069047E+02 -0.15619196550E+04  0.15667762317E+04  0.00000000000E+00 0. -1.
          1    1    1    2  502    0  0.68452993219E+02 -0.18324790695E+03  0.42047213656E+03  0.46374823482E+03  0.00000000000E+00 0. -1.
<mgrwt>
<rscale>  0 0.15094834E+03</rscale>
<asrwt>0</asrwt>
<pdfrwt beam="1">  1        2 0.74839832E-01 0.18484593E+03</pdfrwt>
<pdfrwt beam="2">  1        1 0.27128794E+00 0.12326699E+03</pdfrwt>
<totfact> 0.46208754E+01</totfact>
</mgrwt>
</event>
<event>
 5    1  0.8891499E-003  0.5016673E+02  0.7546771E-02  0.1498055E+00
          2   -1    0    0  502    0  0.00000000000E+00  0.00000000000E+00  0.17386277956E+04  0.17386277956E+04  0.00000000000E+00 0. -1.
         -2   -1    0    0    0  501 -0.00000000000E+00 -0.00000000000E+00 -0.12799652306E+02  0.12799652306E+02  0.00000000000E+00 0.  1.
         25    1    1    2    0    0 -0.62299231977E+02  0.23124432619E+02  0.99517228998E+03  0.10051909373E+04  0.12500000000E+03 0.  0.
          1    1    1    2  502    0  0.31189108590E+02 -0.37302632513E+02  0.69550070327E+03  0.69719830403E+03  0.00000000000E+00 0. -1.
         -1    1    1    2    0  501  0.31110123386E+02  0.14178199894E+02  0.35155150025E+02  0.49038206560E+02  0.00000000000E+00 0.  1.
<mgrwt>
<rscale>  0 0.41414139E+02</rscale>
<asrwt>0</asrwt>
<pdfrwt beam="1">  1        2 0.26748101E+00 0.50166732E+02</pdfrwt>
<pdfrwt beam="2">  1       -2 0.19691787E-02 0.34188611E+02</pdfrwt>
<totfact> 0.71300712E+03</totfact>
</mgrwt>
</event>
<event>
 5    1  0.8891499E-003  0.5955302E+02  0.7546771E-02  0.1411593E+00
          1   -1    0    0  501    0 -0.00000000000E+00  0.00000000000E+00  0.39703580547E+03  0.39703580547E+03  0.00000000000E+00 0. -1.
          2   -1    0    0  502    0  0.00000000000E+00 -0.00000000000E+00 -0.50901205072E+03  0.50901205072E+03  0.00000000000E+00 0. -1.
         25    1    1    2    0    0  0.30751598144E+02 -0.97384665150E+02 -0.42975573287E+02  0.16703692315E+03  0.12500000000E+03 0.  0.
          2    1    1    2  501    0  0.79419960053E+01  0.53665770961E+02  0.33067402033E+03  0.33509461052E+03  0.00000000000E+00 0. -1.
          1    1    1    2  502    0 -0.38693594149E+02  0.43718894189E+02 -0.39967469230E+03  0.40391632253E+03  0.00000000000E+00 0. -1.
<mgrwt>
<rscale>  0 0.56839835E+02</rscale>
<asrwt>0</asrwt>
<pdfrwt beam="2">  1        2 0.78309546E-01 0.59553025E+02</pdfrwt>
<pdfrwt beam="1">  1        1 0.61082431E-01 0.54250256E+02</pdfrwt>
<totfact> 0.53134898E+02</totfact>
</mgrwt>
</event>
<event>
 5    1  0.8891499E-003  0.6772390E+02  0.7546771E-02  0.1525504E+00
          1   -1    0    0  501    0 -0.00000000000E+00  0.00000000000E+00  0.39195468008E+03  0.39195468008E+03  0.00000000000E+00 0. -1.
          2   -1    0    0  502    0  0.00000000000E+00 -0.00000000000E+00 -0.12439846677E+04  0.12439846677E+04  0.00000000000E+00 0. -1.
         25    1    1    2    0    0 -0.80757829112E+02  0.30615127122E+02 -0.22847378789E+03  0.27438000059E+03  0.12500000000E+03 0.  0.
          2    1    1    2  501    0  0.59738542706E+02 -0.31431202378E+02  0.36580171813E+03  0.37197783664E+03  0.00000000000E+00 0. -1.
          1    1    1    2  502    0  0.21019286406E+02  0.81607525531E+00 -0.98935791789E+03  0.98958151057E+03  0.00000000000E+00 0. -1.
<mgrwt>
<rscale>  0 0.37743616E+02</rscale>
<asrwt>0</asrwt>
<pdfrwt beam="2">  1        2 0.19138226E+00 0.21035123E+02</pdfrwt>
<pdfrwt beam="1">  1        1 0.60300720E-01 0.67723902E+02</pdfrwt>
<totfact> 0.19465566E+02</totfact>
</mgrwt>
</event>
<event>
 5    1  0.8891499E-003  0.6629159E+02  0.7546771E-02  0.1389747E+00
          2   -1    0    0  502    0  0.00000000000E+00  0.00000000000E+00  0.15562047527E+04  0.15562047527E+04  0.00000000000E+00 0. -1.
         -2   -1    0    0    0  501 -0.00000000000E+00 -0.00000000000E+00 -0.45007085313E+02  0.45007085313E+02  0.00000000000E+00 0.  1.
         25    1    1    2    0    0  0.15107028076E+02  0.28630103906E+02  0.37474813937E+03  0.39636986907E+03  0.12500000000E+03 0.  0.
          1    1    1    2  502    0  0.54967550157E+02 -0.18287027809E+02  0.11324124736E+04  0.11338932301E+04  0.00000000000E+00 0. -1.
         -1    1    1    2    0  501 -0.70074578233E+02 -0.10343076096E+02  0.40370544645E+01  0.70948738865E+02  0.00000000000E+00 0.  1.
<mgrwt>
<rscale>  0 0.61969750E+02</rscale>
<asrwt>0</asrwt>
<pdfrwt beam="1">  1        2 0.23941607E+00 0.57929673E+02</pdfrwt>
<pdfrwt beam="2">  1       -2 0.69241682E-02 0.66291586E+02</pdfrwt>
<totfact> 0.15413845E+03</totfact>
</mgrwt>
</event>
<event>
 5    1  0.8891499E-003  0.7271709E+02  0.7546771E-02  0.1374574E+00
         -1   -1    0    0    0  502 -0.00000000000E+00  0.00000000000E+00  0.14571663392E+03  0.14571663392E+03  0.00000000000E+00 0.  1.
         -2   -1    0    0    0  501  0.00000000000E+00 -0.00000000000E+00 -0.19106618369E+03  0.19106618369E+03  0.00000000000E+00 0.  1.
         25    1    1    2    0    0 -0.48981246551E+02  0.28984814334E+02  0.15947496321E+02  0.13827004236E+03  0.12500000000E+03 0.  0.
         -2    1    1    2    0  502 -0.25576344300E+02 -0.53992145372E+02  0.38786564845E+02  0.71229900759E+02  0.00000000000E+00 0.  1.
         -1    1    1    2    0  501  0.74557590851E+02  0.25007331038E+02 -0.10008361094E+03  0.12728287449E+03  0.00000000000E+00 0.  1.
<mgrwt>
<rscale>  0 0.65911932E+02</rscale>
<asrwt>0</asrwt>
<pdfrwt beam="2">  1       -2 0.29394797E-01 0.72717089E+02</pdfrwt>
<pdfrwt beam="1">  1       -1 0.22417944E-01 0.59743629E+02</pdfrwt>
<totfact> 0.12222064E+03</totfact>
</mgrwt>
</event>
<event>
 5    1  0.8891499E-003  0.6512449E+02  0.7546771E-02  0.1401841E+00
          2   -1    0    0  502    0  0.00000000000E+00  0.00000000000E+00  0.18303545859E+03  0.18303545859E+03  0.00000000000E+00 0. -1.
          1   -1    0    0  501    0 -0.00000000000E+00 -0.00000000000E+00 -0.16037302481E+04  0.16037302481E+04  0.00000000000E+00 0. -1.
         25    1    1    2    0    0 -0.10172789936E+03  0.42866798076E+01 -0.92406792635E+03  0.93802637151E+03  0.12500000000E+03 0.  0.
          2    1    1    2  501    0  0.55179809245E+02  0.22189344142E+02 -0.66725748670E+03  0.66990277794E+03  0.00000000000E+00 0. -1.
          1    1    1    2  502    0  0.46548090112E+02 -0.26476023949E+02  0.17063062351E+03  0.17883655727E+03  0.00000000000E+00 0. -1.
<mgrwt>
<rscale>  0 0.59054877E+02</rscale>
<asrwt>0</asrwt>
<pdfrwt beam="1">  1        2 0.28159302E-01 0.53550953E+02</pdfrwt>
<pdfrwt beam="2">  1        1 0.24672773E+00 0.65124491E+02</pdfrwt>
<totfact> 0.17398097E+02</totfact>
</mgrwt>
</event>
<event>
 5    1  0.8891499E-003  0.1714837E+03  0.7546771E-02  0.1356567E+00
          1   -1    0    0  501    0 -0.00000000000E+00  0.00000000000E+00  0.19048868051E+03  0.19048868051E+03  0.00000000000E+00 0. -1.
          2   -1    0    0  502    0  0.00000000000E+00 -0.00000000000E+00 -0.94175686388E+03  0.94175686388E+03  0.00000000000E+00 0. -1.
         25    1    1    2    0    0 -0.17029077282E+02 -0.15060031301E+03 -0.25236326544E+03  0.31981660604E+03  0.12500000000E+03 0.  0.
          2    1    1    2  501    0 -0.15053291434E+02 -0.25295322803E+02  0.14304616715E+03  0.14604335273E+03  0.00000000000E+00 0. -1.
          1    1    1    2  502    0  0.32082368716E+02  0.17589563582E+03 -0.64195108509E+03  0.66638558562E+03  0.00000000000E+00 0. -1.
<mgrwt>
<rscale>  0 0.71047362E+02</rscale>
<asrwt>0</asrwt>
<pdfrwt beam="2">  1        2 0.14488567E+00 0.17148373E+03</pdfrwt>
<pdfrwt beam="1">  1        1 0.29305951E-01 0.29435607E+02</pdfrwt>
<totfact> 0.59155985E+02</totfact>
</mgrwt>
</event>
<event>
 5    1  0.8891499E-003  0.5334973E+02  0.7546771E-02  0.1547318E+00
          2   -1    0    0  502    0  0.00000000000E+00  0.00000000000E+00  0.89669744219E+03  0.89669744219E+03  0.00000000000E+00 0. -1.
         -2   -1    0    0    0  501 -0.00000000000E+00 -0.00000000000E+00 -0.14672443500E+04  0.14672443500E+04  0.00000000000E+00 0.  1.
         25    1    1    2    0    0 -0.53659452807E+02  0.34451315652E+02 -0.14049415513E+03  0.19856947815E+03  0.12500000000E+03 0.  0.
          1    1    1    2  502    0  0.32005441751E+02 -0.42644195829E+02  0.86673723385E+03  0.86837567232E+03  0.00000000000E+00 0. -1.
         -1    1    1    2    0  501  0.21654011056E+02  0.81928801777E+01 -0.12967899866E+04  0.12969966418E+04  0.00000000000E+00 0.  1.
<mgrwt>
<rscale>  0 0.35144814E+02</rscale>
<asrwt>0</asrwt>
<pdfrwt beam="1">  1        2 0.13795345E+00 0.53349729E+02</pdfrwt>
<pdfrwt beam="2">  1       -2 0.22572990E+00 0.23152095E+02</pdfrwt>
<totfact> 0.40434857E+00</totfact>
</mgrwt>
</event>
<event>
 5    1  0.8891499E-003  0.7943935E+02  0.7546771E-02  0.1382686E+00
          1   -1    0    0  501    0 -0.00000000000E+00  0.00000000000E+00  0.67125761133E+03  0.67125761133E+03  0.00000000000E+00 0. -1.
          2   -1    0    0  502    0  0.00000000000E+00 -0.00000000000E+00 -0.79296718689E+02  0.79296718689E+02  0.00000000000E+00 0. -1.
         25    1    1    2    0    0  0.20154583153E+02 -0.15480780868E+01  0.41848874962E+03  0.43722584247E+03  0.12500000000E+03 0.  0.
          2    1    1    2  501    0 -0.42090508944E+02  0.77898755526E+02  0.20849068178E+03  0.22651311539E+03  0.00000000000E+00 0. -1.
          1    1    1    2  502    0  0.21935925791E+02 -0.76350677439E+02 -0.35018538757E+02  0.86815372155E+02  0.00000000000E+00 0. -1.
<mgrwt>
<rscale>  0 0.63762911E+02</rscale>
<asrwt>0</asrwt>
<pdfrwt beam="2">  1        2 0.12199496E-01 0.79439353E+02</pdfrwt>
<pdfrwt beam="1">  1        1 0.10327040E+00 0.51180035E+02</pdfrwt>
<totfact> 0.20392499E+03</totfact>
</mgrwt>
</event>
<event>
 5    1  0.8891499E-003  0.3174775E+03  0.7546771E-02  0.1157536E+00
          1   -1    0    0  501    0 -0.00000000000E+00  0.00000000000E+00  0.33340836597E+03  0.33340836597E+03  0.00000000000E+00 0. -1.
          2   -1    0    0  502    0  0.00000000000E+00 -0.00000000000E+00 -0.56349155399E+03  0.56349155399E+03  0.00000000000E+00 0. -1.
         25    1    1    2    0    0  0.17307752855E+03 -0.29887873572E+03 -0.82131918154E+02  0.37637080324E+03  0.12500000000E+03 0.  0.
          2    1    1    2  501    0  0.61181608009E+02  0.97308627752E+02  0.76941437102E+02  0.13831898979E+03  0.00000000000E+00 0. -1.
          1    1    1    2  502    0 -0.23425913656E+03  0.20157010796E+03 -0.22489270697E+03  0.38221012694E+03  0.00000000000E+00 0. -1.
<mgrwt>
<rscale>  0 0.19102928E+03</rscale>
<asrwt>0</asrwt>
<pdfrwt beam="2">  1        2 0.86691008E-01 0.31747752E+03</pdfrwt>
<pdfrwt beam="1">  1        1 0.51293595E-01 0.11494415E+03</pdfrwt>
<totfact> 0.56780107E+02</totfact>
</mgrwt>
</event>
<event>
 5    1  0.8891499E-003  0.5004023E+02  0.7546771E-02  0.1540280E+00
          2   -1    0    0  502    0  0.00000000000E+00  0.00000000000E+00  0.21572654776E+03  0.21572654776E+03  0.00000000000E+00 0. -1.
          1   -1    0    0  501    0 -0.00000000000E+00 -0.00000000000E+00 -0.12020630980E+04  0.12020630980E+04  0.00000000000E+00 0. -1.
         25    1    1    2    0    0 -0.17807248569E+02  0.60658897916E+02 -0.20380618312E+03  0.24730256828E+03  0.12500000000E+03 0.  0.
          2    1    1    2  501    0 -0.54880659222E+01 -0.49489870177E+02 -0.97501040983E+03  0.97628103812E+03  0.00000000000E+00 0. -1.
          3    1    1    2  502    0  0.23295314491E+02 -0.11169027739E+02  0.19248004274E+03  0.19420603933E+03  0.00000000000E+00 0. -1.
<mgrwt>
<rscale>  0 0.35954996E+02</rscale>
<asrwt>0</asrwt>
<pdfrwt beam="1">  1        2 0.33188700E-01 0.25834451E+02</pdfrwt>
<pdfrwt beam="2">  1        1 0.18493278E+00 0.50040226E+02</pdfrwt>
<totfact> 0.26460059E+02</totfact>
</mgrwt>
</event>
<event>
 5    1  0.8891499E-003  0.9770897E+02  0.7546771E-02  0.1458173E+00
          2   -1    0    0  502    0  0.00000000000E+00  0.00000000000E+00  0.16333802249E+04  0.16333802249E+04  0.00000000000E+00 0. -1.
          1   -1    0    0  501    0 -0.00000000000E+00 -0.00000000000E+00 -0.64041361495E+02  0.64041361495E+02  0.00000000000E+00 0. -1.
         25    1    1    2    0    0  0.24508617860E+02 -0.76211423851E+02  0.53798113305E+03  0.55808382255E+03  0.12500000000E+03 0.  0.
          2    1    1    2  501    0 -0.16121733713E+02  0.97932153118E+02 -0.81361030925E+01  0.99583196804E+02  0.00000000000E+00 0. -1.
          1    1    1    2  502    0 -0.83868841469E+01 -0.21720729267E+02  0.10394938335E+04  0.10397545671E+04  0.00000000000E+00 0. -1.
<mgrwt>
<rscale>  0 0.47697219E+02</rscale>
<asrwt>0</asrwt>
<pdfrwt beam="1">  1        2 0.25128923E+00 0.23283683E+02</pdfrwt>
<pdfrwt beam="2">  1        1 0.98525184E-02 0.97708971E+02</pdfrwt>
<totfact> 0.12165227E+03</totfact>
</mgrwt>
</event>
<event>
 5    1  0.8891499E-003  0.8933461E+02  0.7546771E-02  0.1340346E+00
         -1   -1    0    0    0  502 -0.00000000000E+00  0.00000000000E+00  0.83503669339E+02  0.83503669339E+02  0.00000000000E+00 0.  1.
         -2   -1    0    0    0  501  0.00000000000E+00 -0.00000000000E+00 -0.33755067673E+03  0.33755067673E+03  0.00000000000E+00 0.  1.
         25    1    1    2    0    0 -0.19627327050E+02  0.12256421304E+03 -0.14248286905E+03  0.22656916440E+03  0.12500000000E+03 0.  0.
         -2    1    1    2    0  502 -0.29018526266E+02 -0.58064290804E+02 -0.11571894936E+02  0.65935161224E+02  0.00000000000E+00 0.  1.
         -1    1    1    2    0  501  0.48645853317E+02 -0.64499922240E+02 -0.99992243407E+02  0.12855002044E+03  0.00000000000E+00 0.  1.
<mgrwt>
<rscale>  0 0.76150290E+02</rscale>
<asrwt>0</asrwt>
<pdfrwt beam="2">  1       -2 0.51930873E-01 0.89334606E+02</pdfrwt>
<pdfrwt beam="1">  1       -1 0.12846718E-01 0.64911761E+02</pdfrwt>
<totfact> 0.10085597E+03</totfact>
</mgrwt>
</event>
<event>
 5    1  0.8891499E-003  0.1596362E+03  0.7546771E-02  0.1251894E+00
          2   -1    0    0  502    0  0.00000000000E+00  0.00000000000E+00  0.27909784047E+04  0.27909784047E+04  0.00000000000E+00 0. -1.
          1   -1    0    0  501    0 -0.00000000000E+00 -0.00000000000E+00 -0.93841978458E+03  0.93841978458E+03  0.00000000000E+00 0. -1.
         25    1    1    2    0    0 -0.80485111239E+02 -0.67595567245E+01 -0.11587918649E+03  0.18861741860E+03  0.12500000000E+03 0.  0.
          2    1    1    2  501    0 -0.74968056929E+02 -0.34646789559E+02 -0.78164538298E+03  0.78599625592E+03  0.00000000000E+00 0. -1.
          1    1    1    2  502    0  0.15545316817E+03  0.41406346284E+02  0.27500831896E+04  0.27547845147E+04  0.00000000000E+00 0. -1.
<mgrwt>
<rscale>  0 0.11482106E+03</rscale>
<asrwt>0</asrwt>
<pdfrwt beam="1">  1        2 0.42938129E+00 0.15963623E+03</pdfrwt>
<pdfrwt beam="2">  1        1 0.14437228E+00 0.82586982E+02</pdfrwt>
<totfact> 0.78142517E+00</totfact>
</mgrwt>
</event>
<event>
 5    1  0.8891499E-003  0.9729443E+02  0.7546771E-02  0.1349779E+00
         -1   -1    0    0    0  501 -0.00000000000E+00  0.00000000000E+00  0.30859291002E+03  0.30859291002E+03  0.00000000000E+00 0.  1.
          1   -1    0    0  502    0  0.00000000000E+00 -0.00000000000E+00 -0.49796531372E+03  0.49796531372E+03  0.00000000000E+00 0. -1.
         25    1    1    2    0    0  0.69329563661E+02  0.93507855054E+02  0.64610476190E+01  0.17092996370E+03  0.12500000000E+03 0.  0.
          2    1    1    2  502    0 -0.14418364132E+02 -0.95803765928E+02 -0.40651289362E+03  0.41789829322E+03  0.00000000000E+00 0. -1.
         -2    1    1    2    0  501 -0.54911199529E+02  0.22959108740E+01  0.21067944231E+03  0.21772996682E+03  0.00000000000E+00 0.  1.
<mgrwt>
<rscale>  0 0.73124701E+02</rscale>
<asrwt>0</asrwt>
<pdfrwt beam="2">  1        1 0.76610048E-01 0.97294434E+02</pdfrwt>
<pdfrwt beam="1">  1       -1 0.47475832E-01 0.54959176E+02</pdfrwt>
<totfact> 0.21391610E+02</totfact>
</mgrwt>
</event>
<event>
 5    1  0.8891499E-003  0.4938815E+02  0.7546771E-02  0.1454487E+00
          2   -1    0    0  502    0  0.00000000000E+00  0.00000000000E+00  0.88376207747E+02  0.88376207747E+02  0.00000000000E+00 0. -1.
          1   -1    0    0  501    0 -0.00000000000E+00 -0.00000000000E+00 -0.28344060428E+04  0.28344060428E+04  0.00000000000E+00 0. -1.
         25    1    1    2    0    0  0.29064992157E+02  0.52376697453E+02 -0.27264732705E+03  0.30585888438E+03  0.12500000000E+03 0.  0.
          2    1    1    2  501    0 -0.46938176809E+02 -0.60050127608E+01 -0.25363026300E+04  0.25367440320E+04  0.00000000000E+00 0. -1.
          1    1    1    2  502    0  0.17873184652E+02 -0.46371684692E+02  0.62920122050E+02  0.80179334180E+02  0.00000000000E+00 0. -1.
<mgrwt>
<rscale>  0 0.48343397E+02</rscale>
<asrwt>0</asrwt>
<pdfrwt beam="1">  1        2 0.13596340E-01 0.49388153E+02</pdfrwt>
<pdfrwt beam="2">  1        1 0.43606247E+00 0.47320742E+02</pdfrwt>
<totfact> 0.68617260E+01</totfact>
</mgrwt>
</event>
<event>
 5    1  0.8891499E-003  0.7835819E+02  0.7546771E-02  0.1352075E+00
          1   -1    0    0  501    0 -0.00000000000E+00  0.00000000000E+00  0.13029416950E+04  0.13029416950E+04  0.00000000000E+00 0. -1.
          2   -1    0    0  502    0  0.00000000000E+00 -0.00000000000E+00 -0.35730992779E+02  0.35730992779E+02  0.00000000000E+00 0. -1.
         25    1    1    2    0    0 -0.47639394797E+02  0.10550181053E+03  0.49109615160E+03  0.51980820893E+03  0.12500000000E+03 0.  0.
          2    1    1    2  501    0  0.63666096970E+02 -0.40530470916E+02  0.73800674085E+03  0.74185580844E+03  0.00000000000E+00 0. -1.
          1    1    1    2  502    0 -0.16026702173E+02 -0.64971339617E+02  0.38107809808E+02  0.77008670438E+02  0.00000000000E+00 0. -1.
<mgrwt>
<rscale>  0 0.72412970E+02</rscale>
<asrwt>0</asrwt>
<pdfrwt beam="2">  1        2 0.54970768E-02 0.66918833E+02</pdfrwt>
<pdfrwt beam="1">  1        1 0.20045253E+00 0.78358185E+02</pdfrwt>
<totfact> 0.18039050E+03</totfact>
</mgrwt>
</event>
<event>
 5    1  0.8891499E-003  0.2495912E+03  0.7546771E-02  0.1294295E+00
          2   -1    0    0  502    0  0.00000000000E+00  0.00000000000E+00  0.87374210319E+03  0.87374210319E+03  0.00000000000E+00 0. -1.
          1   -1    0    0  501    0 -0.00000000000E+00 -0.00000000000E+00 -0.32196487902E+04  0.32196487902E+04  0.00000000000E+00 0. -1.
         25    1    1    2    0    0  0.21616644963E+03  0.78269360516E+02 -0.91788379434E+03  0.95445779721E+03  0.12500000000E+03 0.  0.
          2    1    1    2  501    0 -0.24908302673E+03 -0.66017708828E+02 -0.22758435471E+04  0.22903852389E+04  0.00000000000E+00 0. -1.
          1    1    1    2  502    0  0.32916577104E+02 -0.12251651688E+02  0.84782065439E+03  0.84854785724E+03  0.00000000000E+00 0. -1.
<mgrwt>
<rscale>  0 0.93628605E+02</rscale>
<asrwt>0</asrwt>
<pdfrwt beam="1">  1        2 0.13442186E+00 0.35122699E+02</pdfrwt>
<pdfrwt beam="2">  1        1 0.49533058E+00 0.24959117E+03</pdfrwt>
<totfact> 0.24317220E+00</totfact>
</mgrwt>
</event>
<event>
 5    1  0.8891499E-003  0.3783581E+03  0.7546771E-02  0.1162560E+00
          1   -1    0    0  501    0 -0.00000000000E+00  0.00000000000E+00  0.21327761481E+03  0.21327761481E+03  0.00000000000E+00 0. -1.
          2   -1    0    0  502    0  0.00000000000E+00 -0.00000000000E+00 -0.40273270820E+04  0.40273270820E+04  0.00000000000E+00 0. -1.
         25    1    1    2    0    0  0.30856585990E+03  0.29751246706E+03 -0.54055201446E+03  0.70110486968E+03  0.12500000000E+03 0.  0.
          2    1    1    2  501    0 -0.21831450885E+03 -0.28608703743E+03 -0.11228880898E+03  0.37698248551E+03  0.00000000000E+00 0. -1.
          1    1    1    2  502    0 -0.90251351052E+02 -0.11425429629E+02 -0.31612086437E+04  0.31625173416E+04  0.00000000000E+00 0. -1.
<mgrwt>
<rscale>  0 0.18552595E+03</rscale>
<asrwt>0</asrwt>
<pdfrwt beam="2">  1        2 0.61958873E+00 0.90971681E+02</pdfrwt>
<pdfrwt beam="1">  1        1 0.32811943E-01 0.37835814E+03</pdfrwt>
<totfact> 0.98764202E+00</totfact>
</mgrwt>
</event>
<event>
 5    1  0.8891499E-003  0.6012755E+02  0.7546771E-02  0.1464276E+00
          2   -1    0    0  502    0  0.00000000000E+00  0.00000000000E+00  0.10759537963E+04  0.10759537963E+04  0.00000000000E+00 0. -1.
         -2   -1    0    0    0  501 -0.00000000000E+00 -0.00000000000E+00 -0.35192880216E+03  0.35192880216E+03  0.00000000000E+00 0.  1.
         25    1    1    2    0    0  0.43859014954E+02  0.17964769169E+02  0.31357263304E+03  0.34087995294E+03  0.12500000000E+03 0.  0.
          1    1    1    2  502    0  0.14503551800E+02 -0.33166211535E+02  0.74559680253E+03  0.74647501133E+03  0.00000000000E+00 0. -1.
         -1    1    1    2    0  501 -0.58362566754E+02  0.15201442366E+02 -0.33514444142E+03  0.34052763421E+03  0.00000000000E+00 0.  1.
<mgrwt>
<rscale>  0 0.46653436E+02</rscale>
<asrwt>0</asrwt>
<pdfrwt beam="1">  1        2 0.16553135E+00 0.36198765E+02</pdfrwt>
<pdfrwt beam="2">  1       -2 0.54142893E-01 0.60127549E+02</pdfrwt>
<totfact> 0.88027951E+01</totfact>
</mgrwt>
</event>
<event>
 5    1  0.8891499E-003  0.1315441E+03  0.7546771E-02  0.1297903E+00
         -1   -1    0    0    0  501 -0.00000000000E+00  0.00000000000E+00  0.55409039290E+03  0.55409039290E+03  0.00000000000E+00 0.  1.
          1   -1    0    0  502    0  0.00000000000E+00 -0.00000000000E+00 -0.13286483651E+04  0.13286483651E+04  0.00000000000E+00 0. -1.
         25    1    1    2    0    0  0.87679623541E+02 -0.36565389176E+02  0.13858099253E+03  0.20941450657E+03  0.12500000000E+03 0.  0.
          2    1    1    2  502    0 -0.85716994363E+02  0.10098391194E+03 -0.12870760209E+04  0.12938739650E+04  0.00000000000E+00 0. -1.
         -2    1    1    2    0  501 -0.19626291778E+01 -0.64418522762E+02  0.37393705613E+03  0.37945028652E+03  0.00000000000E+00 0.  1.
<mgrwt>
<rscale>  0 0.92075003E+02</rscale>
<asrwt>0</asrwt>
<pdfrwt beam="2">  1        1 0.20440744E+00 0.13154406E+03</pdfrwt>
<pdfrwt beam="1">  1       -1 0.85244676E-01 0.64448413E+02</pdfrwt>
<totfact> 0.15084377E+01</totfact>
</mgrwt>
</event>
<event>
 5    1  0.8891499E-003  0.1757655E+03  0.7546771E-02  0.1217876E+00
          2   -1    0    0  502    0  0.00000000000E+00  0.00000000000E+00  0.25768266691E+04  0.25768266691E+04  0.00000000000E+00 0. -1.
          1   -1    0    0  501    0 -0.00000000000E+00 -0.00000000000E+00 -0.20354498683E+04  0.20354498683E+04  0.00000000000E+00 0. -1.
         25    1    1    2    0    0 -0.21519922300E+01  0.11546861991E+03 -0.50982938366E+03  0.53748361249E+03  0.12500000000E+03 0.  0.
          2    1    1    2  501    0  0.68739377937E+02 -0.19829842377E+03 -0.15033992384E+04  0.15179778117E+04  0.00000000000E+00 0. -1.
          1    1    1    2  502    0 -0.66587385707E+02  0.82829803869E+02  0.25546054229E+04  0.25568151132E+04  0.00000000000E+00 0. -1.
<mgrwt>
<rscale>  0 0.13667374E+03</rscale>
<asrwt>0</asrwt>
<pdfrwt beam="1">  1        2 0.39643487E+00 0.10627632E+03</pdfrwt>
<pdfrwt beam="2">  1        1 0.31314613E+00 0.17576550E+03</pdfrwt>
<totfact> 0.19099851E+00</totfact>
</mgrwt>
</event>
<event>
 5    1  0.8891499E-003  0.5265260E+02  0.7546771E-02  0.1497766E+00
          1   -1    0    0  501    0 -0.00000000000E+00  0.00000000000E+00  0.48898265541E+02  0.48898265541E+02  0.00000000000E+00 0. -1.
          2   -1    0    0  502    0  0.00000000000E+00 -0.00000000000E+00 -0.94061991487E+03  0.94061991487E+03  0.00000000000E+00 0. -1.
         25    1    1    2    0    0 -0.55541025493E+02  0.31206611979E+02 -0.37118526752E+03  0.39681502110E+03  0.12500000000E+03 0.  0.
          2    1    1    2  501    0  0.31967738272E+01 -0.32482494312E+02  0.27189324006E+02  0.42480479512E+02  0.00000000000E+00 0. -1.
          1    1    1    2  502    0  0.52344251666E+02  0.12758823326E+01 -0.54772570581E+03  0.55022267980E+03  0.00000000000E+00 0. -1.
<mgrwt>
<rscale>  0 0.41455403E+02</rscale>
<asrwt>0</asrwt>
<pdfrwt beam="2">  1        2 0.14471075E+00 0.52652601E+02</pdfrwt>
<pdfrwt beam="1">  1        1 0.75228103E-02 0.32639421E+02</pdfrwt>
<totfact> 0.33574989E+03</totfact>
</mgrwt>
</event>
<event>
 5    1  0.8891499E-003  0.4748100E+02  0.7546771E-02  0.1495387E+00
          1   -1    0    0  501    0 -0.00000000000E+00  0.00000000000E+00  0.67390413878E+03  0.67390413878E+03  0.00000000000E+00 0. -1.
          2   -1    0    0  502    0  0.00000000000E+00 -0.00000000000E+00 -0.79155544121E+03  0.79155544121E+03  0.00000000000E+00 0. -1.
         25    1    1    2    0    0 -0.23761386141E+02 -0.84384890969E+01  0.71058599670E+02  0.14597991696E+03  0.12500000000E+03 0.  0.
          2    1    1    2  501    0  0.18126209147E+02  0.44798321049E+02  0.56390194810E+03  0.56596895330E+03  0.00000000000E+00 0. -1.
          1    1    1    2  502    0  0.56351769937E+01 -0.36359831952E+02 -0.75261185021E+03  0.75351070973E+03  0.00000000000E+00 0. -1.
<mgrwt>
<rscale>  0 0.41797275E+02</rscale>
<asrwt>0</asrwt>
<pdfrwt beam="2">  1        2 0.12177776E+00 0.36793921E+02</pdfrwt>
<pdfrwt beam="1">  1        1 0.10367756E+00 0.47481001E+02</pdfrwt>
<totfact> 0.16935323E+02</totfact>
</mgrwt>
</event>
<event>
 5    1  0.8891499E-003  0.1262300E+03  0.7546771E-02  0.1396937E+00
          1   -1    0    0  501    0 -0.00000000000E+00  0.00000000000E+00  0.58396818718E+03  0.58396818718E+03  0.00000000000E+00 0. -1.
          2   -1    0    0  502    0  0.00000000000E+00 -0.00000000000E+00 -0.34152856924E+03  0.34152856924E+03  0.00000000000E+00 0. -1.
         25    1    1    2    0    0 -0.12505486784E+03  0.27259169709E+02 -0.87176418066E+02  0.19901384417E+03  0.12500000000E+03 0.  0.
          2    1    1    2  501    0  0.12629218524E+03  0.14369961729E+01  0.51940116484E+03  0.53453657597E+03  0.00000000000E+00 0. -1.
          1    1    1    2  502    0 -0.12373173999E+01 -0.28696165882E+02 -0.18978512882E+03  0.19194633629E+03  0.00000000000E+00 0. -1.
<mgrwt>
<rscale>  0 0.60213650E+02</rscale>
<asrwt>0</asrwt>
<pdfrwt beam="2">  1        2 0.52542857E-01 0.28722829E+02</pdfrwt>
<pdfrwt beam="1">  1        1 0.89841260E-01 0.12623004E+03</pdfrwt>
<totfact> 0.48100404E+02</totfact>
</mgrwt>
</event>
<event>
 5    1  0.8891499E-003  0.4783986E+02  0.7546771E-02  0.1488992E+00
          2   -1    0    0  502    0  0.00000000000E+00  0.00000000000E+00  0.47393482467E+03  0.47393482467E+03  0.00000000000E+00 0. -1.
          1   -1    0    0  501    0 -0.00000000000E+00 -0.00000000000E+00 -0.35094279054E+03  0.35094279054E+03  0.00000000000E+00 0. -1.
         25    1    1    2    0    0 -0.78789655851E+01 -0.72348219097E+01 -0.59004125467E+02  0.13863948777E+03  0.12500000000E+03 0.  0.
          2    1    1    2  501    0 -0.35323026380E+02 -0.14481959211E+02 -0.24931706591E+03  0.25222300190E+03  0.00000000000E+00 0. -1.
          1    1    1    2  502    0  0.43201991965E+02  0.21716781120E+02  0.43131322551E+03  0.43401512553E+03  0.00000000000E+00 0. -1.
<mgrwt>
<rscale>  0 0.42735902E+02</rscale>
<asrwt>0</asrwt>
<pdfrwt beam="1">  1        2 0.72913050E-01 0.47839861E+02</pdfrwt>
<pdfrwt beam="2">  1        1 0.53991199E-01 0.38176476E+02</pdfrwt>
<totfact> 0.66736787E+02</totfact>
</mgrwt>
</event>
<event>
 5    1  0.8891499E-003  0.4665893E+02  0.7546771E-02  0.1474790E+00
          2   -1    0    0  502    0  0.00000000000E+00  0.00000000000E+00  0.36478953561E+02  0.36478953561E+02  0.00000000000E+00 0. -1.
         -2   -1    0    0    0  501 -0.00000000000E+00 -0.00000000000E+00 -0.45729031833E+03  0.45729031833E+03  0.00000000000E+00 0.  1.
         25    1    1    2    0    0  0.99813087092E+00 -0.42678328703E+02 -0.35080834386E+03  0.37485187758E+03  0.12500000000E+03 0.  0.
          1    1    1    2  502    0  0.39793650506E+02  0.28269682959E+02 -0.19878985043E+02  0.52705631972E+02  0.00000000000E+00 0. -1.
         -1    1    1    2    0  501 -0.40791781377E+02  0.14408645744E+02 -0.50124035865E+02  0.66211762335E+02  0.00000000000E+00 0.  1.
<mgrwt>
<rscale>  0 0.44928238E+02</rscale>
<asrwt>0</asrwt>
<pdfrwt beam="1">  1        2 0.56121468E-02 0.46658927E+02</pdfrwt>
<pdfrwt beam="2">  1       -2 0.70352356E-01 0.43261744E+02</pdfrwt>
<totfact> 0.22453446E+03</totfact>
</mgrwt>
</event>
<event>
 5    1  0.8891499E-003  0.6737835E+02  0.7546771E-02  0.1402511E+00
          1   -1    0    0  501    0 -0.00000000000E+00  0.00000000000E+00  0.22244087331E+03  0.22244087331E+03  0.00000000000E+00 0. -1.
          2   -1    0    0  502    0  0.00000000000E+00 -0.00000000000E+00 -0.51131548262E+03  0.51131548262E+03  0.00000000000E+00 0. -1.
         25    1    1    2    0    0 -0.39549567731E+02 -0.72898798172E+01 -0.88865179391E+02  0.15855387338E+03  0.12500000000E+03 0.  0.
          2    1    1    2  501    0  0.55609627452E+02 -0.41628084617E+02  0.17936699730E+03  0.19234824620E+03  0.00000000000E+00 0. -1.
          1    1    1    2  502    0 -0.16060059721E+02  0.48917964434E+02 -0.37937642722E+03  0.38285423635E+03  0.00000000000E+00 0. -1.
<mgrwt>
<rscale>  0 0.58899043E+02</rscale>
<asrwt>0</asrwt>
<pdfrwt beam="2">  1        2 0.78663919E-01 0.51486821E+02</pdfrwt>
<pdfrwt beam="1">  1        1 0.34221674E-01 0.67378354E+02</pdfrwt>
<totfact> 0.10665813E+03</totfact>
</mgrwt>
</event>
<event>
 5    1  0.8891499E-003  0.8975198E+02  0.7546771E-02  0.1316310E+00
          2   -1    0    0  502    0  0.00000000000E+00  0.00000000000E+00  0.33702399476E+03  0.33702399476E+03  0.00000000000E+00 0. -1.
          1   -1    0    0  501    0 -0.00000000000E+00 -0.00000000000E+00 -0.10538846768E+04  0.10538846768E+04  0.00000000000E+00 0. -1.
         25    1    1    2    0    0  0.57596915495E+02 -0.18444378290E+02 -0.16578031336E+03  0.21625381398E+03  0.12500000000E+03 0.  0.
          2    1    1    2  501    0 -0.36655873012E+02 -0.70957947288E+02 -0.85420372939E+03  0.85792930630E+03  0.00000000000E+00 0. -1.
          1    1    1    2  502    0 -0.20941042483E+02  0.89402325578E+02  0.30312336066E+03  0.31672555132E+03  0.00000000000E+00 0. -1.
<mgrwt>
<rscale>  0 0.84665168E+02</rscale>
<asrwt>0</asrwt>
<pdfrwt beam="1">  1        2 0.51849846E-01 0.89751979E+02</pdfrwt>
<pdfrwt beam="2">  1        1 0.16213610E+00 0.79866660E+02</pdfrwt>
<totfact> 0.20813740E+02</totfact>
</mgrwt>
</event>
<event>
 5    1  0.8891499E-003  0.9673272E+02  0.7546771E-02  0.1453239E+00
          1   -1    0    0  501    0 -0.00000000000E+00  0.00000000000E+00  0.20298897774E+02  0.20298897774E+02  0.00000000000E+00 0. -1.
          2   -1    0    0  502    0  0.00000000000E+00 -0.00000000000E+00 -0.21556177355E+04  0.21556177355E+04  0.00000000000E+00 0. -1.
         25    1    1    2    0    0  0.42719055828E+02 -0.81643510639E+02 -0.10686365705E+04  0.10798609635E+04  0.12500000000E+03 0.  0.
          2    1    1    2  501    0 -0.65414713267E+02  0.72732671947E+02 -0.15018133120E+03  0.17923046203E+03  0.00000000000E+00 0. -1.
          1    1    1    2  502    0  0.22695657439E+02  0.89108386924E+01 -0.91650093596E+03  0.91682520773E+03  0.00000000000E+00 0. -1.
<mgrwt>
<rscale>  0 0.48565059E+02</rscale>
<asrwt>0</asrwt>
<pdfrwt beam="2">  1        2 0.33163342E+00 0.24382287E+02</pdfrwt>
<pdfrwt beam="1">  1        1 0.31229081E-02 0.96732722E+02</pdfrwt>
<totfact> 0.32388908E+03</totfact>
</mgrwt>
</event>
<event>
 5    1  0.8891499E-003  0.1135481E+03  0.7546771E-02  0.1257457E+00
          1   -1    0    0  501    0 -0.00000000000E+00  0.00000000000E+00  0.40063228820E+02  0.40063228820E+02  0.00000000000E+00 0. -1.
          2   -1    0    0  502    0  0.00000000000E+00 -0.00000000000E+00 -0.17806698559E+04  0.17806698559E+04  0.00000000000E+00 0. -1.
         25    1    1    2    0    0  0.11802010901E+02 -0.47508975906E+01 -0.20621725882E+03  0.24147963956E+03  0.12500000000E+03 0.  0.
          2    1    1    2  501    0  0.84496155514E+02 -0.75852305758E+02 -0.14484902878E+03  0.18405003049E+03  0.00000000000E+00 0. -1.
          1    1    1    2  502    0 -0.96298166415E+02  0.80603203349E+02 -0.13895403395E+04  0.13952034147E+04  0.00000000000E+00 0. -1.
<mgrwt>
<rscale>  0 0.11169799E+03</rscale>
<asrwt>0</asrwt>
<pdfrwt beam="2">  1        2 0.27394921E+00 0.10987802E+03</pdfrwt>
<pdfrwt beam="1">  1        1 0.61635737E-02 0.11354811E+03</pdfrwt>
<totfact> 0.16668549E+03</totfact>
</mgrwt>
</event>
<event>
 5    1  0.8891499E-003  0.5296972E+02  0.7546771E-02  0.1512821E+00
          1   -1    0    0  502    0  0.00000000000E+00  0.00000000000E+00  0.35213688633E+03  0.35213688633E+03  0.00000000000E+00 0. -1.
         -1   -1    0    0    0  501 -0.00000000000E+00 -0.00000000000E+00 -0.56634866938E+03  0.56634866938E+03  0.00000000000E+00 0.  1.
         25    1    1    2    0    0 -0.17316940858E+02  0.18277938700E+02 -0.77435830125E+01  0.12774553832E+03  0.12500000000E+03 0.  0.
          2    1    1    2  502    0 -0.11744931891E+02  0.26818348273E+02  0.28995342731E+03  0.29142779078E+03  0.00000000000E+00 0. -1.
         -2    1    1    2    0  501  0.29061872749E+02 -0.45096286973E+02 -0.49642162734E+03  0.49931222661E+03  0.00000000000E+00 0.  1.
<mgrwt>
<rscale>  0 0.39380408E+02</rscale>
<asrwt>0</asrwt>
<pdfrwt beam="1">  1        1 0.54174906E-01 0.29277418E+02</pdfrwt>
<pdfrwt beam="2">  1       -1 0.87130564E-01 0.52969717E+02</pdfrwt>
<totfact> 0.10537839E+02</totfact>
</mgrwt>
</event>
<event>
 5    1  0.8891499E-003  0.1298294E+03  0.7546771E-02  0.1284898E+00
          2   -1    0    0  502    0  0.00000000000E+00  0.00000000000E+00  0.49253589652E+03  0.49253589652E+03  0.00000000000E+00 0. -1.
          1   -1    0    0  501    0 -0.00000000000E+00 -0.00000000000E+00 -0.25413639109E+04  0.25413639109E+04  0.00000000000E+00 0. -1.
         25    1    1    2    0    0  0.62046412108E+02 -0.14163087295E+01 -0.63020356083E+03  0.64547137137E+03  0.12500000000E+03 0.  0.
          2    1    1    2  501    0  0.62119446194E+02 -0.39728741025E+02 -0.18939745396E+04  0.18954093899E+04  0.00000000000E+00 0. -1.
          1    1    1    2  502    0 -0.12416585830E+03  0.41145049754E+02  0.47535008611E+03  0.49301904613E+03  0.00000000000E+00 0. -1.
<mgrwt>
<rscale>  0 0.97843140E+02</rscale>
<asrwt>0</asrwt>
<pdfrwt beam="1">  1        2 0.75774754E-01 0.12982944E+03</pdfrwt>
<pdfrwt beam="2">  1        1 0.39097906E+00 0.73737361E+02</pdfrwt>
<totfact> 0.15767031E+01</totfact>
</mgrwt>
</event>
<event>
 5    1  0.8891499E-003  0.1260827E+03  0.7546771E-02  0.1348285E+00
          2   -1    0    0  502    0  0.00000000000E+00  0.00000000000E+00  0.54790658275E+02  0.54790658275E+02  0.00000000000E+00 0. -1.
          1   -1    0    0  501    0 -0.00000000000E+00 -0.00000000000E+00 -0.18836384950E+04  0.18836384950E+04  0.00000000000E+00 0. -1.
         25    1    1    2    0    0 -0.60593316076E+02  0.93296612751E+02 -0.71167454856E+03  0.73108239684E+03  0.12500000000E+03 0.  0.
          2    1    1    2  501    0 -0.40653845818E+02 -0.13870729467E+02 -0.10691219150E+04  0.10699844865E+04  0.00000000000E+00 0. -1.
          1    1    1    2  502    0  0.10124716189E+03 -0.79425883283E+02 -0.48051373173E+02  0.13736226989E+03  0.00000000000E+00 0. -1.
<mgrwt>
<rscale>  0 0.73592671E+02</rscale>
<asrwt>0</asrwt>
<pdfrwt beam="1">  1        2 0.84293331E-02 0.12608266E+03</pdfrwt>
<pdfrwt beam="2">  1        1 0.28979050E+00 0.42955003E+02</pdfrwt>
<totfact> 0.51280877E+02</totfact>
</mgrwt>
</event>
<event>
 5    1  0.8891499E-003  0.5234771E+02  0.7546771E-02  0.1464160E+00
          1   -1    0    0  501    0 -0.00000000000E+00  0.00000000000E+00  0.10475028695E+04  0.10475028695E+04  0.00000000000E+00 0. -1.
          2   -1    0    0  502    0  0.00000000000E+00 -0.00000000000E+00 -0.10176105156E+03  0.10176105156E+03  0.00000000000E+00 0. -1.
         25    1    1    2    0    0  0.39173375084E+02 -0.31586656771E+02  0.21830652501E+03  0.25654436081E+03  0.12500000000E+03 0.  0.
          2    1    1    2  501    0  0.13229530086E+02  0.39454484978E+02  0.80098707041E+03  0.80206730629E+03  0.00000000000E+00 0. -1.
          1    1    1    2  502    0 -0.52402905170E+02 -0.78678282077E+01 -0.73551777443E+02  0.90652254004E+02  0.00000000000E+00 0. -1.
<mgrwt>
<rscale>  0 0.46672981E+02</rscale>
<asrwt>0</asrwt>
<pdfrwt beam="2">  1        2 0.15655547E-01 0.52347705E+02</pdfrwt>
<pdfrwt beam="1">  1        1 0.16115428E+00 0.41613422E+02</pdfrwt>
<totfact> 0.78278093E+02</totfact>
</mgrwt>
</event>
<event>
 5    1  0.8891499E-003  0.8789255E+02  0.7546771E-02  0.1387184E+00
          2   -1    0    0  502    0  0.00000000000E+00  0.00000000000E+00  0.18012317603E+04  0.18012317603E+04  0.00000000000E+00 0. -1.
          1   -1    0    0  501    0 -0.00000000000E+00 -0.00000000000E+00 -0.79430854739E+03  0.79430854739E+03  0.00000000000E+00 0. -1.
         25    1    1    2    0    0  0.12867384869E+03 -0.21365712859E+02  0.24783762941E+03  0.30669519653E+03  0.12500000000E+03 0.  0.
          2    1    1    2  501    0 -0.87402639845E+02  0.44486569873E+01 -0.76204844881E+03  0.76705726666E+03  0.00000000000E+00 0. -1.
          1    1    1    2  502    0 -0.41271208842E+02  0.16917055872E+02  0.15211340323E+04  0.15217878445E+04  0.00000000000E+00 0. -1.
<mgrwt>
<rscale>  0 0.62612635E+02</rscale>
<asrwt>0</asrwt>
<pdfrwt beam="1">  1        2 0.27711258E+00 0.44603805E+02</pdfrwt>
<pdfrwt beam="2">  1        1 0.12220132E+00 0.87892547E+02</pdfrwt>
<totfact> 0.38168828E+01</totfact>
</mgrwt>
</event>
<event>
 5    1  0.8891499E-003  0.1189424E+03  0.7546771E-02  0.1335507E+00
          2   -1    0    0  502    0  0.00000000000E+00  0.00000000000E+00  0.20114115155E+04  0.20114115155E+04  0.00000000000E+00 0. -1.
         -2   -1    0    0    0  501 -0.00000000000E+00 -0.00000000000E+00 -0.57129802906E+02  0.57129802906E+02  0.00000000000E+00 0.  1.
         25    1    1    2    0    0  0.11113372806E+03 -0.54541425024E+02  0.18420056273E+03  0.25471615548E+03  0.12500000000E+03 0.  0.
          1    1    1    2  502    0  0.86489889990E+01  0.50106454625E+02  0.16242895908E+04  0.16250852706E+04  0.00000000000E+00 0. -1.
         -1    1    1    2    0  501 -0.11978271705E+03  0.44349703991E+01  0.14579155899E+03  0.18873989228E+03  0.00000000000E+00 0.  1.
<mgrwt>
<rscale>  0 0.77768341E+02</rscale>
<asrwt>0</asrwt>
<pdfrwt beam="1">  1        2 0.30944787E+00 0.50847437E+02</pdfrwt>
<pdfrwt beam="2">  1       -2 0.87892020E-02 0.11894237E+03</pdfrwt>
<totfact> 0.68087771E+02</totfact>
</mgrwt>
</event>
<event>
 5    1  0.8891499E-003  0.5908353E+02  0.7546771E-02  0.1431924E+00
          2   -1    0    0  502    0  0.00000000000E+00  0.00000000000E+00  0.88014178436E+03  0.88014178436E+03  0.00000000000E+00 0. -1.
          1   -1    0    0  501    0 -0.00000000000E+00 -0.00000000000E+00 -0.15328370870E+03  0.15328370870E+03  0.00000000000E+00 0. -1.
         25    1    1    2    0    0 -0.74151285421E+02 -0.73207628894E+02  0.50085527680E+03  0.52662964060E+03  0.12500000000E+03 0.  0.
          2    1    1    2  501    0  0.46693776800E+02  0.35327591345E+02 -0.13270594717E+03  0.14504901212E+03  0.00000000000E+00 0. -1.
          1    1    1    2  502    0  0.27457508622E+02  0.37880037548E+02  0.35870874603E+03  0.36174684035E+03  0.00000000000E+00 0. -1.
<mgrwt>
<rscale>  0 0.52575733E+02</rscale>
<asrwt>0</asrwt>
<pdfrwt beam="1">  1        2 0.13540643E+00 0.46784741E+02</pdfrwt>
<pdfrwt beam="2">  1        1 0.23582110E-01 0.59083530E+02</pdfrwt>
<totfact> 0.90949844E+02</totfact>
</mgrwt>
</event>
<event>
 5    1  0.8891499E-003  0.4310200E+02  0.7546771E-02  0.1519544E+00
          2   -1    0    0  502    0  0.00000000000E+00  0.00000000000E+00  0.15598361031E+03  0.15598361031E+03  0.00000000000E+00 0. -1.
          3   -1    0    0  501    0 -0.00000000000E+00 -0.00000000000E+00 -0.20275690812E+03  0.20275690812E+03  0.00000000000E+00 0. -1.
         25    1    1    2    0    0  0.44589237747E+01  0.89596813610E+01  0.61298611826E+02  0.13958036288E+03  0.12500000000E+03 0.  0.
          2    1    1    2  501    0 -0.27353764344E+02 -0.34621780997E+02 -0.15489917630E+03  0.16106101627E+03  0.00000000000E+00 0. -1.
          1    1    1    2  502    0  0.22894840569E+02  0.25662099636E+02  0.46827266661E+02  0.58099139282E+02  0.00000000000E+00 0. -1.
<mgrwt>
<rscale>  0 0.38500728E+02</rscale>
<asrwt>0</asrwt>
<pdfrwt beam="1">  1        2 0.23997479E-01 0.34390654E+02</pdfrwt>
<pdfrwt beam="2">  1        3 0.31193370E-01 0.43102003E+02</pdfrwt>
<totfact> 0.11483563E+03</totfact>
</mgrwt>
</event>
<event>
 5    1  0.8891499E-003  0.1862640E+03  0.7546771E-02  0.1326949E+00
          2   -1    0    0  502    0  0.00000000000E+00  0.00000000000E+00  0.23048585785E+04  0.23048585785E+04  0.00000000000E+00 0. -1.
          1   -1    0    0  501    0 -0.00000000000E+00 -0.00000000000E+00 -0.21990631202E+03  0.21990631202E+03  0.00000000000E+00 0. -1.
         25    1    1    2    0    0 -0.20117410688E+03 -0.23570172553E+02  0.12232040898E+04  0.12461459864E+04  0.12500000000E+03 0.  0.
          2    1    1    2  501    0  0.17880642362E+03  0.50494357323E+02 -0.16667295277E+03  0.24960226448E+03  0.00000000000E+00 0. -1.
          1    1    1    2  502    0  0.22367683260E+02 -0.26924184771E+02  0.10284211295E+04  0.10290166396E+04  0.00000000000E+00 0. -1.
<mgrwt>
<rscale>  0 0.80745512E+02</rscale>
<asrwt>0</asrwt>
<pdfrwt beam="1">  1        2 0.35459361E+00 0.35003214E+02</pdfrwt>
<pdfrwt beam="2">  1        1 0.33831742E-01 0.18626397E+03</pdfrwt>
<totfact> 0.11724432E+02</totfact>
</mgrwt>
</event>
<event>
 5    1  0.8891499E-003  0.6456896E+02  0.7546771E-02  0.1453664E+00
          1   -1    0    0  502    0  0.00000000000E+00  0.00000000000E+00  0.69831122793E+03  0.69831122793E+03  0.00000000000E+00 0. -1.
         -1   -1    0    0    0  501 -0.00000000000E+00 -0.00000000000E+00 -0.20675439284E+04  0.20675439284E+04  0.00000000000E+00 0.  1.
         25    1    1    2    0    0  0.30946074033E+02 -0.44731168065E+02 -0.40508563435E+02  0.14221280043E+03  0.12500000000E+03 0.  0.
          2    1    1    2  502    0 -0.60518301013E+02  0.23483177390E+02  0.64566370177E+03  0.64891874696E+03  0.00000000000E+00 0. -1.
         -2    1    1    2    0  501  0.29572226980E+02  0.21247990676E+02 -0.19743878388E+04  0.19747236090E+04  0.00000000000E+00 0.  1.
<mgrwt>
<rscale>  0 0.48489449E+02</rscale>
<asrwt>0</asrwt>
<pdfrwt beam="1">  1        1 0.10743250E+00 0.64568956E+02</pdfrwt>
<pdfrwt beam="2">  1       -1 0.31808368E+00 0.36414197E+02</pdfrwt>
<totfact> 0.11891013E+00</totfact>
</mgrwt>
</event>
<event>
 5    1  0.8891499E-003  0.1019862E+03  0.7546771E-02  0.1344968E+00
          1   -1    0    0  501    0 -0.00000000000E+00  0.00000000000E+00  0.15242008022E+04  0.15242008022E+04  0.00000000000E+00 0. -1.
          2   -1    0    0  502    0  0.00000000000E+00 -0.00000000000E+00 -0.24775712876E+03  0.24775712876E+03  0.00000000000E+00 0. -1.
         25    1    1    2    0    0 -0.58051725751E+02  0.14318398883E+03  0.83391340287E+01  0.19891254027E+03  0.12500000000E+03 0.  0.
          2    1    1    2  501    0  0.46097475420E+02 -0.89871623410E+02  0.14138201992E+04  0.14174235224E+04  0.00000000000E+00 0. -1.
          1    1    1    2  502    0  0.11954250331E+02 -0.53312365422E+02 -0.14571565980E+03  0.15562186838E+03  0.00000000000E+00 0. -1.
<mgrwt>
<rscale>  0 0.74646751E+02</rscale>
<asrwt>0</asrwt>
<pdfrwt beam="2">  1        2 0.38116482E-01 0.54636182E+02</pdfrwt>
<pdfrwt beam="1">  1        1 0.23449242E+00 0.10198622E+03</pdfrwt>
<totfact> 0.13615846E+02</totfact>
</mgrwt>
</event>
<event>
 5    1  0.8891499E-003  0.9315630E+02  0.7546771E-02  0.1428616E+00
          2   -1    0    0  502    0  0.00000000000E+00  0.00000000000E+00  0.14134166358E+04  0.14134166358E+04  0.00000000000E+00 0. -1.
         -2   -1    0    0    0  501 -0.00000000000E+00 -0.00000000000E+00 -0.14673368027E+03  0.14673368027E+03  0.00000000000E+00 0.  1.
         25    1    1    2    0    0  0.11678861805E+03 -0.38542659931E+02  0.81416823616E+01  0.17554601942E+03  0.12500000000E+03 0.  0.
          1    1    1    2  502    0 -0.88199685032E+02  0.28130400730E+02  0.13161779136E+04  0.13194297268E+04  0.00000000000E+00 0. -1.
         -1    1    1    2    0  501 -0.28588933022E+02  0.10412259201E+02 -0.57636640403E+02  0.65174569810E+02  0.00000000000E+00 0.  1.
<mgrwt>
<rscale>  0 0.53238847E+02</rscale>
<asrwt>0</asrwt>
<pdfrwt beam="1">  1        2 0.21744870E+00 0.93156303E+02</pdfrwt>
<pdfrwt beam="2">  1       -2 0.22574413E-01 0.30426012E+02</pdfrwt>
<totfact> 0.26071764E+02</totfact>
</mgrwt>
</event>
<event>
 5    1  0.8891499E-003  0.9337834E+02  0.7546771E-02  0.1343335E+00
          1   -1    0    0  501    0 -0.00000000000E+00  0.00000000000E+00  0.23038243861E+03  0.23038243861E+03  0.00000000000E+00 0. -1.
          2   -1    0    0  502    0  0.00000000000E+00 -0.00000000000E+00 -0.21202239563E+03  0.21202239563E+03  0.00000000000E+00 0. -1.
         25    1    1    2    0    0 -0.28356480119E+02 -0.39569167726E+02  0.77325782268E+02  0.15483567290E+03  0.12500000000E+03 0.  0.
          2    1    1    2  501    0  0.12960355110E+02 -0.59113406012E+02  0.89858845968E+02  0.10833733324E+03  0.00000000000E+00 0. -1.
          1    1    1    2  502    0  0.15396125009E+02  0.98682573738E+02 -0.14882458526E+03  0.17923182809E+03  0.00000000000E+00 0. -1.
<mgrwt>
<rscale>  0 0.75173280E+02</rscale>
<asrwt>0</asrwt>
<pdfrwt beam="2">  1        2 0.32618830E-01 0.93378340E+02</pdfrwt>
<pdfrwt beam="1">  1        1 0.35443452E-01 0.60517482E+02</pdfrwt>
<totfact> 0.25630881E+03</totfact>
</mgrwt>
</event>
<event>
 5    1  0.8891499E-003  0.2945591E+02  0.7546771E-02  0.1610553E+00
          2   -1    0    0  502    0  0.00000000000E+00  0.00000000000E+00  0.96626502961E+02  0.96626502961E+02  0.00000000000E+00 0. -1.
          1   -1    0    0  501    0 -0.00000000000E+00 -0.00000000000E+00 -0.11492736515E+04  0.11492736515E+04  0.00000000000E+00 0. -1.
         25    1    1    2    0    0 -0.26477840738E+02 -0.14233234374E+02 -0.69701260496E+03  0.70877022545E+03  0.12500000000E+03 0.  0.
          2    1    1    2  501    0  0.27034114963E+02 -0.14119737529E+02 -0.44363030925E+03  0.44467748048E+03  0.00000000000E+00 0. -1.
          1    1    1    2  502    0 -0.55627422497E+00  0.28352971903E+02  0.87995765690E+02  0.92452448513E+02  0.00000000000E+00 0. -1.
<mgrwt>
<rscale>  0 0.28901958E+02</rscale>
<asrwt>0</asrwt>
<pdfrwt beam="1">  1        2 0.14865616E-01 0.28358428E+02</pdfrwt>
<pdfrwt beam="2">  1        1 0.17681133E+00 0.29455905E+02</pdfrwt>
<totfact> 0.70214802E+02</totfact>
</mgrwt>
</event>
<event>
 5    1  0.8891499E-003  0.6705104E+02  0.7546771E-02  0.1504012E+00
         -1   -1    0    0    0  501 -0.00000000000E+00  0.00000000000E+00  0.12438596005E+03  0.12438596005E+03  0.00000000000E+00 0.  1.
          1   -1    0    0  502    0  0.00000000000E+00 -0.00000000000E+00 -0.21091779126E+04  0.21091779126E+04  0.00000000000E+00 0. -1.
         25    1    1    2    0    0  0.33669019548E+02  0.27821317900E+02  0.71384480809E+01  0.13260311477E+03  0.12500000000E+03 0.  0.
          2    1    1    2  502    0 -0.45959845989E+02 -0.49079084603E+02 -0.20430990898E+04  0.20442052135E+04  0.00000000000E+00 0. -1.
         -2    1    1    2    0  501  0.12290826441E+02  0.21257766702E+02  0.51168689217E+02  0.56755544363E+02  0.00000000000E+00 0.  1.
<mgrwt>
<rscale>  0 0.40576478E+02</rscale>
<asrwt>0</asrwt>
<pdfrwt beam="2">  1        1 0.32448889E+00 0.67051039E+02</pdfrwt>
<pdfrwt beam="1">  1       -1 0.19136302E-01 0.24555184E+02</pdfrwt>
<totfact> 0.67236501E+01</totfact>
</mgrwt>
</event>
<event>
 5    1  0.8891499E-003  0.6680660E+02  0.7546771E-02  0.1425253E+00
          2   -1    0    0  502    0  0.00000000000E+00  0.00000000000E+00  0.14618933531E+04  0.14618933531E+04  0.00000000000E+00 0. -1.
         -2   -1    0    0    0  501 -0.00000000000E+00 -0.00000000000E+00 -0.66136306394E+02  0.66136306394E+02  0.00000000000E+00 0.  1.
         25    1    1    2    0    0 -0.55749504345E+02 -0.85377131046E+02  0.49508097082E+03  0.52069898157E+03  0.12500000000E+03 0.  0.
          3    1    1    2  502    0  0.19695148363E+02  0.60991073369E+02  0.94384987990E+03  0.94602346995E+03  0.00000000000E+00 0. -1.
         -1    1    1    2    0  501  0.36054355982E+02  0.24386057677E+02 -0.43173804027E+02  0.61307207965E+02  0.00000000000E+00 0.  1.
<mgrwt>
<rscale>  0 0.53924840E+02</rscale>
<asrwt>0</asrwt>
<pdfrwt beam="1">  1        2 0.22490664E+00 0.66806601E+02</pdfrwt>
<pdfrwt beam="2">  1       -2 0.10174818E-01 0.43526962E+02</pdfrwt>
<totfact> 0.91434444E+02</totfact>
</mgrwt>
</event>
<event>
 5    1  0.8891499E-003  0.7335491E+02  0.7546771E-02  0.1387666E+00
          2   -1    0    0  502    0  0.00000000000E+00  0.00000000000E+00  0.10021421575E+03  0.10021421575E+03  0.00000000000E+00 0. -1.
          1   -1    0    0  501    0 -0.00000000000E+00 -0.00000000000E+00 -0.14255752466E+04  0.14255752466E+04  0.00000000000E+00 0. -1.
         25    1    1    2    0    0  0.67806891811E+02  0.16195859968E+02 -0.31847744184E+03  0.34916036633E+03  0.12500000000E+03 0.  0.
          2    1    1    2  501    0 -0.31942419078E+01 -0.53140017048E+02 -0.10746522180E+04  0.10759700062E+04  0.00000000000E+00 0. -1.
          1    1    1    2  502    0 -0.64612649904E+02  0.36944157079E+02  0.67768629043E+02  0.10065908976E+03  0.00000000000E+00 0. -1.
<mgrwt>
<rscale>  0 0.62490938E+02</rscale>
<asrwt>0</asrwt>
<pdfrwt beam="1">  1        2 0.15417573E-01 0.73354915E+02</pdfrwt>
<pdfrwt beam="2">  1        1 0.21931925E+00 0.53235933E+02</pdfrwt>
<totfact> 0.45075529E+02</totfact>
</mgrwt>
</event>
<event>
 5    1  0.8891499E-003  0.7014314E+02  0.7546771E-02  0.1410403E+00
          1   -1    0    0  501    0 -0.00000000000E+00  0.00000000000E+00  0.84572913321E+03  0.84572913321E+03  0.00000000000E+00 0. -1.
          2   -1    0    0  502    0  0.00000000000E+00 -0.00000000000E+00 -0.84962157064E+02  0.84962157064E+02  0.00000000000E+00 0. -1.
         25    1    1    2    0    0  0.56215242039E+02  0.12253226571E+02  0.58595944949E+03  0.60190013412E+03  0.12500000000E+03 0.  0.
          2    1    1    2  501    0 -0.64700979340E+02 -0.57961083727E+02  0.23626699352E+03  0.25172960926E+03  0.00000000000E+00 0. -1.
          1    1    1    2  502    0  0.84857373013E+01  0.45707857156E+02 -0.61459466861E+02  0.77061546897E+02  0.00000000000E+00 0. -1.
<mgrwt>
<rscale>  0 0.57104079E+02</rscale>
<asrwt>0</asrwt>
<pdfrwt beam="2">  1        2 0.13071102E-01 0.46488880E+02</pdfrwt>
<pdfrwt beam="1">  1        1 0.13011217E+00 0.70143137E+02</pdfrwt>
<totfact> 0.12917360E+03</totfact>
</mgrwt>
</event>
<event>
 5    1  0.8891499E-003  0.8310239E+02  0.7546771E-02  0.1484182E+00
          2   -1    0    0  502    0  0.00000000000E+00  0.00000000000E+00  0.10519328174E+02  0.10519328174E+02  0.00000000000E+00 0. -1.
          1   -1    0    0  501    0 -0.00000000000E+00 -0.00000000000E+00 -0.36831337816E+04  0.36831337816E+04  0.00000000000E+00 0. -1.
         25    1    1    2    0    0 -0.84405338383E+02 -0.50203169784E+02 -0.11287627997E+04  0.11399013454E+04  0.12500000000E+03 0.  0.
          2    1    1    2  501    0  0.76114606661E+02  0.29039475732E+02 -0.25180450445E+04  0.25193625326E+04  0.00000000000E+00 0. -1.
          1    1    1    2  502    0  0.82907317219E+01  0.21163694052E+02 -0.25806609230E+02  0.34389231721E+02  0.00000000000E+00 0. -1.
<mgrwt>
<rscale>  0 0.43461367E+02</rscale>
<asrwt>0</asrwt>
<pdfrwt beam="1">  1        2 0.16183577E-02 0.22729676E+02</pdfrwt>
<pdfrwt beam="2">  1        1 0.56663612E+00 0.83102390E+02</pdfrwt>
<totfact> 0.19792858E+02</totfact>
</mgrwt>
</event>
<event>
 5    1  0.8891499E-003  0.1797974E+03  0.7546771E-02  0.1355274E+00
          1   -1    0    0  501    0 -0.00000000000E+00  0.00000000000E+00  0.47684996357E+03  0.47684996357E+03  0.00000000000E+00 0. -1.
          2   -1    0    0  502    0  0.00000000000E+00 -0.00000000000E+00 -0.27536662448E+03  0.27536662448E+03  0.00000000000E+00 0. -1.
         25    1    1    2    0    0 -0.19292373154E+02  0.19292049270E+03 -0.60270013459E+02  0.23842815834E+03  0.12500000000E+03 0.  0.
          2    1    1    2  501    0  0.39989318101E+02 -0.17349787544E+03  0.36532261210E+03  0.40640038048E+03  0.00000000000E+00 0. -1.
          1    1    1    2  502    0 -0.20696944948E+02 -0.19422617263E+02 -0.10356925956E+03  0.10738804923E+03  0.00000000000E+00 0. -1.
<mgrwt>
<rscale>  0 0.71436764E+02</rscale>
<asrwt>0</asrwt>
<pdfrwt beam="2">  1        2 0.42364096E-01 0.28383122E+02</pdfrwt>
<pdfrwt beam="1">  1        1 0.73361533E-01 0.17979739E+03</pdfrwt>
<totfact> 0.77212847E+02</totfact>
</mgrwt>
</event>
<event>
 5    1  0.8891499E-003  0.5383205E+02  0.7546771E-02  0.1515581E+00
         -2   -1    0    0    0  501 -0.00000000000E+00  0.00000000000E+00  0.43482787153E+03  0.43482787153E+03  0.00000000000E+00 0.  1.
          2   -1    0    0  502    0  0.00000000000E+00 -0.00000000000E+00 -0.74537332901E+03  0.74537332901E+03  0.00000000000E+00 0. -1.
         25    1    1    2    0    0 -0.26572464160E+02 -0.58417354171E+02 -0.20842921065E+02  0.14204967609E+03  0.12500000000E+03 0.  0.
          1    1    1    2  502    0 -0.13161713940E+01  0.53743233402E+02 -0.66230215800E+03  0.66448041050E+03  0.00000000000E+00 0. -1.
         -1    1    1    2    0  501  0.27888635554E+02  0.46741207697E+01  0.37259962159E+03  0.37367111395E+03  0.00000000000E+00 0.  1.
<mgrwt>
<rscale>  0 0.39015920E+02</rscale>
<asrwt>0</asrwt>
<pdfrwt beam="2">  1        2 0.11467282E+00 0.53832055E+02</pdfrwt>
<pdfrwt beam="1">  1       -2 0.66896596E-01 0.28277613E+02</pdfrwt>
<totfact> 0.88960537E+01</totfact>
</mgrwt>
</event>
<event>
 5    1  0.8891499E-003  0.4945346E+02  0.7546771E-02  0.1522678E+00
          2   -1    0    0  502    0  0.00000000000E+00  0.00000000000E+00  0.33365110131E+03  0.33365110131E+03  0.00000000000E+00 0. -1.
          1   -1    0    0  501    0 -0.00000000000E+00 -0.00000000000E+00 -0.50218444838E+03  0.50218444838E+03  0.00000000000E+00 0. -1.
         25    1    1    2    0    0  0.73864721739E+01  0.22173151215E+02  0.78648311326E+02  0.14952178932E+03  0.12500000000E+03 0.  0.
          2    1    1    2  501    0  0.19125150981E+02  0.22267210033E+02 -0.46322773064E+03  0.46415679515E+03  0.00000000000E+00 0. -1.
          1    1    1    2  502    0 -0.26511623155E+02 -0.44440361247E+02  0.21604607224E+03  0.22215696523E+03  0.00000000000E+00 0. -1.
<mgrwt>
<rscale>  0 0.38099984E+02</rscale>
<asrwt>0</asrwt>
<pdfrwt beam="1">  1        2 0.51330939E-01 0.49453465E+02</pdfrwt>
<pdfrwt beam="2">  1        1 0.77259145E-01 0.29353024E+02</pdfrwt>
<totfact> 0.62440570E+02</totfact>
</mgrwt>
</event>
<event>
 5    1  0.8891499E-003  0.2085852E+03  0.7546771E-02  0.1228620E+00
          2   -1    0    0  502    0  0.00000000000E+00  0.00000000000E+00  0.31236601321E+03  0.31236601321E+03  0.00000000000E+00 0. -1.
          1   -1    0    0  501    0 -0.00000000000E+00 -0.00000000000E+00 -0.22872098445E+04  0.22872098445E+04  0.00000000000E+00 0. -1.
         25    1    1    2    0    0 -0.33846543717E+02 -0.14397936038E+03  0.14052021847E+02  0.19415999602E+03  0.12500000000E+03 0.  0.
          2    1    1    2  501    0  0.10228650733E+03  0.18550103919E+03 -0.21841451936E+04  0.21943936274E+04  0.00000000000E+00 0. -1.
          1    1    1    2  502    0 -0.68439963610E+02 -0.41521678809E+02  0.19524934046E+03  0.21102223433E+03  0.00000000000E+00 0. -1.
<mgrwt>
<rscale>  0 0.12921821E+03</rscale>
<asrwt>0</asrwt>
<pdfrwt beam="1">  1        2 0.48056311E-01 0.80050474E+02</pdfrwt>
<pdfrwt beam="2">  1        1 0.35187843E+00 0.20858521E+03</pdfrwt>
<totfact> 0.32294717E+01</totfact>
</mgrwt>
</event>
<event>
 5    1  0.8891499E-003  0.1808459E+03  0.7546771E-02  0.1261207E+00
          2   -1    0    0  502    0  0.00000000000E+00  0.00000000000E+00  0.11514987290E+04  0.11514987290E+04  0.00000000000E+00 0. -1.
          1   -1    0    0  501    0 -0.00000000000E+00 -0.00000000000E+00 -0.51464130532E+03  0.51464130532E+03  0.00000000000E+00 0. -1.
         25    1    1    2    0    0 -0.55862539970E+02  0.11856140393E+03  0.20029624018E+03  0.27003891146E+03  0.12500000000E+03 0.  0.
          2    1    1    2  501    0 -0.11421472940E+02  0.65502706926E+02 -0.46690925719E+03  0.47161987778E+03  0.00000000000E+00 0. -1.
          1    1    1    2  502    0  0.67284012910E+02 -0.18406411086E+03  0.90347044069E+03  0.92448124508E+03  0.00000000000E+00 0. -1.
<mgrwt>
<rscale>  0 0.10965687E+03</rscale>
<asrwt>0</asrwt>
<pdfrwt beam="1">  1        2 0.17715365E+00 0.18084594E+03</pdfrwt>
<pdfrwt beam="2">  1        1 0.79175586E-01 0.66491012E+02</pdfrwt>
<totfact> 0.13466130E+02</totfact>
</mgrwt>
</event>
<event>
 5    1  0.8891499E-003  0.6173450E+02  0.7546771E-02  0.1448992E+00
          2   -1    0    0  502    0  0.00000000000E+00  0.00000000000E+00  0.18810547936E+03  0.18810547936E+03  0.00000000000E+00 0. -1.
          1   -1    0    0  501    0 -0.00000000000E+00 -0.00000000000E+00 -0.57788032468E+03  0.57788032468E+03  0.00000000000E+00 0. -1.
         25    1    1    2    0    0  0.31501692451E+02 -0.83415926584E+02  0.69881526128E+02  0.16869795828E+03  0.12500000000E+03 0.  0.
          2    1    1    2  501    0  0.11955736057E+01  0.61402481463E+02 -0.52087169051E+03  0.52447975375E+03  0.00000000000E+00 0. -1.
          1    1    1    2  502    0 -0.32697266057E+02  0.22013445122E+02  0.61215319059E+02  0.72808092003E+02  0.00000000000E+00 0. -1.
<mgrwt>
<rscale>  0 0.49329415E+02</rscale>
<asrwt>0</asrwt>
<pdfrwt beam="1">  1        2 0.28939305E-01 0.39417039E+02</pdfrwt>
<pdfrwt beam="2">  1        1 0.88904665E-01 0.61734499E+02</pdfrwt>
<totfact> 0.91872819E+02</totfact>
</mgrwt>
</event>
<event>
 5    1  0.8891499E-003  0.6783569E+02  0.7546771E-02  0.1377933E+00
          2   -1    0    0  502    0  0.00000000000E+00  0.00000000000E+00  0.91943795714E+03  0.91943795714E+03  0.00000000000E+00 0. -1.
         -2   -1    0    0    0  501 -0.00000000000E+00 -0.00000000000E+00 -0.13745649868E+03  0.13745649868E+03  0.00000000000E+00 0.  1.
         25    1    1    2    0    0  0.10455200427E+03 -0.11806055925E+02  0.47212177029E+03  0.49959430595E+03  0.12500000000E+03 0.  0.
          1    1    1    2  502    0 -0.49202777569E+02  0.40408366656E+02  0.42320113107E+03  0.42796372130E+03  0.00000000000E+00 0. -1.
         -1    1    1    2    0  501 -0.55349226706E+02 -0.28602310731E+02 -0.11334144289E+03  0.12933642856E+03  0.00000000000E+00 0.  1.
<mgrwt>
<rscale>  0 0.65010368E+02</rscale>
<asrwt>0</asrwt>
<pdfrwt beam="1">  1        2 0.14145199E+00 0.67835688E+02</pdfrwt>
<pdfrwt beam="2">  1       -2 0.21147154E-01 0.62302721E+02</pdfrwt>
<totfact> 0.57374873E+02</totfact>
</mgrwt>
</event>
<event>
 5    1  0.8891499E-003  0.5376380E+02  0.7546771E-02  0.1435970E+00
          2   -1    0    0  502    0  0.00000000000E+00  0.00000000000E+00  0.72811416671E+03  0.72811416671E+03  0.00000000000E+00 0. -1.
          1   -1    0    0  501    0 -0.00000000000E+00 -0.00000000000E+00 -0.34464035413E+03  0.34464035413E+03  0.00000000000E+00 0. -1.
         25    1    1    2    0    0  0.84277855809E+02 -0.13407740925E+02 -0.43696144388E+02  0.15753373458E+03  0.12500000000E+03 0.  0.
          2    1    1    2  501    0 -0.39401298856E+02  0.35158117983E+02 -0.24022735141E+03  0.24596287521E+03  0.00000000000E+00 0. -1.
          1    1    1    2  502    0 -0.44876556953E+02 -0.21750377059E+02  0.66739730838E+03  0.66925791105E+03  0.00000000000E+00 0. -1.
<mgrwt>
<rscale>  0 0.51780141E+02</rscale>
<asrwt>0</asrwt>
<pdfrwt beam="1">  1        2 0.11201756E+00 0.49869673E+02</pdfrwt>
<pdfrwt beam="2">  1        1 0.53021593E-01 0.53763799E+02</pdfrwt>
<totfact> 0.42711155E+02</totfact>
</mgrwt>
</event>
<event>
 5    1  0.8891499E-003  0.5933600E+02  0.7546771E-02  0.1436067E+00
          1   -1    0    0  502    0  0.00000000000E+00  0.00000000000E+00  0.36329032884E+04  0.36329032884E+04  0.00000000000E+00 0. -1.
         -1   -1    0    0    0  501 -0.00000000000E+00 -0.00000000000E+00 -0.20344392950E+03  0.20344392950E+03  0.00000000000E+00 0.  1.
         25    1    1    2    0    0 -0.28336168601E+02 -0.17227238895E+02  0.57790786156E+03  0.59220115895E+03  0.12500000000E+03 0.  0.
          2    1    1    2  502    0 -0.28596229946E+02  0.34944095092E+02  0.30431496199E+04  0.30434845889E+04  0.00000000000E+00 0. -1.
         -2    1    1    2    0  501  0.56932398547E+02 -0.17716856196E+02 -0.19159812253E+03  0.20066147003E+03  0.00000000000E+00 0.  1.
<mgrwt>
<rscale>  0 0.51761234E+02</rscale>
<asrwt>0</asrwt>
<pdfrwt beam="1">  1        1 0.55890815E+00 0.45153451E+02</pdfrwt>
<pdfrwt beam="2">  1       -1 0.31299069E-01 0.59336004E+02</pdfrwt>
<totfact> 0.33456066E+00</totfact>
</mgrwt>
</event>
<event>
 5    1  0.8891499E-003  0.7000547E+02  0.7546771E-02  0.1370811E+00
          1   -1    0    0  501    0 -0.00000000000E+00  0.00000000000E+00  0.13392768780E+04  0.13392768780E+04  0.00000000000E+00 0. -1.
          2   -1    0    0  502    0  0.00000000000E+00 -0.00000000000E+00 -0.16755891473E+03  0.16755891473E+03  0.00000000000E+00 0. -1.
         25    1    1    2    0    0 -0.38929854940E+02  0.61070364212E+01 -0.54899604355E+02  0.14209783974E+03  0.12500000000E+03 0.  0.
          2    1    1    2  501    0 -0.25725508225E+02 -0.65107331171E+02  0.12665831684E+04  0.12685163337E+04  0.00000000000E+00 0. -1.
          1    1    1    2  502    0  0.64655363165E+02  0.59000294750E+02 -0.39965600816E+02  0.96221619271E+02  0.00000000000E+00 0. -1.
<mgrwt>
<rscale>  0 0.66942301E+02</rscale>
<asrwt>0</asrwt>
<pdfrwt beam="2">  1        2 0.25778295E-01 0.64013161E+02</pdfrwt>
<pdfrwt beam="1">  1        1 0.20604259E+00 0.70005474E+02</pdfrwt>
<totfact> 0.28064426E+02</totfact>
</mgrwt>
</event>
<event>
 5    1  0.8891499E-003  0.7859303E+02  0.7546771E-02  0.1475823E+00
          2   -1    0    0  502    0  0.00000000000E+00  0.00000000000E+00  0.16112470900E+04  0.16112470900E+04  0.00000000000E+00 0. -1.
          1   -1    0    0  501    0 -0.00000000000E+00 -0.00000000000E+00 -0.29220264682E+03  0.29220264682E+03  0.00000000000E+00 0. -1.
         25    1    1    2    0    0 -0.59517318054E+02  0.27046854037E+02  0.53527435830E+03  0.55354989126E+03  0.12500000000E+03 0.  0.
          2    1    1    2  501    0  0.58679125060E+02 -0.52528690815E+02 -0.27743081594E+03  0.28839271959E+03  0.00000000000E+00 0. -1.
          1    1    1    2  502    0  0.83819299405E+00  0.25481836778E+02  0.10612009008E+04  0.10615071260E+04  0.00000000000E+00 0. -1.
<mgrwt>
<rscale>  0 0.44763579E+02</rscale>
<asrwt>0</asrwt>
<pdfrwt beam="1">  1        2 0.24788416E+00 0.25495619E+02</pdfrwt>
<pdfrwt beam="2">  1        1 0.44954254E-01 0.78593035E+02</pdfrwt>
<totfact> 0.18255708E+02</totfact>
</mgrwt>
</event>
<event>
 5    1  0.8891499E-003  0.7312514E+02  0.7546771E-02  0.1431566E+00
          1   -1    0    0  501    0 -0.00000000000E+00  0.00000000000E+00  0.76218057269E+02  0.76218057269E+02  0.00000000000E+00 0. -1.
          2   -1    0    0  502    0  0.00000000000E+00 -0.00000000000E+00 -0.20190622999E+04  0.20190622999E+04  0.00000000000E+00 0. -1.
         25    1    1    2    0    0  0.83500476179E+02  0.63200658734E+02 -0.23714757380E+03  0.28780310030E+03  0.12500000000E+03 0.  0.
          2    1    1    2  501    0 -0.62966727944E+02 -0.31340971770E+02  0.26280921562E+02  0.75084966389E+02  0.00000000000E+00 0. -1.
          1    1    1    2  502    0 -0.20533748235E+02 -0.31859686964E+02 -0.17319775904E+04  0.17323922904E+04  0.00000000000E+00 0. -1.
<mgrwt>
<rscale>  0 0.52646919E+02</rscale>
<asrwt>0</asrwt>
<pdfrwt beam="2">  1        2 0.31062493E+00 0.37903489E+02</pdfrwt>
<pdfrwt beam="1">  1        1 0.11725856E-01 0.73125143E+02</pdfrwt>
<totfact> 0.59241790E+02</totfact>
</mgrwt>
</event>
<event>
 5    1  0.8891499E-003  0.7088598E+02  0.7546771E-02  0.1383949E+00
         -1   -1    0    0    0  501 -0.00000000000E+00  0.00000000000E+00  0.67076152288E+03  0.67076152288E+03  0.00000000000E+00 0.  1.
          1   -1    0    0  502    0  0.00000000000E+00 -0.00000000000E+00 -0.84602729232E+03  0.84602729232E+03  0.00000000000E+00 0. -1.
         25    1    1    2    0    0 -0.36050737212E+01 -0.40120003651E+02 -0.13999562190E+03  0.19195412317E+03  0.12500000000E+03 0.  0.
          2    1    1    2  502    0  0.60275310826E+02  0.43500953718E+02 -0.67676382873E+03  0.68083384606E+03  0.00000000000E+00 0. -1.
         -2    1    1    2    0  501 -0.56670237105E+02 -0.33809500670E+01  0.64149368119E+03  0.64400084597E+03  0.00000000000E+00 0.  1.
<mgrwt>
<rscale>  0 0.63437121E+02</rscale>
<asrwt>0</asrwt>
<pdfrwt beam="2">  1        1 0.13015804E+00 0.70885985E+02</pdfrwt>
<pdfrwt beam="1">  1       -1 0.10319408E+00 0.56771001E+02</pdfrwt>
<totfact> 0.23141431E+01</totfact>
</mgrwt>
</event>
<event>
 5    1  0.8891499E-003  0.4247970E+03  0.7546771E-02  0.1124226E+00
          1   -1    0    0  501    0 -0.00000000000E+00  0.00000000000E+00  0.60376301862E+03  0.60376301862E+03  0.00000000000E+00 0. -1.
          2   -1    0    0  502    0  0.00000000000E+00 -0.00000000000E+00 -0.27556073276E+04  0.27556073276E+04  0.00000000000E+00 0. -1.
         25    1    1    2    0    0 -0.31278802705E+03 -0.16447612097E+03 -0.47782010952E+03  0.60731030067E+03  0.12500000000E+03 0.  0.
          2    1    1    2  501    0 -0.36625961912E+02 -0.12296957550E+03  0.50782903516E+03  0.52378746313E+03  0.00000000000E+00 0. -1.
          1    1    1    2  502    0  0.34941398896E+03  0.28744569648E+03 -0.21818532346E+04  0.22282725824E+04  0.00000000000E+00 0. -1.
<mgrwt>
<rscale>  0 0.23346287E+03</rscale>
<asrwt>0</asrwt>
<pdfrwt beam="2">  1        2 0.42393960E+00 0.42479702E+03</pdfrwt>
<pdfrwt beam="1">  1        1 0.92886617E-01 0.12830814E+03</pdfrwt>
<totfact> 0.13403840E+01</totfact>
</mgrwt>
</event>
<event>
 5    1  0.9196788E-003  0.5405072E+02  0.7546771E-02  0.1459832E+00
          2   -1    0    0  502    0  0.00000000000E+00  0.00000000000E+00  0.52748412153E+03  0.52748412153E+03  0.00000000000E+00 0. -1.
          1   -1    0    0  501    0 -0.00000000000E+00 -0.00000000000E+00 -0.12589600909E+04  0.12589600909E+04  0.00000000000E+00 0. -1.
         25    1    1    2    0    0  0.54468537044E+02 -0.20048261308E+02 -0.46611461521E+03  0.48606233018E+03  0.12500000000E+03 0.  0.
          2    1    1    2  501    0 -0.30393070464E+02 -0.28383618145E+02 -0.78090370616E+03  0.78201020888E+03  0.00000000000E+00 0. -1.
          1    1    1    2  502    0 -0.24075466581E+02  0.48431879454E+02  0.51554235199E+03  0.51837167336E+03  0.00000000000E+00 0. -1.
<mgrwt>
<rscale>  0 0.47410293E+02</rscale>
<asrwt>0</asrwt>
<pdfrwt beam="1">  1        2 0.81151404E-01 0.54050723E+02</pdfrwt>
<pdfrwt beam="2">  1        1 0.19368617E+00 0.41585677E+02</pdfrwt>
<totfact> 0.10014103E+02</totfact>
</mgrwt>
</event>
<event>
 5    1  0.8891499E-003  0.6749742E+02  0.7546771E-02  0.1382330E+00
          1   -1    0    0  501    0 -0.00000000000E+00  0.00000000000E+00  0.20810388436E+03  0.20810388436E+03  0.00000000000E+00 0. -1.
          2   -1    0    0  502    0  0.00000000000E+00 -0.00000000000E+00 -0.30917651137E+03  0.30917651137E+03  0.00000000000E+00 0. -1.
         25    1    1    2    0    0  0.11966563093E+03 -0.21520885953E+02 -0.38559493819E+01  0.17442155860E+03  0.12500000000E+03 0.  0.
          2    1    1    2  501    0 -0.59272354030E+02  0.20104530333E+02  0.11024934712E+03  0.12677666438E+03  0.00000000000E+00 0. -1.
          1    1    1    2  502    0 -0.60393276898E+02  0.14163556200E+01 -0.20746602474E+03  0.21608217275E+03  0.00000000000E+00 0. -1.
<mgrwt>
<rscale>  0 0.63855393E+02</rscale>
<asrwt>0</asrwt>
<pdfrwt beam="2">  1        2 0.47565617E-01 0.60409883E+02</pdfrwt>
<pdfrwt beam="1">  1        1 0.32015982E-01 0.67497419E+02</pdfrwt>
<totfact> 0.19464887E+03</totfact>
</mgrwt>
</event>
<event>
 5    1  0.8891499E-003  0.1406877E+03  0.7546771E-02  0.1359022E+00
          2   -1    0    0  502    0  0.00000000000E+00  0.00000000000E+00  0.22821781005E+04  0.22821781005E+04  0.00000000000E+00 0. -1.
          1   -1    0    0  501    0 -0.00000000000E+00 -0.00000000000E+00 -0.11781205616E+03  0.11781205616E+03  0.00000000000E+00 0. -1.
         25    1    1    2    0    0  0.98053691083E+02  0.12356073435E+03  0.32755855463E+02  0.20391107737E+03  0.12500000000E+03 0.  0.
          2    1    1    2  501    0  0.97658084677E+01 -0.33759786482E+02 -0.19638691541E+02  0.40258817715E+02  0.00000000000E+00 0. -1.
          1    1    1    2  502    0 -0.10781949955E+03 -0.89800947866E+02  0.21512488804E+04  0.21558202615E+04  0.00000000000E+00 0. -1.
<mgrwt>
<rscale>  0 0.70315836E+02</rscale>
<asrwt>0</asrwt>
<pdfrwt beam="1">  1        2 0.35110429E+00 0.14068774E+03</pdfrwt>
<pdfrwt beam="2">  1        1 0.18124933E-01 0.35143907E+02</pdfrwt>
<totfact> 0.20694324E+02</totfact>
</mgrwt>
</event>
<event>
 5    1  0.8891499E-003  0.1057464E+03  0.7546771E-02  0.1370517E+00
          2   -1    0    0  502    0  0.00000000000E+00  0.00000000000E+00  0.83202036626E+02  0.83202036626E+02  0.00000000000E+00 0. -1.
          1   -1    0    0  501    0 -0.00000000000E+00 -0.00000000000E+00 -0.63838915165E+03  0.63838915165E+03  0.00000000000E+00 0. -1.
         25    1    1    2    0    0 -0.30949586194E+02  0.99779120890E+02 -0.14923139636E+03  0.22092704568E+03  0.12500000000E+03 0.  0.
          2    1    1    2  501    0  0.69428498643E+02 -0.81779566531E+02 -0.43576025466E+03  0.44877078054E+03  0.00000000000E+00 0. -1.
          1    1    1    2  502    0 -0.38478912449E+02 -0.17999554359E+02  0.29804535994E+02  0.51893362063E+02  0.00000000000E+00 0. -1.
<mgrwt>
<rscale>  0 0.67023740E+02</rscale>
<asrwt>0</asrwt>
<pdfrwt beam="1">  1        2 0.12800313E-01 0.42480709E+02</pdfrwt>
<pdfrwt beam="2">  1        1 0.98213718E-01 0.10574639E+03</pdfrwt>
<totfact> 0.19316689E+03</totfact>
</mgrwt>
</event>
<event>
 5    1  0.8891499E-003  0.3461701E+02  0.7546771E-02  0.1596522E+00
          2   -1    0    0  502    0  0.00000000000E+00  0.00000000000E+00  0.37647080167E+03  0.37647080167E+03  0.00000000000E+00 0. -1.
          1   -1    0    0  501    0 -0.00000000000E+00 -0.00000000000E+00 -0.25329231324E+03  0.25329231324E+03  0.00000000000E+00 0. -1.
         25    1    1    2    0    0  0.45906871186E+02 -0.29797044169E+02  0.99475016692E+02  0.16886557852E+03  0.12500000000E+03 0.  0.
          2    1    1    2  501    0 -0.33835999330E+02  0.64917847258E+01 -0.21652028978E+03  0.21924427930E+03  0.00000000000E+00 0. -1.
          1    1    1    2  502    0 -0.12070871857E+02  0.23305259443E+02  0.24022376152E+03  0.24165325709E+03  0.00000000000E+00 0. -1.
<mgrwt>
<rscale>  0 0.30142170E+02</rscale>
<asrwt>0</asrwt>
<pdfrwt beam="1">  1        2 0.57918584E-01 0.26245782E+02</pdfrwt>
<pdfrwt beam="2">  1        1 0.38968049E-01 0.34617008E+02</pdfrwt>
<totfact> 0.12383565E+03</totfact>
</mgrwt>
</event>
<event>
 5    1  0.8891499E-003  0.7136097E+02  0.7546771E-02  0.1448208E+00
          2   -1    0    0  502    0  0.00000000000E+00  0.00000000000E+00  0.17914098881E+04  0.17914098881E+04  0.00000000000E+00 0. -1.
          1   -1    0    0  501    0 -0.00000000000E+00 -0.00000000000E+00 -0.19114578928E+03  0.19114578928E+03  0.00000000000E+00 0. -1.
         25    1    1    2    0    0 -0.39745249631E+02  0.22562619102E+02  0.14278055383E+03  0.19519232362E+03  0.12500000000E+03 0.  0.
          2    1    1    2  501    0  0.71928591661E+02 -0.10706138280E+02 -0.15673331629E+03  0.17278216381E+03  0.00000000000E+00 0. -1.
          1    1    1    2  502    0 -0.32183342031E+02 -0.11856480822E+02  0.16142168613E+04  0.16145811900E+04  0.00000000000E+00 0. -1.
<mgrwt>
<rscale>  0 0.49472506E+02</rscale>
<asrwt>0</asrwt>
<pdfrwt beam="1">  1        2 0.27560151E+00 0.34297866E+02</pdfrwt>
<pdfrwt beam="2">  1        1 0.29407046E-01 0.71360965E+02</pdfrwt>
<totfact> 0.24312693E+02</totfact>
</mgrwt>
</event>
<event>
 5    1  0.8891499E-003  0.1454635E+03  0.7546771E-02  0.1361052E+00
          2   -1    0    0  502    0  0.00000000000E+00  0.00000000000E+00  0.22943112729E+03  0.22943112729E+03  0.00000000000E+00 0. -1.
          1   -1    0    0  501    0 -0.00000000000E+00 -0.00000000000E+00 -0.50947676517E+03  0.50947676517E+03  0.00000000000E+00 0. -1.
         25    1    1    2    0    0 -0.57423286102E+02 -0.11669357792E+03 -0.20219004854E+03  0.27096243401E+03  0.12500000000E+03 0.  0.
          2    1    1    2  501    0  0.47686826222E+02  0.14865901513E+03 -0.24882171372E+03  0.29374441508E+03  0.00000000000E+00 0. -1.
          1    1    1    2  502    0  0.97364598804E+01 -0.31965437208E+02  0.17096612438E+03  0.17420104337E+03  0.00000000000E+00 0. -1.
<mgrwt>
<rscale>  0 0.69718845E+02</rscale>
<asrwt>0</asrwt>
<pdfrwt beam="1">  1        2 0.35297096E-01 0.33415383E+02</pdfrwt>
<pdfrwt beam="2">  1        1 0.78381041E-01 0.14546346E+03</pdfrwt>
<totfact> 0.85846629E+02</totfact>
</mgrwt>
</event>
<event>
 5    1  0.8891499E-003  0.6596580E+02  0.7546771E-02  0.1498989E+00
          1   -1    0    0  502    0  0.00000000000E+00  0.00000000000E+00  0.15897543688E+04  0.15897543688E+04  0.00000000000E+00 0. -1.
         -1   -1    0    0    0  501 -0.00000000000E+00 -0.00000000000E+00 -0.21009551160E+02  0.21009551160E+02  0.00000000000E+00 0.  1.
         25    1    1    2    0    0 -0.83760481397E+02 -0.17061667845E+02  0.10606728166E+04  0.10714283656E+04  0.12500000000E+03 0.  0.
          2    1    1    2  502    0  0.58574555537E+02  0.11312927550E+02  0.50995567116E+03  0.51343329405E+03  0.00000000000E+00 0. -1.
         -2    1    1    2    0  501  0.25185925860E+02  0.57487402950E+01 -0.18836701107E+01  0.25902260317E+02  0.00000000000E+00 0.  1.
<mgrwt>
<rscale>  0 0.41281221E+02</rscale>
<asrwt>0</asrwt>
<pdfrwt beam="1">  1        1 0.24457750E+00 0.65965802E+02</pdfrwt>
<pdfrwt beam="2">  1       -1 0.32322399E-02 0.25833677E+02</pdfrwt>
<totfact> 0.18292147E+03</totfact>
</mgrwt>
</event>
<event>
 5    1  0.8891499E-003  0.4971767E+02  0.7546771E-02  0.1533020E+00
          2   -1    0    0  502    0  0.00000000000E+00  0.00000000000E+00  0.17791520716E+04  0.17791520716E+04  0.00000000000E+00 0. -1.
         -2   -1    0    0    0  501 -0.00000000000E+00 -0.00000000000E+00 -0.19072581809E+03  0.19072581809E+03  0.00000000000E+00 0.  1.
         25    1    1    2    0    0  0.16518005757E+02  0.19130558482E+02  0.56975906593E+03  0.58385718801E+03  0.12500000000E+03 0.  0.
          3    1    1    2  502    0  0.26623432415E+02  0.58848394232E+01  0.11988011077E+04  0.11991111434E+04  0.00000000000E+00 0. -1.
         -1    1    1    2    0  501 -0.43141438172E+02 -0.25015397905E+02 -0.18013392007E+03  0.18690955829E+03  0.00000000000E+00 0.  1.
<mgrwt>
<rscale>  0 0.36818547E+02</rscale>
<asrwt>0</asrwt>
<pdfrwt beam="1">  1        2 0.27371569E+00 0.27266068E+02</pdfrwt>
<pdfrwt beam="2">  1       -2 0.29342435E-01 0.49717670E+02</pdfrwt>
<totfact> 0.12643291E+02</totfact>
</mgrwt>
</event>
<event>
 5    1  0.8891499E-003  0.9864722E+02  0.7546771E-02  0.1397653E+00
         -1   -1    0    0    0  501 -0.00000000000E+00  0.00000000000E+00  0.59469030656E+02  0.59469030656E+02  0.00000000000E+00 0.  1.
          1   -1    0    0  502    0  0.00000000000E+00 -0.00000000000E+00 -0.16241384902E+04  0.16241384902E+04  0.00000000000E+00 0. -1.
         25    1    1    2    0    0  0.75919977195E+02  0.98277502863E+02 -0.17446828905E+03  0.24796470392E+03  0.12500000000E+03 0.  0.
          2    1    1    2  502    0 -0.40640920758E+02 -0.88740022992E+02 -0.13953296665E+04  0.13987392017E+04  0.00000000000E+00 0. -1.
         -2    1    1    2    0  501 -0.35279056437E+02 -0.95374798704E+01  0.51284960264E+01  0.36903615228E+02  0.00000000000E+00 0.  1.
<mgrwt>
<rscale>  0 0.60042606E+02</rscale>
<asrwt>0</asrwt>
<pdfrwt beam="2">  1        1 0.24986747E+00 0.98647225E+02</pdfrwt>
<pdfrwt beam="1">  1       -1 0.91490814E-02 0.36545524E+02</pdfrwt>
<totfact> 0.39834958E+02</totfact>
</mgrwt>
</event>
<event>
 5    1  0.8891499E-003  0.1458960E+03  0.7546771E-02  0.1255836E+00
          2   -1    0    0  502    0  0.00000000000E+00  0.00000000000E+00  0.62787613225E+03  0.62787613225E+03  0.00000000000E+00 0. -1.
         -2   -1    0    0    0  501 -0.00000000000E+00 -0.00000000000E+00 -0.11710282501E+03  0.11710282501E+03  0.00000000000E+00 0.  1.
         25    1    1    2    0    0 -0.48865179200E+02  0.11292926643E+03  0.19552215474E+03  0.26266849439E+03  0.12500000000E+03 0.  0.
          1    1    1    2  502    0 -0.83570447480E+02 -0.23812690037E+02  0.31069476089E+03  0.32261788286E+03  0.00000000000E+00 0. -1.
         -1    1    1    2    0  501  0.13243562668E+03 -0.89116576389E+02  0.45563916113E+01  0.15969258000E+03  0.00000000000E+00 0.  1.
<mgrwt>
<rscale>  0 0.11259619E+03</rscale>
<asrwt>0</asrwt>
<pdfrwt beam="1">  1        2 0.96596326E-01 0.86896858E+02</pdfrwt>
<pdfrwt beam="2">  1       -2 0.18015820E-01 0.14589599E+03</pdfrwt>
<totfact> 0.12129014E+03</totfact>
</mgrwt>
</event>
<event>
 5    1  0.8891499E-003  0.7161990E+02  0.7546771E-02  0.1430141E+00
         -2   -1    0    0    0  501 -0.00000000000E+00  0.00000000000E+00  0.81204331451E+02  0.81204331451E+02  0.00000000000E+00 0.  1.
          2   -1    0    0  502    0  0.00000000000E+00 -0.00000000000E+00 -0.23515634294E+04  0.23515634294E+04  0.00000000000E+00 0. -1.
         25    1    1    2    0    0  0.72781903106E+02  0.36872536759E+02 -0.47420820571E+03  0.49714707256E+03  0.12500000000E+03 0.  0.
          1    1    1    2  502    0 -0.40526887295E+02 -0.59008108658E+02 -0.18596560543E+04  0.18610333221E+04  0.00000000000E+00 0. -1.
         -1    1    1    2    0  501 -0.32255015811E+02  0.22135571899E+02  0.63505162087E+02  0.74587366222E+02  0.00000000000E+00 0.  1.
<mgrwt>
<rscale>  0 0.52931712E+02</rscale>
<asrwt>0</asrwt>
<pdfrwt beam="2">  1        2 0.36177898E+00 0.71619901E+02</pdfrwt>
<pdfrwt beam="1">  1       -2 0.12492974E-01 0.39119938E+02</pdfrwt>
<totfact> 0.23612917E+02</totfact>
</mgrwt>
</event>
<event>
 5    1  0.8891499E-003  0.1593587E+03  0.7546771E-02  0.1252810E+00
          2   -1    0    0  502    0  0.00000000000E+00  0.00000000000E+00  0.64871001340E+03  0.64871001340E+03  0.00000000000E+00 0. -1.
          1   -1    0    0  501    0 -0.00000000000E+00 -0.00000000000E+00 -0.95627642834E+03  0.95627642834E+03  0.00000000000E+00 0. -1.
         25    1    1    2    0    0  0.12529998890E+03  0.85650573402E+02  0.13571269789E+02  0.19709207824E+03  0.12500000000E+03 0.  0.
          2    1    1    2  501    0 -0.16085692822E+03 -0.11783126597E+02 -0.85383033602E+03  0.86893039776E+03  0.00000000000E+00 0. -1.
          1    1    1    2  502    0  0.35556939321E+02 -0.73867446805E+02  0.53269265129E+03  0.53896396575E+03  0.00000000000E+00 0. -1.
<mgrwt>
<rscale>  0 0.11429873E+03</rscale>
<asrwt>0</asrwt>
<pdfrwt beam="1">  1        2 0.99801541E-01 0.81979849E+02</pdfrwt>
<pdfrwt beam="2">  1        1 0.14711945E+00 0.15935868E+03</pdfrwt>
<totfact> 0.11606600E+02</totfact>
</mgrwt>
</event>
<event>
 5    1  0.8891499E-003  0.9594889E+02  0.7546771E-02  0.1396416E+00
          1   -1    0    0  501    0 -0.00000000000E+00  0.00000000000E+00  0.47756280479E+03  0.47756280479E+03  0.00000000000E+00 0. -1.
          2   -1    0    0  502    0  0.00000000000E+00 -0.00000000000E+00 -0.58378479070E+03  0.58378479070E+03  0.00000000000E+00 0. -1.
         25    1    1    2    0    0 -0.16523415082E+02  0.89142739768E+02 -0.23845502069E+02  0.15624678963E+03  0.12500000000E+03 0.  0.
          2    1    1    2  501    0  0.53489348926E+02 -0.80579976543E+02  0.40492949334E+03  0.41631975409E+03  0.00000000000E+00 0. -1.
          1    1    1    2  502    0 -0.36965933844E+02 -0.85627632247E+01 -0.48730597718E+03  0.48878105178E+03  0.00000000000E+00 0. -1.
<mgrwt>
<rscale>  0 0.60338652E+02</rscale>
<asrwt>0</asrwt>
<pdfrwt beam="2">  1        2 0.89813045E-01 0.37944712E+02</pdfrwt>
<pdfrwt beam="1">  1        1 0.73471201E-01 0.95948888E+02</pdfrwt>
<totfact> 0.36425323E+02</totfact>
</mgrwt>
</event>
<event>
 5    1  0.8891499E-003  0.7157135E+02  0.7546771E-02  0.1414795E+00
          1   -1    0    0  501    0 -0.00000000000E+00  0.00000000000E+00  0.25206097864E+04  0.25206097864E+04  0.00000000000E+00 0. -1.
          2   -1    0    0  502    0  0.00000000000E+00 -0.00000000000E+00 -0.86479399605E+02  0.86479399605E+02  0.00000000000E+00 0. -1.
         25    1    1    2    0    0  0.93698578549E+02 -0.41416269567E+02  0.39480277949E+03  0.42660164756E+03  0.12500000000E+03 0.  0.
          2    1    1    2  501    0 -0.43315763703E+02 -0.79081283770E+01  0.20920090838E+04  0.20924724134E+04  0.00000000000E+00 0. -1.
          1    1    1    2  502    0 -0.50382814846E+02  0.49324397944E+02 -0.52681476558E+02  0.88015125045E+02  0.00000000000E+00 0. -1.
<mgrwt>
<rscale>  0 0.56137430E+02</rscale>
<asrwt>0</asrwt>
<pdfrwt beam="2">  1        2 0.13304525E-01 0.71571355E+02</pdfrwt>
<pdfrwt beam="1">  1        1 0.38778606E+00 0.44031737E+02</pdfrwt>
<totfact> 0.11557451E+02</totfact>
</mgrwt>
</event>
<event>
 5    1  0.8891499E-003  0.9668316E+02  0.7546771E-02  0.1365488E+00
          2   -1    0    0  502    0  0.00000000000E+00  0.00000000000E+00  0.10776023600E+04  0.10776023600E+04  0.00000000000E+00 0. -1.
          1   -1    0    0  501    0 -0.00000000000E+00 -0.00000000000E+00 -0.90995926854E+03  0.90995926854E+03  0.00000000000E+00 0. -1.
         25    1    1    2    0    0 -0.57141776948E+02  0.36514023795E+02  0.49847660810E+02  0.15069255421E+03  0.12500000000E+03 0.  0.
          2    1    1    2  501    0 -0.40759124245E+02 -0.26181893287E+02 -0.85637150339E+03  0.85774060739E+03  0.00000000000E+00 0. -1.
          1    1    1    2  502    0  0.97900901194E+02 -0.10332130508E+02  0.97416693406E+03  0.97912846695E+03  0.00000000000E+00 0. -1.
<mgrwt>
<rscale>  0 0.68437533E+02</rscale>
<asrwt>0</asrwt>
<pdfrwt beam="1">  1        2 0.16578498E+00 0.96683164E+02</pdfrwt>
<pdfrwt beam="2">  1        1 0.13999373E+00 0.48443759E+02</pdfrwt>
<totfact> 0.70974321E+01</totfact>
</mgrwt>
</event>
<event>
 5    1  0.8891499E-003  0.7245547E+02  0.7546771E-02  0.1494905E+00
          1   -1    0    0  501    0 -0.00000000000E+00  0.00000000000E+00  0.27872762476E+04  0.27872762476E+04  0.00000000000E+00 0. -1.
          2   -1    0    0  502    0  0.00000000000E+00 -0.00000000000E+00 -0.18805641289E+02  0.18805641289E+02  0.00000000000E+00 0. -1.
         25    1    1    2    0    0  0.50454371295E+02  0.32253694357E+02  0.57616784412E+03  0.59260469875E+03  0.12500000000E+03 0.  0.
          2    1    1    2  501    0 -0.47445746287E+02 -0.56257874662E+02  0.21875935638E+04  0.21888311144E+04  0.00000000000E+00 0. -1.
          1    1    1    2  502    0 -0.30086250078E+01  0.24004180306E+02  0.47091983978E+01  0.24646075674E+02  0.00000000000E+00 0. -1.
<mgrwt>
<rscale>  0 0.41866958E+02</rscale>
<asrwt>0</asrwt>
<pdfrwt beam="2">  1        2 0.28931778E-02 0.24191992E+02</pdfrwt>
<pdfrwt beam="1">  1        1 0.42881140E+00 0.72455469E+02</pdfrwt>
<totfact> 0.41612734E+02</totfact>
</mgrwt>
</event>
<event>
 5    1  0.8891499E-003  0.8379676E+02  0.7546771E-02  0.1470962E+00
         -1   -1    0    0    0  502 -0.00000000000E+00  0.00000000000E+00  0.20500109643E+03  0.20500109643E+03  0.00000000000E+00 0.  1.
         -2   -1    0    0    0  501  0.00000000000E+00 -0.00000000000E+00 -0.37337174260E+03  0.37337174260E+03  0.00000000000E+00 0.  1.
         25    1    1    2    0    0 -0.49834422340E+02 -0.51707466293E+02  0.12781454053E+03  0.19266210964E+03  0.12500000000E+03 0.  0.
         -2    1    1    2    0  502  0.10085868151E+02 -0.22607824789E+02  0.35615534954E+02  0.43374010745E+02  0.00000000000E+00 0.  1.
         -1    1    1    2    0  501  0.39748554189E+02  0.74315291082E+02 -0.33180072165E+03  0.34233671865E+03  0.00000000000E+00 0.  1.
<mgrwt>
<rscale>  0 0.45545988E+02</rscale>
<asrwt>0</asrwt>
<pdfrwt beam="2">  1       -2 0.57441806E-01 0.83796763E+02</pdfrwt>
<pdfrwt beam="1">  1       -1 0.31538631E-01 0.24755575E+02</pdfrwt>
<totfact> 0.19463417E+02</totfact>
</mgrwt>
</event>
<event>
 5    1  0.8891499E-003  0.1621554E+03  0.7546771E-02  0.1352698E+00
          1   -1    0    0  502    0  0.00000000000E+00  0.00000000000E+00  0.96751612390E+03  0.96751612390E+03  0.00000000000E+00 0. -1.
         -1   -1    0    0    0  501 -0.00000000000E+00 -0.00000000000E+00 -0.53149021638E+03  0.53149021638E+03  0.00000000000E+00 0.  1.
         25    1    1    2    0    0  0.85497096429E+01  0.18058472406E+03  0.49074895217E+03  0.53772062835E+03  0.12500000000E+03 0.  0.
          2    1    1    2  502    0  0.23429855641E+02 -0.22038673056E+02  0.43980540069E+03  0.44098010354E+03  0.00000000000E+00 0. -1.
         -2    1    1    2    0  501 -0.31979565284E+02 -0.15854605100E+03 -0.49452844533E+03  0.52030560839E+03  0.00000000000E+00 0.  1.
<mgrwt>
<rscale>  0 0.72221303E+02</rscale>
<asrwt>0</asrwt>
<pdfrwt beam="1">  1        1 0.14884863E+00 0.32166151E+02</pdfrwt>
<pdfrwt beam="2">  1       -1 0.81767726E-01 0.16215545E+03</pdfrwt>
<totfact> 0.31156500E+01</totfact>
</mgrwt>
</event>
<event>
 5    1  0.8891499E-003  0.1287498E+03  0.7546771E-02  0.1411354E+00
          2   -1    0    0  502    0  0.00000000000E+00  0.00000000000E+00  0.12622281440E+04  0.12622281440E+04  0.00000000000E+00 0. -1.
          1   -1    0    0  501    0 -0.00000000000E+00 -0.00000000000E+00 -0.70949854309E+03  0.70949854309E+03  0.00000000000E+00 0. -1.
         25    1    1    2    0    0 -0.77997815590E+02 -0.71371597582E+02 -0.18432539711E+03  0.24653278929E+03  0.12500000000E+03 0.  0.
          2    1    1    2  501    0 -0.10097250643E+02 -0.23023340710E+02 -0.49036120027E+03  0.49100522953E+03  0.00000000000E+00 0. -1.
          1    1    1    2  502    0  0.88095066233E+02  0.94394938292E+02  0.12274161982E+04  0.12341886682E+04  0.00000000000E+00 0. -1.
<mgrwt>
<rscale>  0 0.56892814E+02</rscale>
<asrwt>0</asrwt>
<pdfrwt beam="1">  1        2 0.19418895E+00 0.12874976E+03</pdfrwt>
<pdfrwt beam="2">  1        1 0.10915362E+00 0.25140181E+02</pdfrwt>
<totfact> 0.81280398E+01</totfact>
</mgrwt>
</event>
<event>
 5    1  0.8891499E-003  0.3469568E+02  0.7546771E-02  0.1552572E+00
          1   -1    0    0  501    0 -0.00000000000E+00  0.00000000000E+00  0.55077238670E+02  0.55077238670E+02  0.00000000000E+00 0. -1.
          2   -1    0    0  502    0  0.00000000000E+00 -0.00000000000E+00 -0.33041839109E+03  0.33041839109E+03  0.00000000000E+00 0. -1.
         25    1    1    2    0    0 -0.58727721702E+01 -0.80546278293E+01 -0.74545749517E+02  0.14588157956E+03  0.12500000000E+03 0.  0.
          2    1    1    2  501    0 -0.75991057818E+01  0.39726932085E+02 -0.49288225176E+01  0.40746396564E+02  0.00000000000E+00 0. -1.
          1    1    1    2  502    0  0.13471877952E+02 -0.31672304256E+02 -0.19586658038E+03  0.19886765364E+03  0.00000000000E+00 0. -1.
<mgrwt>
<rscale>  0 0.34556762E+02</rscale>
<asrwt>0</asrwt>
<pdfrwt beam="2">  1        2 0.50833597E-01 0.34418401E+02</pdfrwt>
<pdfrwt beam="1">  1        1 0.84734216E-02 0.34695679E+02</pdfrwt>
<totfact> 0.91200937E+03</totfact>
</mgrwt>
</event>
<event>
 5    1  0.8891499E-003  0.6327551E+02  0.7546771E-02  0.1469714E+00
          2   -1    0    0  502    0  0.00000000000E+00  0.00000000000E+00  0.95302572056E+02  0.95302572056E+02  0.00000000000E+00 0. -1.
         -2   -1    0    0    0  501 -0.00000000000E+00 -0.00000000000E+00 -0.15146844783E+04  0.15146844783E+04  0.00000000000E+00 0.  1.
         25    1    1    2    0    0  0.73027197119E+02  0.36514757392E+02 -0.15604764219E+03  0.21596797369E+03  0.12500000000E+03 0.  0.
          1    1    1    2  502    0 -0.10271835847E+02 -0.31443165711E+02  0.60359337510E+02  0.68829012097E+02  0.00000000000E+00 0. -1.
         -1    1    1    2    0  501 -0.62755361272E+02 -0.50715916815E+01 -0.13236936015E+04  0.13251900645E+04  0.00000000000E+00 0.  1.
<mgrwt>
<rscale>  0 0.45749920E+02</rscale>
<asrwt>0</asrwt>
<pdfrwt beam="1">  1        2 0.14661935E-01 0.33078441E+02</pdfrwt>
<pdfrwt beam="2">  1       -2 0.23302836E+00 0.63275508E+02</pdfrwt>
<totfact> 0.36850715E+01</totfact>
</mgrwt>
</event>
<event>
 5    1  0.8891499E-003  0.1886500E+03  0.7546771E-02  0.1191714E+00
          1   -1    0    0  501    0 -0.00000000000E+00  0.00000000000E+00  0.90477605290E+03  0.90477605290E+03  0.00000000000E+00 0. -1.
          2   -1    0    0  502    0  0.00000000000E+00 -0.00000000000E+00 -0.11980835753E+04  0.11980835753E+04  0.00000000000E+00 0. -1.
         25    1    1    2    0    0 -0.19932546543E+03 -0.45413084572E+02 -0.36768879265E+03  0.43887701884E+03  0.12500000000E+03 0.  0.
          2    1    1    2  501    0  0.77301846134E+02 -0.10607584361E+03  0.85217991484E+03  0.86222866298E+03  0.00000000000E+00 0. -1.
          1    1    1    2  502    0  0.12202361929E+03  0.15148892818E+03 -0.77779864463E+03  0.80175394643E+03  0.00000000000E+00 0. -1.
<mgrwt>
<rscale>  0 0.15735659E+03</rscale>
<asrwt>0</asrwt>
<pdfrwt beam="2">  1        2 0.18432055E+00 0.18864997E+03</pdfrwt>
<pdfrwt beam="1">  1        1 0.13919632E+00 0.13125418E+03</pdfrwt>
<totfact> 0.55569308E+01</totfact>
</mgrwt>
</event>
<event>
 5    1  0.8891499E-003  0.1081889E+03  0.7546771E-02  0.1346962E+00
          1   -1    0    0  501    0 -0.00000000000E+00  0.00000000000E+00  0.11075092777E+03  0.11075092777E+03  0.00000000000E+00 0. -1.
          2   -1    0    0  502    0  0.00000000000E+00 -0.00000000000E+00 -0.11909011373E+04  0.11909011373E+04  0.00000000000E+00 0. -1.
         25    1    1    2    0    0  0.10686095966E+03 -0.22980376852E+02 -0.14258580887E+03  0.21886771190E+03  0.12500000000E+03 0.  0.
          2    1    1    2  501    0 -0.22143309299E+02 -0.45530961456E+02  0.60443511572E+02  0.78846767144E+02  0.00000000000E+00 0. -1.
          1    1    1    2  502    0 -0.84717650362E+02  0.68511338309E+02 -0.99800791219E+03  0.10039375860E+04  0.00000000000E+00 0. -1.
<mgrwt>
<rscale>  0 0.74010832E+02</rscale>
<asrwt>0</asrwt>
<pdfrwt beam="2">  1        2 0.18321556E+00 0.10818893E+03</pdfrwt>
<pdfrwt beam="1">  1        1 0.17038604E-01 0.50629977E+02</pdfrwt>
<totfact> 0.85637658E+02</totfact>
</mgrwt>
</event>
<event>
 5    1  0.8891499E-003  0.6590729E+02  0.7546771E-02  0.1402227E+00
         -2   -1    0    0    0  501 -0.00000000000E+00  0.00000000000E+00  0.83929100892E+01  0.83929100892E+01  0.00000000000E+00 0.  1.
          2   -1    0    0  502    0  0.00000000000E+00 -0.00000000000E+00 -0.25030510175E+04  0.25030510175E+04  0.00000000000E+00 0. -1.
         25    1    1    2    0    0 -0.46069746786E+02 -0.63079985585E+02 -0.18240665288E+04  0.18300123518E+04  0.12500000000E+03 0.  0.
          1    1    1    2  502    0  0.63373677564E+02  0.13244774309E+02 -0.44919315285E+03  0.45383492111E+03  0.00000000000E+00 0. -1.
         -1    1    1    2    0  501 -0.17303930777E+02  0.49835211277E+02 -0.22139842578E+03  0.22759665473E+03  0.00000000000E+00 0.  1.
<mgrwt>
<rscale>  0 0.58964962E+02</rscale>
<asrwt>0</asrwt>
<pdfrwt beam="2">  1        2 0.38508497E+00 0.65907289E+02</pdfrwt>
<pdfrwt beam="1">  1       -2 0.12912163E-02 0.52753903E+02</pdfrwt>
<totfact> 0.55860013E+03</totfact>
</mgrwt>
</event>
<event>
 5    1  0.8891499E-003  0.1123220E+03  0.7546771E-02  0.1384604E+00
         -2   -1    0    0    0  501 -0.00000000000E+00  0.00000000000E+00  0.16189855497E+03  0.16189855497E+03  0.00000000000E+00 0.  1.
          2   -1    0    0  502    0  0.00000000000E+00 -0.00000000000E+00 -0.54616165112E+03  0.54616165112E+03  0.00000000000E+00 0. -1.
         25    1    1    2    0    0 -0.25954635021E+02  0.82818291291E+02 -0.17819455702E+03  0.23433056267E+03  0.12500000000E+03 0.  0.
          1    1    1    2  502    0  0.36926761171E+02 -0.11672541251E+03 -0.32620305622E+03  0.34842049524E+03  0.00000000000E+00 0. -1.
         -1    1    1    2    0  501 -0.10972126150E+02  0.33907121214E+02  0.12013451709E+03  0.12530914818E+03  0.00000000000E+00 0.  1.
<mgrwt>
<rscale>  0 0.63268901E+02</rscale>
<asrwt>0</asrwt>
<pdfrwt beam="2">  1        2 0.84024869E-01 0.11232204E+03</pdfrwt>
<pdfrwt beam="1">  1       -2 0.24907470E-01 0.35638188E+02</pdfrwt>
<totfact> 0.77238192E+02</totfact>
</mgrwt>
</event>
<event>
 5    1  0.8891499E-003  0.1484283E+03  0.7546771E-02  0.1397426E+00
          1   -1    0    0  501    0 -0.00000000000E+00  0.00000000000E+00  0.23590686661E+03  0.23590686661E+03  0.00000000000E+00 0. -1.
          2   -1    0    0  502    0  0.00000000000E+00 -0.00000000000E+00 -0.68958962105E+03  0.68958962105E+03  0.00000000000E+00 0. -1.
         25    1    1    2    0    0 -0.10634014316E+03  0.78571218519E+02 -0.60069194642E+03  0.62764438731E+03  0.12500000000E+03 0.  0.
          2    1    1    2  501    0  0.13003338164E+03 -0.73030161592E+02  0.19413984683E+03  0.24481087592E+03  0.00000000000E+00 0. -1.
          1    1    1    2  502    0 -0.23693238479E+02 -0.55410569263E+01 -0.47130654851E+02  0.53041224422E+02  0.00000000000E+00 0. -1.
<mgrwt>
<rscale>  0 0.60096911E+02</rscale>
<asrwt>0</asrwt>
<pdfrwt beam="2">  1        2 0.10609071E+00 0.24332547E+02</pdfrwt>
<pdfrwt beam="1">  1        1 0.36293364E-01 0.14842831E+03</pdfrwt>
<totfact> 0.73842267E+02</totfact>
</mgrwt>
</event>
<event>
 5    1  0.8891499E-003  0.4216889E+02  0.7546771E-02  0.1563693E+00
          1   -1    0    0  501    0 -0.00000000000E+00  0.00000000000E+00  0.29134788972E+03  0.29134788972E+03  0.00000000000E+00 0. -1.
          2   -1    0    0  502    0  0.00000000000E+00 -0.00000000000E+00 -0.91651913220E+03  0.91651913220E+03  0.00000000000E+00 0. -1.
         25    1    1    2    0    0  0.53264823540E+02  0.31957558456E+02 -0.16269130561E+03  0.21436391462E+03  0.12500000000E+03 0.  0.
          2    1    1    2  501    0 -0.26386753812E+02  0.31127772120E-01  0.26425447945E+03  0.26556861949E+03  0.00000000000E+00 0. -1.
          1    1    1    2  502    0 -0.26878069728E+02 -0.31988686228E+02 -0.72673441632E+03  0.72793448781E+03  0.00000000000E+00 0. -1.
<mgrwt>
<rscale>  0 0.33357172E+02</rscale>
<asrwt>0</asrwt>
<pdfrwt beam="2">  1        2 0.14100294E+00 0.42168890E+02</pdfrwt>
<pdfrwt beam="1">  1        1 0.44822753E-01 0.26386772E+02</pdfrwt>
<totfact> 0.39737384E+02</totfact>
</mgrwt>
</event>
<event>
 5    1  0.8891499E-003  0.4092045E+02  0.7546771E-02  0.1573489E+00
          2   -1    0    0  502    0  0.00000000000E+00  0.00000000000E+00  0.14253291198E+04  0.14253291198E+04  0.00000000000E+00 0. -1.
          1   -1    0    0  501    0 -0.00000000000E+00 -0.00000000000E+00 -0.24134445959E+03  0.24134445959E+03  0.00000000000E+00 0. -1.
         25    1    1    2    0    0 -0.63840534349E+02 -0.46456553039E+01  0.14029806234E+03  0.19850879637E+03  0.12500000000E+03 0.  0.
          2    1    1    2  501    0  0.24728218954E+02 -0.65168654957E+01 -0.21113807462E+03  0.21268107792E+03  0.00000000000E+00 0. -1.
          3    1    1    2  502    0  0.39112315395E+02  0.11162520800E+02  0.12548246724E+04  0.12554837051E+04  0.00000000000E+00 0. -1.
<mgrwt>
<rscale>  0 0.32348716E+02</rscale>
<asrwt>0</asrwt>
<pdfrwt beam="1">  1        2 0.21928140E+00 0.40920447E+02</pdfrwt>
<pdfrwt beam="2">  1        1 0.37129918E-01 0.25572531E+02</pdfrwt>
<totfact> 0.26586881E+02</totfact>
</mgrwt>
</event>
<event>
 5    1  0.8891499E-003  0.7785571E+02  0.7546771E-02  0.1352119E+00
          2   -1    0    0  502    0  0.00000000000E+00  0.00000000000E+00  0.25927985212E+03  0.25927985212E+03  0.00000000000E+00 0. -1.
          1   -1    0    0  501    0 -0.00000000000E+00 -0.00000000000E+00 -0.14908296799E+04  0.14908296799E+04  0.00000000000E+00 0. -1.
         25    1    1    2    0    0  0.86700124646E+02 -0.10004637547E+03 -0.15746034118E+03  0.24071756874E+03  0.12500000000E+03 0.  0.
          2    1    1    2  501    0 -0.25365258278E+02  0.72283562382E+02 -0.12853665204E+04  0.12876472348E+04  0.00000000000E+00 0. -1.
          1    1    1    2  502    0 -0.61334866367E+02  0.27762813084E+02  0.21127703373E+03  0.22174472847E+03  0.00000000000E+00 0. -1.
<mgrwt>
<rscale>  0 0.72399475E+02</rscale>
<asrwt>0</asrwt>
<pdfrwt beam="1">  1        2 0.39889208E-01 0.67325624E+02</pdfrwt>
<pdfrwt beam="2">  1        1 0.22935841E+00 0.77855707E+02</pdfrwt>
<totfact> 0.14053220E+02</totfact>
</mgrwt>
</event>
<event>
 5    1  0.8891499E-003  0.1135149E+03  0.7546771E-02  0.1286167E+00
         -2   -1    0    0    0  501 -0.00000000000E+00  0.00000000000E+00  0.69659066882E+03  0.69659066882E+03  0.00000000000E+00 0.  1.
          2   -1    0    0  502    0  0.00000000000E+00 -0.00000000000E+00 -0.32273209690E+04  0.32273209690E+04  0.00000000000E+00 0. -1.
         25    1    1    2    0    0 -0.33753231376E+02 -0.19332769844E+03 -0.18048888859E+04  0.18198252032E+04  0.12500000000E+03 0.  0.
          1    1    1    2  502    0  0.83268026022E+01  0.82914898936E+02 -0.14090674200E+04  0.14115293869E+04  0.00000000000E+00 0. -1.
         -1    1    1    2    0  501  0.25426428774E+02  0.11041279950E+03  0.68322600568E+03  0.69255704776E+03  0.00000000000E+00 0.  1.
<mgrwt>
<rscale>  0 0.97259554E+02</rscale>
<asrwt>0</asrwt>
<pdfrwt beam="2">  1        2 0.49651093E+00 0.83331963E+02</pdfrwt>
<pdfrwt beam="1">  1       -2 0.10716779E+00 0.11351492E+03</pdfrwt>
<totfact> 0.14076463E+00</totfact>
</mgrwt>
</event>
<event>
 5    1  0.8891499E-003  0.6356258E+02  0.7546771E-02  0.1417155E+00
          2   -1    0    0  502    0  0.00000000000E+00  0.00000000000E+00  0.69211600219E+03  0.69211600219E+03  0.00000000000E+00 0. -1.
         -2   -1    0    0    0  501 -0.00000000000E+00 -0.00000000000E+00 -0.82343973351E+03  0.82343973351E+03  0.00000000000E+00 0.  1.
         25    1    1    2    0    0 -0.32881405370E+02 -0.44256846129E+02  0.29711466463E+03  0.32701984525E+03  0.12500000000E+03 0.  0.
          1    1    1    2  502    0  0.67444233990E+02  0.99721018501E+01  0.37624955661E+03  0.38237664202E+03  0.00000000000E+00 0. -1.
         -1    1    1    2    0  501 -0.34562828621E+02  0.34284744278E+02 -0.80468795257E+03  0.80615924842E+03  0.00000000000E+00 0.  1.
<mgrwt>
<rscale>  0 0.55627476E+02</rscale>
<asrwt>0</asrwt>
<pdfrwt beam="1">  1        2 0.10647938E+00 0.63562583E+02</pdfrwt>
<pdfrwt beam="2">  1       -2 0.12668304E+00 0.48682983E+02</pdfrwt>
<totfact> 0.23386178E+01</totfact>
</mgrwt>
</event>
<event>
 5    1  0.8891499E-003  0.7321572E+02  0.7546771E-02  0.1384718E+00
          1   -1    0    0  501    0 -0.00000000000E+00  0.00000000000E+00  0.16672218200E+04  0.16672218200E+04  0.00000000000E+00 0. -1.
          2   -1    0    0  502    0  0.00000000000E+00 -0.00000000000E+00 -0.14105863484E+03  0.14105863484E+03  0.00000000000E+00 0. -1.
         25    1    1    2    0    0 -0.68265335676E+02  0.57251651048E+02  0.63498735720E+03  0.65327777507E+03  0.12500000000E+03 0.  0.
          2    1    1    2  501    0 -0.49338304715E+01 -0.54399573884E+02  0.10121256896E+04  0.10135985734E+04  0.00000000000E+00 0. -1.
          1    1    1    2  502    0  0.73199166147E+02 -0.28520771636E+01 -0.12094986167E+03  0.14140410640E+03  0.00000000000E+00 0. -1.
<mgrwt>
<rscale>  0 0.63239637E+02</rscale>
<asrwt>0</asrwt>
<pdfrwt beam="2">  1        2 0.21701330E-01 0.73215721E+02</pdfrwt>
<pdfrwt beam="1">  1        1 0.25649565E+00 0.54622855E+02</pdfrwt>
<totfact> 0.21677663E+02</totfact>
</mgrwt>
</event>
<event>
 5    1  0.8891499E-003  0.1234813E+03  0.7546771E-02  0.1358724E+00
         -2   -1    0    0    0  501 -0.00000000000E+00  0.00000000000E+00  0.54325287240E+03  0.54325287240E+03  0.00000000000E+00 0.  1.
          2   -1    0    0  502    0  0.00000000000E+00 -0.00000000000E+00 -0.36250024706E+03  0.36250024706E+03  0.00000000000E+00 0. -1.
         25    1    1    2    0    0  0.11607489464E+03 -0.26604025857E+02 -0.61953548909E+02  0.18342409215E+03  0.12500000000E+03 0.  0.
          1    1    1    2  502    0 -0.10748887399E+03  0.65816602552E+02 -0.22232625511E+03  0.25556730408E+03  0.00000000000E+00 0. -1.
         -1    1    1    2    0  501 -0.85860206500E+01 -0.39212576696E+02  0.46503242935E+03  0.46676172323E+03  0.00000000000E+00 0.  1.
<mgrwt>
<rscale>  0 0.70404069E+02</rscale>
<asrwt>0</asrwt>
<pdfrwt beam="2">  1        2 0.55769269E-01 0.12348128E+03</pdfrwt>
<pdfrwt beam="1">  1       -2 0.83577365E-01 0.40141573E+02</pdfrwt>
<totfact> 0.12063876E+02</totfact>
</mgrwt>
</event>
<event>
 5    1  0.8891499E-003  0.1141987E+03  0.7546771E-02  0.1296824E+00
         -2   -1    0    0    0  501 -0.00000000000E+00  0.00000000000E+00  0.38390923022E+02  0.38390923022E+02  0.00000000000E+00 0.  1.
          2   -1    0    0  502    0  0.00000000000E+00 -0.00000000000E+00 -0.31228037176E+04  0.31228037176E+04  0.00000000000E+00 0. -1.
         25    1    1    2    0    0  0.63795244942E+02 -0.11084772699E+02 -0.84659644148E+03  0.85822097398E+03  0.12500000000E+03 0.  0.
          1    1    1    2  502    0  0.49848549466E+02  0.56013678547E+02 -0.21528035270E+04  0.21541089657E+04  0.00000000000E+00 0. -1.
         -1    1    1    2    0  501 -0.11364379441E+03 -0.44928905849E+02 -0.85012826039E+02  0.14886470092E+03  0.00000000000E+00 0.  1.
<mgrwt>
<rscale>  0 0.92536097E+02</rscale>
<asrwt>0</asrwt>
<pdfrwt beam="2">  1        2 0.48043132E+00 0.74982732E+02</pdfrwt>
<pdfrwt beam="1">  1       -2 0.59062962E-02 0.11419868E+03</pdfrwt>
<totfact> 0.30714319E+02</totfact>
</mgrwt>
</event>
<event>
 5    1  0.8891499E-003  0.9279584E+02  0.7546771E-02  0.1300077E+00
          2   -1    0    0  502    0  0.00000000000E+00  0.00000000000E+00  0.22496050935E+03  0.22496050935E+03  0.00000000000E+00 0. -1.
          1   -1    0    0  501    0 -0.00000000000E+00 -0.00000000000E+00 -0.19712174052E+04  0.19712174052E+04  0.00000000000E+00 0. -1.
         25    1    1    2    0    0  0.80368769266E+02 -0.31791838683E+00 -0.14829424609E+04  0.14903699482E+04  0.12500000000E+03 0.  0.
          2    1    1    2  501    0 -0.12142666526E+03 -0.79259088990E+02 -0.46395788358E+03  0.48608986407E+03  0.00000000000E+00 0. -1.
          3    1    1    2  502    0  0.41057895993E+02  0.79577007377E+02  0.20064344870E+03  0.21971810220E+03  0.00000000000E+00 0. -1.
<mgrwt>
<rscale>  0 0.91155770E+02</rscale>
<asrwt>0</asrwt>
<pdfrwt beam="1">  1        2 0.34609309E-01 0.89544687E+02</pdfrwt>
<pdfrwt beam="2">  1        1 0.30326422E+00 0.92795840E+02</pdfrwt>
<totfact> 0.80237526E+01</totfact>
</mgrwt>
</event>
<event>
 5    1  0.8891499E-003  0.8231272E+02  0.7546771E-02  0.1479675E+00
          1   -1    0    0  501    0 -0.00000000000E+00  0.00000000000E+00  0.10030510471E+04  0.10030510471E+04  0.00000000000E+00 0. -1.
          2   -1    0    0  502    0  0.00000000000E+00 -0.00000000000E+00 -0.99444202879E+02  0.99444202879E+02  0.00000000000E+00 0. -1.
         25    1    1    2    0    0 -0.36201677946E+02 -0.51130709946E+02  0.10722449897E+03  0.17620160091E+03  0.12500000000E+03 0.  0.
          2    1    1    2  501    0 -0.14889649646E+02 -0.18423386897E+02  0.83242888059E+03  0.83276585190E+03  0.00000000000E+00 0. -1.
          1    1    1    2  502    0  0.51091327592E+02  0.69554096843E+02 -0.36046535297E+02  0.93527797203E+02  0.00000000000E+00 0. -1.
<mgrwt>
<rscale>  0 0.44156837E+02</rscale>
<asrwt>0</asrwt>
<pdfrwt beam="2">  1        2 0.15299109E-01 0.82312717E+02</pdfrwt>
<pdfrwt beam="1">  1        1 0.15431554E+00 0.23688032E+02</pdfrwt>
<totfact> 0.91872897E+02</totfact>
</mgrwt>
</event>
<event>
 5    1  0.8891499E-003  0.4734881E+02  0.7546771E-02  0.1460192E+00
          2   -1    0    0  502    0  0.00000000000E+00  0.00000000000E+00  0.78358686488E+03  0.78358686488E+03  0.00000000000E+00 0. -1.
          1   -1    0    0  501    0 -0.00000000000E+00 -0.00000000000E+00 -0.88477429057E+03  0.88477429057E+03  0.00000000000E+00 0. -1.
         25    1    1    2    0    0 -0.13820527227E+02  0.34893646924E+02 -0.11209271412E+03  0.17204171043E+03  0.12500000000E+03 0.  0.
          2    1    1    2  501    0  0.48120294352E+02 -0.22539648973E+01 -0.74118068632E+03  0.74274454078E+03  0.00000000000E+00 0. -1.
          1    1    1    2  502    0 -0.34299767125E+02 -0.32639682027E+02  0.75208597476E+03  0.75357490424E+03  0.00000000000E+00 0. -1.
<mgrwt>
<rscale>  0 0.47348352E+02</rscale>
<asrwt>0</asrwt>
<pdfrwt beam="1">  1        2 0.12055183E+00 0.47347892E+02</pdfrwt>
<pdfrwt beam="2">  1        1 0.13611912E+00 0.47348812E+02</pdfrwt>
<totfact> 0.11531787E+02</totfact>
</mgrwt>
</event>
<event>
 5    1  0.8891499E-003  0.1296772E+03  0.7546771E-02  0.1308748E+00
          2   -1    0    0  502    0  0.00000000000E+00  0.00000000000E+00  0.27560082586E+04  0.27560082586E+04  0.00000000000E+00 0. -1.
          1   -1    0    0  501    0 -0.00000000000E+00 -0.00000000000E+00 -0.86237737776E+02  0.86237737776E+02  0.00000000000E+00 0. -1.
         25    1    1    2    0    0  0.38058477572E+02 -0.76757022195E+02  0.11418797632E+04  0.11518916971E+04  0.12500000000E+03 0.  0.
          2    1    1    2  501    0 -0.14741111100E+02  0.13115792083E+03 -0.26683238523E+02  0.13465398535E+03  0.00000000000E+00 0. -1.
          1    1    1    2  502    0 -0.23317366473E+02 -0.54400898633E+02  0.15545739961E+04  0.15557003139E+04  0.00000000000E+00 0. -1.
<mgrwt>
<rscale>  0 0.87608581E+02</rscale>
<asrwt>0</asrwt>
<pdfrwt beam="1">  1        2 0.42400120E+00 0.59187476E+02</pdfrwt>
<pdfrwt beam="2">  1        1 0.13267346E-01 0.12967715E+03</pdfrwt>
<totfact> 0.20774184E+02</totfact>
</mgrwt>
</event>
<event>
 5    1  0.8891499E-003  0.1451477E+03  0.7546771E-02  0.1360782E+00
          2   -1    0    0  502    0  0.00000000000E+00  0.00000000000E+00  0.65444605778E+03  0.65444605778E+03  0.00000000000E+00 0. -1.
          1   -1    0    0  501    0 -0.00000000000E+00 -0.00000000000E+00 -0.11869271822E+03  0.11869271822E+03  0.00000000000E+00 0. -1.
         25    1    1    2    0    0 -0.12189398272E+03  0.19162856788E+02  0.23090444149E+03  0.29011587203E+03  0.12500000000E+03 0.  0.
          2    1    1    2  501    0  0.14412822095E+03 -0.44306070280E+02 -0.23811536926E+02  0.15265307475E+03  0.00000000000E+00 0. -1.
          1    1    1    2  502    0 -0.22234238237E+02  0.25143213492E+02  0.32866043499E+03  0.33036982922E+03  0.00000000000E+00 0. -1.
<mgrwt>
<rscale>  0 0.69797836E+02</rscale>
<asrwt>0</asrwt>
<pdfrwt beam="1">  1        2 0.10068401E+00 0.33564007E+02</pdfrwt>
<pdfrwt beam="2">  1        1 0.18260418E-01 0.14514769E+03</pdfrwt>
<totfact> 0.18373621E+03</totfact>
</mgrwt>
</event>
<event>
 5    1  0.8891499E-003  0.9007937E+02  0.7546771E-02  0.1312955E+00
          2   -1    0    0  502    0  0.00000000000E+00  0.00000000000E+00  0.14643952987E+04  0.14643952987E+04  0.00000000000E+00 0. -1.
          1   -1    0    0  501    0 -0.00000000000E+00 -0.00000000000E+00 -0.27006186104E+03  0.27006186104E+03  0.00000000000E+00 0. -1.
         25    1    1    2    0    0  0.39935089158E+02  0.19737916973E+01 -0.55440001808E+02  0.14246859654E+03  0.12500000000E+03 0.  0.
          2    1    1    2  501    0 -0.42467240936E+01  0.81908302737E+02 -0.15972126274E+03  0.17954912000E+03  0.00000000000E+00 0. -1.
          1    1    1    2  502    0 -0.35688365064E+02 -0.83882094434E+02  0.14094947022E+04  0.14124394432E+04  0.00000000000E+00 0. -1.
<mgrwt>
<rscale>  0 0.85954396E+02</rscale>
<asrwt>0</asrwt>
<pdfrwt beam="1">  1        2 0.22529158E+00 0.90079366E+02</pdfrwt>
<pdfrwt beam="2">  1        1 0.41547979E-01 0.82018319E+02</pdfrwt>
<totfact> 0.21171543E+02</totfact>
</mgrwt>
</event>
<event>
 5    1  0.8891499E-003  0.2809594E+03  0.7546771E-02  0.1286901E+00
          2   -1    0    0  502    0  0.00000000000E+00  0.00000000000E+00  0.26889280588E+04  0.26889280588E+04  0.00000000000E+00 0. -1.
          1   -1    0    0  501    0 -0.00000000000E+00 -0.00000000000E+00 -0.56128329611E+03  0.56128329611E+03  0.00000000000E+00 0. -1.
         25    1    1    2    0    0 -0.27979084906E+03 -0.13069566068E+03 -0.20612369788E+03  0.39176045457E+03  0.12500000000E+03 0.  0.
          2    1    1    2  501    0  0.33324155928E+02 -0.27364305290E+01 -0.25367678468E+03  0.25587086295E+03  0.00000000000E+00 0. -1.
          1    1    1    2  502    0  0.24646669313E+03  0.13343209121E+03  0.25874452453E+04  0.26025800374E+04  0.00000000000E+00 0. -1.
<mgrwt>
<rscale>  0 0.96923922E+02</rscale>
<asrwt>0</asrwt>
<pdfrwt beam="1">  1        2 0.41368123E+00 0.28095936E+03</pdfrwt>
<pdfrwt beam="2">  1        1 0.86351278E-01 0.33436319E+02</pdfrwt>
<totfact> 0.17687051E+01</totfact>
</mgrwt>
</event>
<event>
 5    1  0.8891499E-003  0.1197035E+03  0.7546771E-02  0.1356814E+00
         -3   -1    0    0    0  501 -0.00000000000E+00  0.00000000000E+00  0.14107094041E+03  0.14107094041E+03  0.00000000000E+00 0.  1.
          1   -1    0    0  502    0  0.00000000000E+00 -0.00000000000E+00 -0.10807084333E+04  0.10807084333E+04  0.00000000000E+00 0. -1.
         25    1    1    2    0    0  0.13243149260E+03  0.65910594003E+02 -0.12792370404E+03  0.23210295278E+03  0.12500000000E+03 0.  0.
          2    1    1    2  502    0 -0.11451936200E+03 -0.27832480779E+02 -0.89161569244E+03  0.89937082133E+03  0.00000000000E+00 0. -1.
         -2    1    1    2    0  501 -0.17912130602E+02 -0.38078113224E+02  0.79901903569E+02  0.90305599624E+02  0.00000000000E+00 0.  1.
<mgrwt>
<rscale>  0 0.70973295E+02</rscale>
<asrwt>0</asrwt>
<pdfrwt beam="2">  1        1 0.16626283E+00 0.11970348E+03</pdfrwt>
<pdfrwt beam="1">  1       -3 0.21703223E-01 0.42080722E+02</pdfrwt>
<totfact> 0.13464390E+02</totfact>
</mgrwt>
</event>
<event>
 5    1  0.8891499E-003  0.7789258E+02  0.7546771E-02  0.1457877E+00
          2   -1    0    0  502    0  0.00000000000E+00  0.00000000000E+00  0.16988542475E+04  0.16988542475E+04  0.00000000000E+00 0. -1.
         -2   -1    0    0    0  501 -0.00000000000E+00 -0.00000000000E+00 -0.61803463011E+03  0.61803463011E+03  0.00000000000E+00 0.  1.
         25    1    1    2    0    0  0.10370935626E+03 -0.24463140190E+02  0.97547816234E+02  0.19103573555E+03  0.12500000000E+03 0.  0.
          1    1    1    2  502    0 -0.75434552065E+02  0.16894574943E+02  0.15532256802E+04  0.15551481640E+04  0.00000000000E+00 0. -1.
         -1    1    1    2    0  501 -0.28274804199E+02  0.75685652471E+01 -0.56995387906E+03  0.57070497807E+03  0.00000000000E+00 0.  1.
<mgrwt>
<rscale>  0 0.47748669E+02</rscale>
<asrwt>0</asrwt>
<pdfrwt beam="1">  1        2 0.26136219E+00 0.77892575E+02</pdfrwt>
<pdfrwt beam="2">  1       -2 0.95082251E-01 0.29270253E+02</pdfrwt>
<totfact> 0.12369698E+01</totfact>
</mgrwt>
</event>
<event>
 5    1  0.8891499E-003  0.1476686E+03  0.7546771E-02  0.1419467E+00
          2   -1    0    0  502    0  0.00000000000E+00  0.00000000000E+00  0.17999042027E+04  0.17999042027E+04  0.00000000000E+00 0. -1.
          1   -1    0    0  501    0 -0.00000000000E+00 -0.00000000000E+00 -0.66063245084E+03  0.66063245084E+03  0.00000000000E+00 0. -1.
         25    1    1    2    0    0 -0.97442006292E+02 -0.91477095608E+02  0.48736355681E+03  0.52058739912E+03  0.12500000000E+03 0.  0.
          2    1    1    2  501    0  0.11791238042E+03  0.89309477408E+02 -0.63544383290E+03  0.65243266088E+03  0.00000000000E+00 0. -1.
          1    1    1    2  502    0 -0.20470374124E+02  0.21676181993E+01  0.12873520280E+04  0.12875165935E+04  0.00000000000E+00 0. -1.
<mgrwt>
<rscale>  0 0.55133769E+02</rscale>
<asrwt>0</asrwt>
<pdfrwt beam="1">  1        2 0.27690834E+00 0.20584819E+02</pdfrwt>
<pdfrwt beam="2">  1        1 0.10163576E+00 0.14766865E+03</pdfrwt>
<totfact> 0.53171907E+01</totfact>
</mgrwt>
</event>
<event>
 5    1  0.1521015E-002  0.6058018E+02  0.7546771E-02  0.1406605E+00
          1   -1    0    0  502    0  0.00000000000E+00  0.00000000000E+00  0.30010955039E+03  0.30010955039E+03  0.00000000000E+00 0.  1.
         -1   -1    0    0    0  501 -0.00000000000E+00 -0.00000000000E+00 -0.58958631572E+02  0.58958631572E+02  0.00000000000E+00 0. -1.
         25    1    1    2    0    0  0.37184507099E+02 -0.65719339810E+02  0.15014461491E+03  0.20945196246E+03  0.12500000000E+03 0.  0.
          2    1    1    2  502    0 -0.58067557453E+02  0.14351960630E+02  0.29134636296E+02  0.66533052197E+02  0.00000000000E+00 0. -1.
         -2    1    1    2    0  501  0.20883050354E+02  0.51367379180E+02  0.61871667617E+02  0.83083167306E+02  0.00000000000E+00 0.  1.
<mgrwt>
<rscale>  0 0.57958388E+02</rscale>
<asrwt>0</asrwt>
<pdfrwt beam="1">  1        1 0.46170699E-01 0.60580179E+02</pdfrwt>
<pdfrwt beam="2">  1       -1 0.90705589E-02 0.55450063E+02</pdfrwt>
<totfact> 0.55604864E+03</totfact>
</mgrwt>
</event>
<event>
 5    1  0.8891499E-003  0.2421508E+03  0.7546771E-02  0.1185048E+00
         -2   -1    0    0    0  501 -0.00000000000E+00  0.00000000000E+00  0.52464049165E+03  0.52464049165E+03  0.00000000000E+00 0.  1.
          2   -1    0    0  502    0  0.00000000000E+00 -0.00000000000E+00 -0.92539383521E+03  0.92539383521E+03  0.00000000000E+00 0. -1.
         25    1    1    2    0    0  0.53804898697E+02  0.14761766473E+03 -0.42205230041E+02  0.20516389425E+03  0.12500000000E+03 0.  0.
          1    1    1    2  502    0 -0.66651817788E+02 -0.25695666543E+03 -0.77233813440E+03  0.81668561061E+03  0.00000000000E+00 0. -1.
         -1    1    1    2    0  501  0.12846919090E+02  0.10933900070E+03  0.41379002089E+03  0.42818482200E+03  0.00000000000E+00 0.  1.
<mgrwt>
<rscale>  0 0.16327480E+03</rscale>
<asrwt>0</asrwt>
<pdfrwt beam="2">  1        2 0.14236828E+00 0.24215081E+03</pdfrwt>
<pdfrwt beam="1">  1       -2 0.80713922E-01 0.11009115E+03</pdfrwt>
<totfact> 0.42469395E+01</totfact>
</mgrwt>
</event>
<event>
 5    1  0.8891499E-003  0.7253015E+02  0.7546771E-02  0.1433127E+00
          1   -1    0    0  501    0 -0.00000000000E+00  0.00000000000E+00  0.60371743917E+02  0.60371743917E+02  0.00000000000E+00 0. -1.
          2   -1    0    0  502    0  0.00000000000E+00 -0.00000000000E+00 -0.21123974691E+04  0.21123974691E+04  0.00000000000E+00 0. -1.
         25    1    1    2    0    0 -0.20299542945E+01 -0.47464529217E+02 -0.99403083638E+03  0.10029851973E+04  0.12500000000E+03 0.  0.
          2    1    1    2  501    0  0.36108373310E+02  0.63742598391E+02  0.31421275814E+02  0.79713424506E+02  0.00000000000E+00 0. -1.
          1    1    1    2  502    0 -0.34078419016E+02 -0.16278069173E+02 -0.10894161646E+04  0.10900705913E+04  0.00000000000E+00 0. -1.
<mgrwt>
<rscale>  0 0.52337513E+02</rscale>
<asrwt>0</asrwt>
<pdfrwt beam="2">  1        2 0.32498416E+00 0.37766575E+02</pdfrwt>
<pdfrwt beam="1">  1        1 0.92879625E-02 0.72530149E+02</pdfrwt>
<totfact> 0.72264127E+02</totfact>
</mgrwt>
</event>
<event>
 5    1  0.8891499E-003  0.4722843E+02  0.7546771E-02  0.1539919E+00
          2   -1    0    0  502    0  0.00000000000E+00  0.00000000000E+00  0.11832801189E+04  0.11832801189E+04  0.00000000000E+00 0. -1.
          1   -1    0    0  501    0 -0.00000000000E+00 -0.00000000000E+00 -0.66130066477E+03  0.66130066477E+03  0.00000000000E+00 0. -1.
         25    1    1    2    0    0 -0.15970714051E+01  0.40155444020E+02 -0.26288425056E+02  0.13390702600E+03  0.12500000000E+03 0.  0.
          2    1    1    2  501    0  0.28920597238E+02 -0.37663713015E+02 -0.58006594230E+03  0.58200640343E+03  0.00000000000E+00 0. -1.
          1    1    1    2  502    0 -0.27323525833E+02 -0.24917310051E+01  0.11283338215E+04  0.11286673542E+04  0.00000000000E+00 0. -1.
<mgrwt>
<rscale>  0 0.35997251E+02</rscale>
<asrwt>0</asrwt>
<pdfrwt beam="1">  1        2 0.18204309E+00 0.27436906E+02</pdfrwt>
<pdfrwt beam="2">  1        1 0.10173856E+00 0.47228434E+02</pdfrwt>
<totfact> 0.10628034E+02</totfact>
</mgrwt>
</event>
<event>
 5    1  0.8891499E-003  0.8008695E+02  0.7546771E-02  0.1385923E+00
          2   -1    0    0  502    0  0.00000000000E+00  0.00000000000E+00  0.12178070769E+03  0.12178070769E+03  0.00000000000E+00 0. -1.
          1   -1    0    0  501    0 -0.00000000000E+00 -0.00000000000E+00 -0.95345272421E+03  0.95345272421E+03  0.00000000000E+00 0. -1.
         25    1    1    2    0    0 -0.37730216611E+02 -0.47552721397E+02  0.19378183774E+02  0.14030447093E+03  0.12500000000E+03 0.  0.
          2    1    1    2  501    0 -0.48815028549E+02 -0.79113500643E+01 -0.82813860936E+03  0.82961379737E+03  0.00000000000E+00 0. -1.
          1    1    1    2  502    0  0.86545245160E+02  0.55464071462E+02 -0.22911590928E+02  0.10531516359E+03  0.00000000000E+00 0. -1.
<mgrwt>
<rscale>  0 0.62932159E+02</rscale>
<asrwt>0</asrwt>
<pdfrwt beam="1">  1        2 0.18735494E-01 0.80086949E+02</pdfrwt>
<pdfrwt beam="2">  1        1 0.14668503E+00 0.49451961E+02</pdfrwt>
<totfact> 0.75022915E+02</totfact>
</mgrwt>
</event>
<event>
 5    1  0.8891499E-003  0.6736346E+02  0.7546771E-02  0.1462673E+00
          2   -1    0    0  502    0  0.00000000000E+00  0.00000000000E+00  0.10483899522E+04  0.10483899522E+04  0.00000000000E+00 0. -1.
          1   -1    0    0  501    0 -0.00000000000E+00 -0.00000000000E+00 -0.12451074244E+03  0.12451074244E+03  0.00000000000E+00 0. -1.
         25    1    1    2    0    0  0.54123650734E+02  0.12415773215E+02  0.15379655396E+03  0.20582006949E+03  0.12500000000E+03 0.  0.
          2    1    1    2  501    0  0.11744174199E+02 -0.30504416057E+02 -0.94402370752E+02  0.99901214358E+02  0.00000000000E+00 0. -1.
          1    1    1    2  502    0 -0.65867824934E+02  0.18088642841E+02  0.86448502658E+03  0.86717941081E+03  0.00000000000E+00 0. -1.
<mgrwt>
<rscale>  0 0.46924565E+02</rscale>
<asrwt>0</asrwt>
<pdfrwt beam="1">  1        2 0.16129076E+00 0.67363464E+02</pdfrwt>
<pdfrwt beam="2">  1        1 0.19155500E-01 0.32687077E+02</pdfrwt>
<totfact> 0.89483080E+02</totfact>
</mgrwt>
</event>
<event>
 5    1  0.8891499E-003  0.6173790E+02  0.7546771E-02  0.1448422E+00
          2   -1    0    0  502    0  0.00000000000E+00  0.00000000000E+00  0.10138389026E+04  0.10138389026E+04  0.00000000000E+00 0. -1.
          1   -1    0    0  501    0 -0.00000000000E+00 -0.00000000000E+00 -0.29816614427E+03  0.29816614427E+03  0.00000000000E+00 0. -1.
         25    1    1    2    0    0  0.46925715991E+02  0.21641362007E+02  0.21586176168E+02  0.13697202040E+03  0.12500000000E+03 0.  0.
          2    1    1    2  501    0 -0.27851295619E+02 -0.56323208019E+02 -0.23594067606E+03  0.24416388154E+03  0.00000000000E+00 0. -1.
          1    1    1    2  502    0 -0.19074420372E+02  0.34681846012E+02  0.93002725817E+03  0.93086914488E+03  0.00000000000E+00 0. -1.
<mgrwt>
<rscale>  0 0.49433333E+02</rscale>
<asrwt>0</asrwt>
<pdfrwt beam="1">  1        2 0.15597521E+00 0.39581106E+02</pdfrwt>
<pdfrwt beam="2">  1        1 0.45871715E-01 0.61737901E+02</pdfrwt>
<totfact> 0.34339794E+02</totfact>
</mgrwt>
</event>
<event>
 5    1  0.8891499E-003  0.6604275E+02  0.7546771E-02  0.1407992E+00
          2   -1    0    0  502    0  0.00000000000E+00  0.00000000000E+00  0.14781420480E+04  0.14781420480E+04  0.00000000000E+00 0. -1.
          1   -1    0    0  501    0 -0.00000000000E+00 -0.00000000000E+00 -0.14807315048E+03  0.14807315048E+03  0.00000000000E+00 0. -1.
         25    1    1    2    0    0  0.23209406121E+02  0.95915102763E+02  0.13934265304E+03  0.21161228326E+03  0.12500000000E+03 0.  0.
          2    1    1    2  501    0  0.19637225753E+02 -0.46323551019E+02 -0.10541452053E+03  0.11680630613E+03  0.00000000000E+00 0. -1.
          1    1    1    2  502    0 -0.42846631874E+02 -0.49591551744E+02  0.12961407650E+04  0.12977966091E+04  0.00000000000E+00 0. -1.
<mgrwt>
<rscale>  0 0.57644348E+02</rscale>
<asrwt>0</asrwt>
<pdfrwt beam="1">  1        2 0.22740646E+00 0.66042754E+02</pdfrwt>
<pdfrwt beam="2">  1        1 0.22780486E-01 0.50313935E+02</pdfrwt>
<totfact> 0.43872449E+02</totfact>
</mgrwt>
</event>
<event>
 5    1  0.8891499E-003  0.5208075E+02  0.7546771E-02  0.1478301E+00
         -2   -1    0    0    0  501 -0.00000000000E+00  0.00000000000E+00  0.27762642526E+03  0.27762642526E+03  0.00000000000E+00 0.  1.
          2   -1    0    0  502    0  0.00000000000E+00 -0.00000000000E+00 -0.14323023160E+04  0.14323023160E+04  0.00000000000E+00 0. -1.
         25    1    1    2    0    0 -0.13976205553E+02  0.85446071613E+02 -0.72037155416E+03  0.73624489235E+03  0.12500000000E+03 0.  0.
          1    1    1    2  502    0 -0.57474314158E+01 -0.37364768133E+02 -0.70097637391E+03  0.70199503962E+03  0.00000000000E+00 0. -1.
         -1    1    1    2    0  501  0.19723636968E+02 -0.48081303480E+02  0.26667203733E+03  0.27168880929E+03  0.00000000000E+00 0.  1.
<mgrwt>
<rscale>  0 0.44371975E+02</rscale>
<asrwt>0</asrwt>
<pdfrwt beam="2">  1        2 0.22035421E+00 0.37804218E+02</pdfrwt>
<pdfrwt beam="1">  1       -2 0.42711757E-01 0.52080753E+02</pdfrwt>
<totfact> 0.90987484E+01</totfact>
</mgrwt>
</event>
<event>
 5    1  0.8891499E-003  0.6740895E+02  0.7546771E-02  0.1375499E+00
          1   -1    0    0  501    0 -0.00000000000E+00  0.00000000000E+00  0.45366032180E+03  0.45366032180E+03  0.00000000000E+00 0. -1.
          2   -1    0    0  502    0  0.00000000000E+00 -0.00000000000E+00 -0.67778439898E+03  0.67778439898E+03  0.00000000000E+00 0. -1.
         25    1    1    2    0    0  0.16308792779E+02  0.42097285127E+02 -0.18446993962E+03  0.22735944397E+03  0.12500000000E+03 0.  0.
          2    1    1    2  501    0 -0.67212204837E+02  0.51464373355E+01  0.42700182463E+03  0.43228986171E+03  0.00000000000E+00 0. -1.
          1    1    1    2  502    0  0.50903412058E+02 -0.47243722462E+02 -0.46665596219E+03  0.47179541511E+03  0.00000000000E+00 0. -1.
<mgrwt>
<rscale>  0 0.65661937E+02</rscale>
<asrwt>0</asrwt>
<pdfrwt beam="2">  1        2 0.10427452E+00 0.63960203E+02</pdfrwt>
<pdfrwt beam="1">  1        1 0.69793896E-01 0.67408948E+02</pdfrwt>
<totfact> 0.32794466E+02</totfact>
</mgrwt>
</event>
<event>
 5    1  0.8891499E-003  0.5883981E+02  0.7546771E-02  0.1418051E+00
          1   -1    0    0  501    0 -0.00000000000E+00  0.00000000000E+00  0.42554380219E+03  0.42554380219E+03  0.00000000000E+00 0. -1.
          2   -1    0    0  502    0  0.00000000000E+00 -0.00000000000E+00 -0.26219850183E+04  0.26219850183E+04  0.00000000000E+00 0. -1.
         25    1    1    2    0    0 -0.46468148691E+02 -0.97617451258E+02 -0.48621701129E+02  0.17227166178E+03  0.12500000000E+03 0.  0.
          2    1    1    2  501    0  0.15134610798E+02  0.55832878179E+02  0.36114522636E+03  0.36574887730E+03  0.00000000000E+00 0. -1.
          1    1    1    2  502    0  0.31333537893E+02  0.41784573079E+02 -0.25089647413E+04  0.25095082814E+04  0.00000000000E+00 0. -1.
<mgrwt>
<rscale>  0 0.55435304E+02</rscale>
<asrwt>0</asrwt>
<pdfrwt beam="2">  1        2 0.40338231E+00 0.52227781E+02</pdfrwt>
<pdfrwt beam="1">  1        1 0.65468278E-01 0.58839815E+02</pdfrwt>
<totfact> 0.33947059E+01</totfact>
</mgrwt>
</event>
<event>
 5    1  0.8891499E-003  0.1377793E+03  0.7546771E-02  0.1345364E+00
         -3   -1    0    0    0  501 -0.00000000000E+00  0.00000000000E+00  0.19864227159E+03  0.19864227159E+03  0.00000000000E+00 0.  1.
          1   -1    0    0  502    0  0.00000000000E+00 -0.00000000000E+00 -0.12564936153E+04  0.12564936153E+04  0.00000000000E+00 0. -1.
         25    1    1    2    0    0 -0.10940883442E+03 -0.66964160425E+02 -0.50332172003E+03  0.53423987654E+03  0.12500000000E+03 0.  0.
          2    1    1    2  502    0  0.97529602818E+02  0.10547892163E+03 -0.72839169795E+03  0.74242325662E+03  0.00000000000E+00 0. -1.
         -2    1    1    2    0  501  0.11879231598E+02 -0.38514761204E+02  0.17386207424E+03  0.17847275375E+03  0.00000000000E+00 0.  1.
<mgrwt>
<rscale>  0 0.74519883E+02</rscale>
<asrwt>0</asrwt>
<pdfrwt beam="2">  1        1 0.19330671E+00 0.13777933E+03</pdfrwt>
<pdfrwt beam="1">  1       -3 0.30560349E-01 0.40305123E+02</pdfrwt>
<totfact> 0.54935606E+01</totfact>
</mgrwt>
</event>
<event>
 5    1  0.8891499E-003  0.2466200E+02  0.7546771E-02  0.1678597E+00
          2   -1    0    0  502    0  0.00000000000E+00  0.00000000000E+00  0.14549300435E+04  0.14549300435E+04  0.00000000000E+00 0. -1.
          1   -1    0    0  501    0 -0.00000000000E+00 -0.00000000000E+00 -0.17650105405E+03  0.17650105405E+03  0.00000000000E+00 0. -1.
         25    1    1    2    0    0  0.23697213048E+02 -0.38831934630E+02  0.38183900091E+03  0.40434576747E+03  0.12500000000E+03 0.  0.
          2    1    1    2  501    0 -0.18292597313E+02  0.16474723071E+02 -0.16420545013E+03  0.16604055369E+03  0.00000000000E+00 0. -1.
          1    1    1    2  502    0 -0.54046157353E+01  0.22357211559E+02  0.10607954387E+04  0.10610447764E+04  0.00000000000E+00 0. -1.
<mgrwt>
<rscale>  0 0.23817125E+02</rscale>
<asrwt>0</asrwt>
<pdfrwt beam="1">  1        2 0.22383538E+00 0.23001191E+02</pdfrwt>
<pdfrwt beam="2">  1        1 0.27154009E-01 0.24662004E+02</pdfrwt>
<totfact> 0.38922620E+02</totfact>
</mgrwt>
</event>
<event>
 5    1  0.9207896E-003  0.8696052E+02  0.7546771E-02  0.1430024E+00
          1   -1    0    0  501    0 -0.00000000000E+00  0.00000000000E+00  0.91761114688E+03  0.91761114688E+03  0.00000000000E+00 0. -1.
          2   -1    0    0  502    0  0.00000000000E+00 -0.00000000000E+00 -0.10999220900E+04  0.10999220900E+04  0.00000000000E+00 0. -1.
         25    1    1    2    0    0 -0.74375140022E+02 -0.77954197569E+01  0.57858210169E+03  0.59663613570E+03  0.12500000000E+03 0.  0.
          2    1    1    2  501    0 -0.29447645530E+01 -0.32112578568E+02  0.32747376389E+03  0.32905767789E+03  0.00000000000E+00 0. -1.
          3    1    1    2  502    0  0.77319904575E+02  0.39907998324E+02 -0.10883668087E+04  0.10918394233E+04  0.00000000000E+00 0. -1.
<mgrwt>
<rscale>  0 0.52955107E+02</rscale>
<asrwt>0</asrwt>
<pdfrwt beam="2">  1        2 0.16921878E+00 0.86960520E+02</pdfrwt>
<pdfrwt beam="1">  1        1 0.14117095E+00 0.32247315E+02</pdfrwt>
<totfact> 0.70242812E+01</totfact>
</mgrwt>
</event>
<event>
 5    1  0.8891499E-003  0.1361488E+03  0.7546771E-02  0.1230491E+00
          2   -1    0    0  502    0  0.00000000000E+00  0.00000000000E+00  0.11796722522E+04  0.11796722522E+04  0.00000000000E+00 0. -1.
         -2   -1    0    0    0  501 -0.00000000000E+00 -0.00000000000E+00 -0.56421183417E+02  0.56421183417E+02  0.00000000000E+00 0.  1.
         25    1    1    2    0    0 -0.15366691130E+02  0.50847545965E+02  0.33856524006E+03  0.36479176238E+03  0.12500000000E+03 0.  0.
          1    1    1    2  502    0  0.22118086888E+02 -0.18682885357E+03  0.66137133592E+03  0.68760909990E+03  0.00000000000E+00 0. -1.
         -1    1    1    2    0  501 -0.67513957579E+01  0.13598130761E+03  0.12331449283E+03  0.18369257335E+03  0.00000000000E+00 0.  1.
<mgrwt>
<rscale>  0 0.12797535E+03</rscale>
<asrwt>0</asrwt>
<pdfrwt beam="1">  1        2 0.18148802E+00 0.12029258E+03</pdfrwt>
<pdfrwt beam="2">  1       -2 0.86801830E-02 0.13614881E+03</pdfrwt>
<totfact> 0.17178605E+03</totfact>
</mgrwt>
</event>
<event>
 5    1  0.8891499E-003  0.1170348E+03  0.7546771E-02  0.1265680E+00
          2   -1    0    0  502    0  0.00000000000E+00  0.00000000000E+00  0.39587748969E+03  0.39587748969E+03  0.00000000000E+00 0. -1.
         -2   -1    0    0    0  501 -0.00000000000E+00 -0.00000000000E+00 -0.55986306170E+03  0.55986306170E+03  0.00000000000E+00 0.  1.
         25    1    1    2    0    0 -0.50140885884E+02  0.22200873634E+02  0.57523692680E+02  0.14812482050E+03  0.12500000000E+03 0.  0.
          1    1    1    2  502    0 -0.14604668208E+02 -0.11969531301E+03  0.27353027101E+03  0.29892988049E+03  0.00000000000E+00 0. -1.
         -1    1    1    2    0  501  0.64745554093E+02  0.97494439378E+02 -0.49503953570E+03  0.50868585039E+03  0.00000000000E+00 0.  1.
<mgrwt>
<rscale>  0 0.10728576E+03</rscale>
<asrwt>0</asrwt>
<pdfrwt beam="1">  1        2 0.60904229E-01 0.98348788E+02</pdfrwt>
<pdfrwt beam="2">  1       -2 0.86132778E-01 0.11703483E+03</pdfrwt>
<totfact> 0.10105373E+02</totfact>
</mgrwt>
</event>
<event>
 5    1  0.8891499E-003  0.5338962E+02  0.7546771E-02  0.1471122E+00
          2   -1    0    0  502    0  0.00000000000E+00  0.00000000000E+00  0.43563149973E+03  0.43563149973E+03  0.00000000000E+00 0. -1.
          1   -1    0    0  501    0 -0.00000000000E+00 -0.00000000000E+00 -0.40439465401E+03  0.40439465401E+03  0.00000000000E+00 0. -1.
         25    1    1    2    0    0  0.80044460673E+02  0.39760065105E+02  0.19107214957E+03  0.24519695105E+03  0.12500000000E+03 0.  0.
          2    1    1    2  501    0 -0.51302423237E+02 -0.13680795865E+02 -0.37370938928E+03  0.37746232983E+03  0.00000000000E+00 0. -1.
          1    1    1    2  502    0 -0.28742037436E+02 -0.26079269240E+02  0.21387408542E+03  0.21736687286E+03  0.00000000000E+00 0. -1.
<mgrwt>
<rscale>  0 0.45519914E+02</rscale>
<asrwt>0</asrwt>
<pdfrwt beam="1">  1        2 0.67020231E-01 0.38810218E+02</pdfrwt>
<pdfrwt beam="2">  1        1 0.62214562E-01 0.53389615E+02</pdfrwt>
<totfact> 0.61347914E+02</totfact>
</mgrwt>
</event>
<event>
 5    1  0.8891499E-003  0.4799413E+02  0.7546771E-02  0.1458548E+00
          2   -1    0    0  502    0  0.00000000000E+00  0.00000000000E+00  0.66372448703E+03  0.66372448703E+03  0.00000000000E+00 0. -1.
          1   -1    0    0  501    0 -0.00000000000E+00 -0.00000000000E+00 -0.93936148159E+03  0.93936148159E+03  0.00000000000E+00 0. -1.
         25    1    1    2    0    0 -0.83862009258E+01 -0.47479980061E+02  0.61996602627E+02  0.14762538945E+03  0.12500000000E+03 0.  0.
          2    1    1    2  501    0 -0.36783567218E+02  0.29693392544E+02 -0.89486789688E+03  0.89611566287E+03  0.00000000000E+00 0. -1.
          1    1    1    2  502    0  0.45169768144E+02  0.17786587517E+02  0.55723429968E+03  0.55934491630E+03  0.00000000000E+00 0. -1.
<mgrwt>
<rscale>  0 0.47632158E+02</rscale>
<asrwt>0</asrwt>
<pdfrwt beam="1">  1        2 0.10211146E+00 0.47994131E+02</pdfrwt>
<pdfrwt beam="2">  1        1 0.14451715E+00 0.47272914E+02</pdfrwt>
<totfact> 0.12714103E+02</totfact>
</mgrwt>
</event>
<event>
 5    1  0.8891499E-003  0.9072123E+02  0.7546771E-02  0.1367728E+00
         -2   -1    0    0    0  501 -0.00000000000E+00  0.00000000000E+00  0.17024364027E+03  0.17024364027E+03  0.00000000000E+00 0.  1.
          2   -1    0    0  502    0  0.00000000000E+00 -0.00000000000E+00 -0.18725346187E+04  0.18725346187E+04  0.00000000000E+00 0. -1.
         25    1    1    2    0    0  0.56330371430E+02 -0.50620014386E+01 -0.36181932798E+02  0.14189033394E+03  0.12500000000E+03 0.  0.
          1    1    1    2  502    0  0.39712174205E+02  0.31477552021E+02 -0.17619380103E+04  0.17626665723E+04  0.00000000000E+00 0. -1.
         -1    1    1    2    0  501 -0.96042545635E+02 -0.26415550582E+02  0.95828964649E+02  0.13822135273E+03  0.00000000000E+00 0.  1.
<mgrwt>
<rscale>  0 0.67802968E+02</rscale>
<asrwt>0</asrwt>
<pdfrwt beam="2">  1        2 0.28808224E+00 0.50674383E+02</pdfrwt>
<pdfrwt beam="1">  1       -2 0.26191330E-01 0.90721232E+02</pdfrwt>
<totfact> 0.13218119E+02</totfact>
</mgrwt>
</event>
<event>
 5    1  0.8891499E-003  0.7613294E+02  0.7546771E-02  0.1455063E+00
          2   -1    0    0  502    0  0.00000000000E+00  0.00000000000E+00  0.10843492271E+04  0.10843492271E+04  0.00000000000E+00 0. -1.
         -2   -1    0    0    0  501 -0.00000000000E+00 -0.00000000000E+00 -0.12980117342E+03  0.12980117342E+03  0.00000000000E+00 0.  1.
         25    1    1    2    0    0  0.65702223269E+02 -0.67155276041E+02 -0.15187527335E+02  0.15710593314E+03  0.12500000000E+03 0.  0.
          1    1    1    2  502    0 -0.68022055130E+01  0.29801926346E+02  0.98514293713E+03  0.98561708152E+03  0.00000000000E+00 0. -1.
         -1    1    1    2    0  501 -0.58900017756E+02  0.37353349695E+02 -0.15407356125E+02  0.71427385840E+02  0.00000000000E+00 0.  1.
<mgrwt>
<rscale>  0 0.48241676E+02</rscale>
<asrwt>0</asrwt>
<pdfrwt beam="1">  1        2 0.16682295E+00 0.30568363E+02</pdfrwt>
<pdfrwt beam="2">  1       -2 0.19969412E-01 0.76132937E+02</pdfrwt>
<totfact> 0.53614778E+02</totfact>
</mgrwt>
</event>
<event>
 5    1  0.8891499E-003  0.6985946E+02  0.7546771E-02  0.1392486E+00
          2   -1    0    0  502    0  0.00000000000E+00  0.00000000000E+00  0.63143091119E+03  0.63143091119E+03  0.00000000000E+00 0. -1.
          1   -1    0    0  501    0 -0.00000000000E+00 -0.00000000000E+00 -0.45056651792E+03  0.45056651792E+03  0.00000000000E+00 0. -1.
         25    1    1    2    0    0  0.20444611183E+02 -0.11667631508E+03  0.87813047815E+02  0.19330668895E+03  0.12500000000E+03 0.  0.
          2    1    1    2  501    0  0.43940280969E+01  0.53596277180E+02 -0.39364206482E+03  0.39729830556E+03  0.00000000000E+00 0. -1.
          1    1    1    2  502    0 -0.24838639280E+02  0.63080037900E+02  0.48669341026E+03  0.49139243459E+03  0.00000000000E+00 0. -1.
<mgrwt>
<rscale>  0 0.61292487E+02</rscale>
<asrwt>0</asrwt>
<pdfrwt beam="1">  1        2 0.97143217E-01 0.69859459E+02</pdfrwt>
<pdfrwt beam="2">  1        1 0.69317926E-01 0.53776095E+02</pdfrwt>
<totfact> 0.35880550E+02</totfact>
</mgrwt>
</event>
<event>
 5    1  0.8891499E-003  0.6121806E+02  0.7546771E-02  0.1450285E+00
          1   -1    0    0  501    0 -0.00000000000E+00  0.00000000000E+00  0.20008802466E+03  0.20008802466E+03  0.00000000000E+00 0. -1.
          2   -1    0    0  502    0  0.00000000000E+00 -0.00000000000E+00 -0.15666083135E+04  0.15666083135E+04  0.00000000000E+00 0. -1.
         25    1    1    2    0    0  0.16130186119E+02 -0.80061925450E+02 -0.49250224045E+03  0.51463924419E+03  0.12500000000E+03 0.  0.
          2    1    1    2  501    0 -0.38360712936E+02  0.47565472158E+02  0.18370498934E+03  0.19360150192E+03  0.00000000000E+00 0. -1.
          1    1    1    2  502    0  0.22230526817E+02  0.32496453293E+02 -0.10577230377E+04  0.10584555920E+04  0.00000000000E+00 0. -1.
<mgrwt>
<rscale>  0 0.49095062E+02</rscale>
<asrwt>0</asrwt>
<pdfrwt beam="2">  1        2 0.24101665E+00 0.39372780E+02</pdfrwt>
<pdfrwt beam="1">  1        1 0.30782775E-01 0.61218058E+02</pdfrwt>
<totfact> 0.28972453E+02</totfact>
</mgrwt>
</event>
<event>
 5    1  0.8891499E-003  0.6300645E+02  0.7546771E-02  0.1397748E+00
          1   -1    0    0  501    0 -0.00000000000E+00  0.00000000000E+00  0.13117193558E+03  0.13117193558E+03  0.00000000000E+00 0. -1.
          2   -1    0    0  502    0  0.00000000000E+00 -0.00000000000E+00 -0.12111392013E+04  0.12111392013E+04  0.00000000000E+00 0. -1.
         25    1    1    2    0    0 -0.46091901207E+02 -0.13734200727E+02 -0.32612886684E+03  0.35255939842E+03  0.12500000000E+03 0.  0.
          2    1    1    2  501    0  0.27555382913E+02 -0.50096951194E+02  0.10967523827E+03  0.12368371573E+03  0.00000000000E+00 0. -1.
          1    1    1    2  502    0  0.18536518294E+02  0.63831151921E+02 -0.86351363710E+03  0.86606802269E+03  0.00000000000E+00 0. -1.
<mgrwt>
<rscale>  0 0.60020052E+02</rscale>
<asrwt>0</asrwt>
<pdfrwt beam="2">  1        2 0.18632911E+00 0.63006453E+02</pdfrwt>
<pdfrwt beam="1">  1        1 0.20180297E-01 0.57175201E+02</pdfrwt>
<totfact> 0.70498070E+02</totfact>
</mgrwt>
</event>
<event>
 5    1  0.8891499E-003  0.5057267E+02  0.7546771E-02  0.1542687E+00
         -2   -1    0    0    0  501 -0.00000000000E+00  0.00000000000E+00  0.51696117293E+03  0.51696117293E+03  0.00000000000E+00 0.  1.
          2   -1    0    0  502    0  0.00000000000E+00 -0.00000000000E+00 -0.13808363020E+03  0.13808363020E+03  0.00000000000E+00 0. -1.
         25    1    1    2    0    0  0.25312652315E+01 -0.44812858775E+02  0.71315875349E+02  0.15074997079E+03  0.12500000000E+03 0.  0.
          1    1    1    2  502    0 -0.27642494379E+02  0.43154557059E+02 -0.91267875925E+02  0.10467209975E+03  0.00000000000E+00 0. -1.
         -1    1    1    2    0  501  0.25111229147E+02  0.16583017160E+01  0.39882954330E+03  0.39962273259E+03  0.00000000000E+00 0.  1.
<mgrwt>
<rscale>  0 0.35675034E+02</rscale>
<asrwt>0</asrwt>
<pdfrwt beam="2">  1        2 0.21243636E-01 0.50572671E+02</pdfrwt>
<pdfrwt beam="1">  1       -2 0.79532487E-01 0.25165925E+02</pdfrwt>
<totfact> 0.36799067E+02</totfact>
</mgrwt>
</event>
<event>
 5    1  0.8891499E-003  0.7392563E+02  0.7546771E-02  0.1425374E+00
          1   -1    0    0  502    0  0.00000000000E+00  0.00000000000E+00  0.27448300064E+04  0.27448300064E+04  0.00000000000E+00 0. -1.
         -1   -1    0    0    0  501 -0.00000000000E+00 -0.00000000000E+00 -0.77519841301E+01  0.77519841301E+01  0.00000000000E+00 0.  1.
         25    1    1    2    0    0  0.30276012350E+02  0.91829147222E+02  0.15868140979E+04  0.15946639804E+04  0.12500000000E+03 0.  0.
          2    1    1    2  502    0  0.12950464506E+02 -0.37103832613E+02  0.78938266190E+03  0.79036029495E+03  0.00000000000E+00 0. -1.
         -2    1    1    2    0  501 -0.43226476857E+02 -0.54725314609E+02  0.36088126248E+03  0.36755771515E+03  0.00000000000E+00 0.  1.
<mgrwt>
<rscale>  0 0.53899918E+02</rscale>
<asrwt>0</asrwt>
<pdfrwt beam="1">  1        1 0.42228076E+00 0.39298969E+02</pdfrwt>
<pdfrwt beam="2">  1       -1 0.11926151E-02 0.73925633E+02</pdfrwt>
<totfact> 0.17973216E+03</totfact>
</mgrwt>
</event>
<event>
 5    1  0.8891499E-003  0.2735353E+02  0.7546771E-02  0.1680822E+00
         -2   -1    0    0    0  501 -0.00000000000E+00  0.00000000000E+00  0.18679565986E+03  0.18679565986E+03  0.00000000000E+00 0.  1.
          2   -1    0    0  502    0  0.00000000000E+00 -0.00000000000E+00 -0.17477418777E+04  0.17477418777E+04  0.00000000000E+00 0. -1.
         25    1    1    2    0    0 -0.24427714346E+02  0.36083823430E+02 -0.83379570880E+02  0.15644778164E+03  0.12500000000E+03 0.  0.
          1    1    1    2  502    0  0.62767083201E+01 -0.26580481221E+02 -0.16270146587E+04  0.16272438719E+04  0.00000000000E+00 0. -1.
         -1    1    1    2    0  501  0.18151006026E+02 -0.95033422099E+01  0.14944801170E+03  0.15084588405E+03  0.00000000000E+00 0.  1.
<mgrwt>
<rscale>  0 0.23673376E+02</rscale>
<asrwt>0</asrwt>
<pdfrwt beam="2">  1        2 0.26888336E+00 0.27353529E+02</pdfrwt>
<pdfrwt beam="1">  1       -2 0.28737795E-01 0.20488351E+02</pdfrwt>
<totfact> 0.13071507E+02</totfact>
</mgrwt>
</event>
<event>
 5    1  0.8891499E-003  0.6375169E+02  0.7546771E-02  0.1382850E+00
          2   -1    0    0  502    0  0.00000000000E+00  0.00000000000E+00  0.16467072360E+03  0.16467072360E+03  0.00000000000E+00 0. -1.
          1   -1    0    0  501    0 -0.00000000000E+00 -0.00000000000E+00 -0.81603611476E+03  0.81603611476E+03  0.00000000000E+00 0. -1.
         25    1    1    2    0    0  0.25640520163E+02  0.47619797016E+02  0.64668547176E+01  0.13635212339E+03  0.12500000000E+03 0.  0.
          2    1    1    2  501    0  0.37952068105E+02 -0.52120954989E+02 -0.73862772915E+03  0.74143635984E+03  0.00000000000E+00 0. -1.
          1    1    1    2  502    0 -0.63592588268E+02  0.45011579735E+01  0.80795483272E+02  0.10291835513E+03  0.00000000000E+00 0. -1.
<mgrwt>
<rscale>  0 0.63720465E+02</rscale>
<asrwt>0</asrwt>
<pdfrwt beam="1">  1        2 0.25333958E-01 0.63751688E+02</pdfrwt>
<pdfrwt beam="2">  1        1 0.12554402E+00 0.63689258E+02</pdfrwt>
<totfact> 0.66684133E+02</totfact>
</mgrwt>
</event>
<event>
 5    1  0.8891499E-003  0.5735063E+02  0.7546771E-02  0.1443321E+00
          2   -1    0    0  502    0  0.00000000000E+00  0.00000000000E+00  0.15541738731E+04  0.15541738731E+04  0.00000000000E+00 0. -1.
          1   -1    0    0  501    0 -0.00000000000E+00 -0.00000000000E+00 -0.20644176794E+02  0.20644176794E+02  0.00000000000E+00 0. -1.
         25    1    1    2    0    0 -0.27869329530E+02  0.93003731219E+02  0.60798776706E+03  0.62825195459E+03  0.12500000000E+03 0.  0.
          2    1    1    2  501    0  0.15084708634E+02 -0.50640215506E+02  0.60226581804E+02  0.80120041294E+02  0.00000000000E+00 0. -1.
          1    1    1    2  502    0  0.12784620896E+02 -0.42363515713E+02  0.86531534742E+03  0.86644605399E+03  0.00000000000E+00 0. -1.
<mgrwt>
<rscale>  0 0.50376568E+02</rscale>
<asrwt>0</asrwt>
<pdfrwt beam="1">  1        2 0.23910358E+00 0.44250582E+02</pdfrwt>
<pdfrwt beam="2">  1        1 0.31760284E-02 0.57350626E+02</pdfrwt>
<totfact> 0.53738197E+03</totfact>
</mgrwt>
</event>
<event>
 5    1  0.8891499E-003  0.2133882E+03  0.7546771E-02  0.1285616E+00
          1   -1    0    0  501    0 -0.00000000000E+00  0.00000000000E+00  0.23019991480E+04  0.23019991480E+04  0.00000000000E+00 0. -1.
          2   -1    0    0  502    0  0.00000000000E+00 -0.00000000000E+00 -0.11895057490E+04  0.11895057490E+04  0.00000000000E+00 0. -1.
         25    1    1    2    0    0 -0.18705126052E+03 -0.65164597743E+02  0.87639770034E+03  0.90715628643E+03  0.12500000000E+03 0.  0.
          2    1    1    2  501    0 -0.24694949125E+02  0.37091312253E+02  0.14001501996E+04  0.14008590890E+04  0.00000000000E+00 0. -1.
          1    1    1    2  502    0  0.21174620965E+03  0.28073285490E+02 -0.11640545009E+04  0.11834895216E+04  0.00000000000E+00 0. -1.
<mgrwt>
<rscale>  0 0.97512085E+02</rscale>
<asrwt>0</asrwt>
<pdfrwt beam="2">  1        2 0.18300088E+00 0.21338818E+03</pdfrwt>
<pdfrwt beam="1">  1        1 0.35415371E+00 0.44560139E+02</pdfrwt>
<totfact> 0.77882985E+00</totfact>
</mgrwt>
</event>
<event>
 5    1  0.8891499E-003  0.7752897E+02  0.7546771E-02  0.1417032E+00
          2   -1    0    0  502    0  0.00000000000E+00  0.00000000000E+00  0.15321882158E+03  0.15321882158E+03  0.00000000000E+00 0. -1.
          1   -1    0    0  501    0 -0.00000000000E+00 -0.00000000000E+00 -0.22620385425E+04  0.22620385425E+04  0.00000000000E+00 0. -1.
         25    1    1    2    0    0  0.11101961150E+03  0.11407878225E+02 -0.75335533205E+03  0.77176729015E+03  0.12500000000E+03 0.  0.
          2    1    1    2  501    0 -0.71783906851E+02 -0.18932413493E+02 -0.14957681239E+04  0.14976093103E+04  0.00000000000E+00 0. -1.
          1    1    1    2  502    0 -0.39235704652E+02  0.75245352680E+01  0.14030373505E+03  0.14588076370E+03  0.00000000000E+00 0. -1.
<mgrwt>
<rscale>  0 0.55653728E+02</rscale>
<asrwt>0</asrwt>
<pdfrwt beam="1">  1        2 0.23572126E-01 0.39950709E+02</pdfrwt>
<pdfrwt beam="2">  1        1 0.34800594E+00 0.77528974E+02</pdfrwt>
<totfact> 0.79155913E+01</totfact>
</mgrwt>
</event>
<event>
 5    1  0.8891499E-003  0.7776688E+02  0.7546771E-02  0.1413194E+00
          1   -1    0    0  502    0  0.00000000000E+00  0.00000000000E+00  0.10021267814E+03  0.10021267814E+03  0.00000000000E+00 0. -1.
         -1   -1    0    0    0  501 -0.00000000000E+00 -0.00000000000E+00 -0.26573073544E+03  0.26573073544E+03  0.00000000000E+00 0.  1.
         25    1    1    2    0    0 -0.90409955738E+02 -0.54101644421E+02 -0.13666089152E+03  0.21307779635E+03  0.12500000000E+03 0.  0.
          2    1    1    2  502    0  0.40222313920E+02  0.81022564659E+01  0.39097452752E+02  0.56675320102E+02  0.00000000000E+00 0. -1.
         -2    1    1    2    0  501  0.50187641818E+02  0.45999387955E+02 -0.67954618524E+02  0.96190297131E+02  0.00000000000E+00 0.  1.
<mgrwt>
<rscale>  0 0.56487117E+02</rscale>
<asrwt>0</asrwt>
<pdfrwt beam="1">  1        1 0.15417335E-01 0.41030246E+02</pdfrwt>
<pdfrwt beam="2">  1       -1 0.40881651E-01 0.77766885E+02</pdfrwt>
<totfact> 0.19537006E+03</totfact>
</mgrwt>
</event>
<event>
 5    1  0.8891499E-003  0.7888265E+02  0.7546771E-02  0.1334861E+00
          2   -1    0    0  502    0  0.00000000000E+00  0.00000000000E+00  0.28517325839E+03  0.28517325839E+03  0.00000000000E+00 0. -1.
         -2   -1    0    0    0  501 -0.00000000000E+00 -0.00000000000E+00 -0.13673923690E+03  0.13673923690E+03  0.00000000000E+00 0.  1.
         25    1    1    2    0    0 -0.61273389066E+02 -0.58612654182E+02  0.96365198020E+02  0.17916786215E+03  0.12500000000E+03 0.  0.
          1    1    1    2  502    0  0.76056809728E+02 -0.20924490555E+02  0.11555265081E+03  0.13991028454E+03  0.00000000000E+00 0. -1.
         -1    1    1    2    0  501 -0.14783420662E+02  0.79537144738E+02 -0.63483827334E+02  0.10283434860E+03  0.00000000000E+00 0.  1.
<mgrwt>
<rscale>  0 0.77987827E+02</rscale>
<asrwt>0</asrwt>
<pdfrwt beam="1">  1        2 0.43872809E-01 0.78882651E+02</pdfrwt>
<pdfrwt beam="2">  1       -2 0.21036806E-01 0.77103154E+02</pdfrwt>
<totfact> 0.21160239E+03</totfact>
</mgrwt>
</event>
<event>
 5    1  0.8891499E-003  0.6347868E+02  0.7546771E-02  0.1537355E+00
         -2   -1    0    0    0  501 -0.00000000000E+00  0.00000000000E+00  0.45955901324E+03  0.45955901324E+03  0.00000000000E+00 0.  1.
          2   -1    0    0  502    0  0.00000000000E+00 -0.00000000000E+00 -0.70317942126E+03  0.70317942126E+03  0.00000000000E+00 0. -1.
         25    1    1    2    0    0 -0.38533025316E+02  0.19050972166E+02  0.21374615253E+03  0.25131683450E+03  0.12500000000E+03 0.  0.
          1    1    1    2  502    0  0.55697343966E+02 -0.30723757020E+02 -0.68243746842E+03  0.68539553666E+03  0.00000000000E+00 0. -1.
         -1    1    1    2    0  501 -0.17164318650E+02  0.11672784854E+02  0.22507090787E+03  0.22602606334E+03  0.00000000000E+00 0.  1.
<mgrwt>
<rscale>  0 0.36299441E+02</rscale>
<asrwt>0</asrwt>
<pdfrwt beam="2">  1        2 0.10818145E+00 0.63478678E+02</pdfrwt>
<pdfrwt beam="1">  1       -2 0.70701387E-01 0.20757354E+02</pdfrwt>
<totfact> 0.84478834E+01</totfact>
</mgrwt>
</event>
<event>
 5    1  0.8891499E-003  0.6578574E+02  0.7546771E-02  0.1424928E+00
          2   -1    0    0  502    0  0.00000000000E+00  0.00000000000E+00  0.50759155300E+03  0.50759155300E+03  0.00000000000E+00 0. -1.
          1   -1    0    0  501    0 -0.00000000000E+00 -0.00000000000E+00 -0.60910949069E+03  0.60910949069E+03  0.00000000000E+00 0. -1.
         25    1    1    2    0    0  0.81763190678E+02  0.36716636230E+02 -0.19161317255E+03  0.24571108770E+03  0.12500000000E+03 0.  0.
          2    1    1    2  501    0 -0.39693406875E+02 -0.50633978332E+02 -0.38676275685E+03  0.39207753875E+03  0.00000000000E+00 0. -1.
          1    1    1    2  502    0 -0.42069783803E+02  0.13917342102E+02  0.47685799171E+03  0.47891241723E+03  0.00000000000E+00 0. -1.
<mgrwt>
<rscale>  0 0.53991687E+02</rscale>
<asrwt>0</asrwt>
<pdfrwt beam="1">  1        2 0.78091009E-01 0.44312065E+02</pdfrwt>
<pdfrwt beam="2">  1        1 0.93709152E-01 0.65785745E+02</pdfrwt>
<totfact> 0.31025704E+02</totfact>
</mgrwt>
</event>
<event>
 5    1  0.8891499E-003  0.4605554E+02  0.7546771E-02  0.1566953E+00
         -1   -1    0    0    0  501 -0.00000000000E+00  0.00000000000E+00  0.31795479700E+02  0.31795479700E+02  0.00000000000E+00 0.  1.
          1   -1    0    0  502    0  0.00000000000E+00 -0.00000000000E+00 -0.44973931188E+03  0.44973931188E+03  0.00000000000E+00 0. -1.
         25    1    1    2    0    0  0.41298068429E+02 -0.13878039011E+02 -0.29108675841E+03  0.31977278080E+03  0.12500000000E+03 0.  0.
          2    1    1    2  502    0 -0.47300362050E+02 -0.90175596326E+01 -0.12929217371E+03  0.13796777455E+03  0.00000000000E+00 0. -1.
         -2    1    1    2    0  501  0.60022936210E+01  0.22895598644E+02  0.24350999345E+01  0.23794236228E+02  0.00000000000E+00 0.  1.
<mgrwt>
<rscale>  0 0.33016703E+02</rscale>
<asrwt>0</asrwt>
<pdfrwt beam="2">  1        1 0.69190660E-01 0.46055543E+02</pdfrwt>
<pdfrwt beam="1">  1       -1 0.48916125E-02 0.23669304E+02</pdfrwt>
<totfact> 0.75514933E+03</totfact>
</mgrwt>
</event>
<event>
 5    1  0.8891499E-003  0.4454023E+02  0.7546771E-02  0.1514393E+00
          2   -1    0    0  502    0  0.00000000000E+00  0.00000000000E+00  0.23118999997E+03  0.23118999997E+03  0.00000000000E+00 0. -1.
          1   -1    0    0  501    0 -0.00000000000E+00 -0.00000000000E+00 -0.46952166691E+03  0.46952166691E+03  0.00000000000E+00 0. -1.
         25    1    1    2    0    0  0.52375911521E+02 -0.47891850734E+02 -0.31683931066E+03  0.34792098852E+03  0.12500000000E+03 0.  0.
          2    1    1    2  501    0 -0.33586408092E+02  0.76703419198E+01 -0.13263256805E+03  0.13703386100E+03  0.00000000000E+00 0. -1.
          3    1    1    2  502    0 -0.18789503430E+02  0.40221508814E+02  0.21114021177E+03  0.21575681735E+03  0.00000000000E+00 0. -1.
<mgrwt>
<rscale>  0 0.39172205E+02</rscale>
<asrwt>0</asrwt>
<pdfrwt beam="1">  1        2 0.35567693E-01 0.44540230E+02</pdfrwt>
<pdfrwt beam="2">  1        1 0.72234102E-01 0.34451139E+02</pdfrwt>
<totfact> 0.98131898E+02</totfact>
</mgrwt>
</event>
<event>
 5    1  0.8891499E-003  0.5017065E+02  0.7546771E-02  0.1492871E+00
          2   -1    0    0  502    0  0.00000000000E+00  0.00000000000E+00  0.17940541404E+03  0.17940541404E+03  0.00000000000E+00 0. -1.
         -2   -1    0    0    0  501 -0.00000000000E+00 -0.00000000000E+00 -0.41295810242E+03  0.41295810242E+03  0.00000000000E+00 0.  1.
         25    1    1    2    0    0  0.40643601462E+02 -0.31967801790E+02 -0.78045199233E+02  0.15617264746E+03  0.12500000000E+03 0.  0.
          1    1    1    2  502    0 -0.30648275384E+02 -0.17782795495E+02  0.13587679960E+03  0.14042097161E+03  0.00000000000E+00 0. -1.
         -1    1    1    2    0  501 -0.99953260782E+01  0.49750597285E+02 -0.29138428874E+03  0.29576989739E+03  0.00000000000E+00 0.  1.
<mgrwt>
<rscale>  0 0.42163137E+02</rscale>
<asrwt>0</asrwt>
<pdfrwt beam="1">  1        2 0.27600833E-01 0.35433665E+02</pdfrwt>
<pdfrwt beam="2">  1       -2 0.63532016E-01 0.50170655E+02</pdfrwt>
<totfact> 0.43640413E+02</totfact>
</mgrwt>
</event>
<event>
 5    1  0.8891499E-003  0.7776147E+02  0.7546771E-02  0.1504884E+00
         -1   -1    0    0    0  501 -0.00000000000E+00  0.00000000000E+00  0.71939996428E+03  0.71939996428E+03  0.00000000000E+00 0.  1.
          1   -1    0    0  502    0  0.00000000000E+00 -0.00000000000E+00 -0.89764974410E+03  0.89764974410E+03  0.00000000000E+00 0. -1.
         25    1    1    2    0    0 -0.92674137275E+02  0.32235421555E+02 -0.21709925188E+02  0.16038684165E+03  0.12500000000E+03 0.  0.
          2    1    1    2  502    0  0.73626746284E+02 -0.23280658710E+02 -0.80458196656E+03  0.80827905315E+03  0.00000000000E+00 0. -1.
         -2    1    1    2    0  501  0.19047390991E+02 -0.89547628450E+01  0.64804211193E+03  0.64838381358E+03  0.00000000000E+00 0.  1.
<mgrwt>
<rscale>  0 0.40455812E+02</rscale>
<asrwt>0</asrwt>
<pdfrwt beam="2">  1        1 0.13809996E+00 0.77761468E+02</pdfrwt>
<pdfrwt beam="1">  1       -1 0.11067692E+00 0.21047349E+02</pdfrwt>
<totfact> 0.18892034E+01</totfact>
</mgrwt>
</event>
<event>
 5    1  0.8891499E-003  0.7143817E+02  0.7546771E-02  0.1500880E+00
          1   -1    0    0  501    0 -0.00000000000E+00  0.00000000000E+00  0.26357052335E+03  0.26357052335E+03  0.00000000000E+00 0. -1.
          2   -1    0    0  502    0  0.00000000000E+00 -0.00000000000E+00 -0.21530595021E+03  0.21530595021E+03  0.00000000000E+00 0. -1.
         25    1    1    2    0    0 -0.83394640616E+01  0.86419921580E+02  0.20052034104E+03  0.25173668123E+03  0.12500000000E+03 0.  0.
          2    1    1    2  501    0  0.17319466287E+02 -0.15952631992E+02  0.26103533694E+02  0.35154585067E+02  0.00000000000E+00 0. -1.
          1    1    1    2  502    0 -0.89800022250E+01 -0.70467289588E+02 -0.17835930160E+03  0.19198520727E+03  0.00000000000E+00 0. -1.
<mgrwt>
<rscale>  0 0.41013878E+02</rscale>
<asrwt>0</asrwt>
<pdfrwt beam="2">  1        2 0.33123992E-01 0.71438172E+02</pdfrwt>
<pdfrwt beam="1">  1        1 0.40549311E-01 0.23546770E+02</pdfrwt>
<totfact> 0.21053765E+03</totfact>
</mgrwt>
</event>
<event>
 5    1  0.8891499E-003  0.1175166E+03  0.7546771E-02  0.1343171E+00
          2   -1    0    0  502    0  0.00000000000E+00  0.00000000000E+00  0.13262668459E+04  0.13262668459E+04  0.00000000000E+00 0. -1.
          1   -1    0    0  501    0 -0.00000000000E+00 -0.00000000000E+00 -0.10298447732E+04  0.10298447732E+04  0.00000000000E+00 0. -1.
         25    1    1    2    0    0 -0.26485929758E+02 -0.69319483064E+02  0.11907468149E+03  0.18791081656E+03  0.12500000000E+03 0.  0.
          2    1    1    2  501    0 -0.59038868823E+01 -0.47791913405E+02 -0.99169361774E+03  0.99286210237E+03  0.00000000000E+00 0. -1.
          1    1    1    2  502    0  0.32389816640E+02  0.11711139647E+03  0.11690410090E+04  0.11753387002E+04  0.00000000000E+00 0. -1.
<mgrwt>
<rscale>  0 0.75226543E+02</rscale>
<asrwt>0</asrwt>
<pdfrwt beam="1">  1        2 0.20404105E+00 0.11751656E+03</pdfrwt>
<pdfrwt beam="2">  1        1 0.15843766E+00 0.48155196E+02</pdfrwt>
<totfact> 0.42130981E+01</totfact>
</mgrwt>
</event>
<event>
 5    1  0.8891499E-003  0.7431918E+02  0.7546771E-02  0.1507452E+00
          1   -1    0    0  501    0 -0.00000000000E+00  0.00000000000E+00  0.33334300286E+03  0.33334300286E+03  0.00000000000E+00 0. -1.
          2   -1    0    0  502    0  0.00000000000E+00 -0.00000000000E+00 -0.72713939686E+03  0.72713939686E+03  0.00000000000E+00 0. -1.
         25    1    1    2    0    0  0.59068449468E+02 -0.33681770157E+02  0.24768653238E+02  0.14443693969E+03  0.12500000000E+03 0.  0.
          2    1    1    2  501    0 -0.76149808252E+01 -0.20256086184E+02  0.24618229277E+03  0.24713158081E+03  0.00000000000E+00 0. -1.
          1    1    1    2  502    0 -0.51453468643E+02  0.53937856340E+02 -0.66474734000E+03  0.66891387922E+03  0.00000000000E+00 0. -1.
<mgrwt>
<rscale>  0 0.40103363E+02</rscale>
<asrwt>0</asrwt>
<pdfrwt beam="2">  1        2 0.11186760E+00 0.74319182E+02</pdfrwt>
<pdfrwt beam="1">  1        1 0.51283539E-01 0.21640170E+02</pdfrwt>
<totfact> 0.43858426E+02</totfact>
</mgrwt>
</event>
<event>
 5    1  0.8891499E-003  0.1157813E+03  0.7546771E-02  0.1391960E+00
          2   -1    0    0  502    0  0.00000000000E+00  0.00000000000E+00  0.12616828078E+04  0.12616828078E+04  0.00000000000E+00 0. -1.
         -2   -1    0    0    0  501 -0.00000000000E+00 -0.00000000000E+00 -0.13360292972E+03  0.13360292972E+03  0.00000000000E+00 0.  1.
         25    1    1    2    0    0  0.64129340072E+02  0.64260088722E+02  0.19996090616E+03  0.25268813833E+03  0.12500000000E+03 0.  0.
          1    1    1    2  502    0  0.31779258134E+02  0.71974466023E+01  0.10016633123E+04  0.10021931529E+04  0.00000000000E+00 0. -1.
         -1    1    1    2    0  501 -0.95908598206E+02 -0.71457535324E+02 -0.73544340323E+02  0.14040444636E+03  0.00000000000E+00 0.  1.
<mgrwt>
<rscale>  0 0.61421759E+02</rscale>
<asrwt>0</asrwt>
<pdfrwt beam="1">  1        2 0.19410504E+00 0.32584114E+02</pdfrwt>
<pdfrwt beam="2">  1       -2 0.20554298E-01 0.11578134E+03</pdfrwt>
<totfact> 0.41850213E+02</totfact>
</mgrwt>
</event>
<event>
 5    1  0.8891499E-003  0.8664886E+02  0.7546771E-02  0.1483059E+00
          1   -1    0    0  501    0 -0.00000000000E+00  0.00000000000E+00  0.40240507251E+02  0.40240507251E+02  0.00000000000E+00 0. -1.
          2   -1    0    0  502    0  0.00000000000E+00 -0.00000000000E+00 -0.15949799344E+04  0.15949799344E+04  0.00000000000E+00 0. -1.
         25    1    1    2    0    0 -0.45146590116E+01  0.10021256999E+03 -0.59887493583E+03  0.61995090943E+03  0.12500000000E+03 0.  0.
          2    1    1    2  501    0 -0.11034447700E+02 -0.84688319868E+02 -0.32090318618E+02  0.91234089611E+02  0.00000000000E+00 0. -1.
          1    1    1    2  502    0  0.15549106712E+02 -0.15524250127E+02 -0.92377417272E+03  0.92403544263E+03  0.00000000000E+00 0. -1.
<mgrwt>
<rscale>  0 0.43633301E+02</rscale>
<asrwt>0</asrwt>
<pdfrwt beam="2">  1        2 0.24538153E+00 0.21972188E+02</pdfrwt>
<pdfrwt beam="1">  1        1 0.61908472E-02 0.86648856E+02</pdfrwt>
<totfact> 0.23416028E+03</totfact>
</mgrwt>
</event>
<event>
 5    1  0.8891499E-003  0.1962569E+03  0.7546771E-02  0.1311334E+00
          1   -1    0    0  501    0 -0.00000000000E+00  0.00000000000E+00  0.45523126293E+03  0.45523126293E+03  0.00000000000E+00 0. -1.
          2   -1    0    0  502    0  0.00000000000E+00 -0.00000000000E+00 -0.31622267286E+03  0.31622267286E+03  0.00000000000E+00 0. -1.
         25    1    1    2    0    0 -0.17678004667E+03 -0.41319258866E+02  0.62810582640E+02  0.22919126368E+03  0.12500000000E+03 0.  0.
          2    1    1    2  501    0  0.18730231283E+03  0.78042812148E+02  0.27391751538E+03  0.34088655319E+03  0.00000000000E+00 0. -1.
          1    1    1    2  502    0 -0.10522266156E+02 -0.36723553282E+02 -0.19771950794E+03  0.20137611892E+03  0.00000000000E+00 0. -1.
<mgrwt>
<rscale>  0 0.86586745E+02</rscale>
<asrwt>0</asrwt>
<pdfrwt beam="2">  1        2 0.48649642E-01 0.38201276E+02</pdfrwt>
<pdfrwt beam="1">  1        1 0.70035579E-01 0.19625691E+03</pdfrwt>
<totfact> 0.71620443E+02</totfact>
</mgrwt>
</event>
<event>
 5    1  0.8891499E-003  0.6797033E+02  0.7546771E-02  0.1503260E+00
         -1   -1    0    0    0  501 -0.00000000000E+00  0.00000000000E+00  0.44947148275E+03  0.44947148275E+03  0.00000000000E+00 0.  1.
          1   -1    0    0  502    0  0.00000000000E+00 -0.00000000000E+00 -0.77414952025E+03  0.77414952025E+03  0.00000000000E+00 0. -1.
         25    1    1    2    0    0  0.38542185834E+02 -0.30553017246E+02 -0.16576692409E+03  0.21336039950E+03  0.12500000000E+03 0.  0.
          2    1    1    2  502    0  0.21594633253E+01 -0.24251915456E+02 -0.58159255399E+03  0.58210198208E+03  0.00000000000E+00 0. -1.
         -2    1    1    2    0  501 -0.40701649159E+02  0.54804932701E+02  0.42268144057E+03  0.42815862142E+03  0.00000000000E+00 0.  1.
<mgrwt>
<rscale>  0 0.40680862E+02</rscale>
<asrwt>0</asrwt>
<pdfrwt beam="2">  1        1 0.11909993E+00 0.24347868E+02</pdfrwt>
<pdfrwt beam="1">  1       -1 0.69149459E-01 0.67970327E+02</pdfrwt>
<totfact> 0.62652278E+01</totfact>
</mgrwt>
</event>
<event>
 5    1  0.8891499E-003  0.9968469E+02  0.7546771E-02  0.1344258E+00
          2   -1    0    0  502    0  0.00000000000E+00  0.00000000000E+00  0.45334776479E+03  0.45334776479E+03  0.00000000000E+00 0. -1.
         -2   -1    0    0    0  501 -0.00000000000E+00 -0.00000000000E+00 -0.70822208535E+03  0.70822208535E+03  0.00000000000E+00 0.  1.
         25    1    1    2    0    0 -0.13263479420E+02 -0.52906790559E+02 -0.36043990056E+02  0.14106458660E+03  0.12500000000E+03 0.  0.
          1    1    1    2  502    0 -0.46204730596E+02 -0.32063471625E+02  0.39448949519E+03  0.39847823675E+03  0.00000000000E+00 0. -1.
         -1    1    1    2    0  501  0.59468210016E+02  0.84970262185E+02 -0.61331982570E+03  0.62202702679E+03  0.00000000000E+00 0.  1.
<mgrwt>
<rscale>  0 0.74875044E+02</rscale>
<asrwt>0</asrwt>
<pdfrwt beam="1">  1        2 0.69745810E-01 0.56240051E+02</pdfrwt>
<pdfrwt beam="2">  1       -2 0.10895724E+00 0.99684693E+02</pdfrwt>
<totfact> 0.51717747E+01</totfact>
</mgrwt>
</event>
<event>
 5    1  0.8891499E-003  0.5830977E+02  0.7546771E-02  0.1462309E+00
          2   -1    0    0  502    0  0.00000000000E+00  0.00000000000E+00  0.10937563440E+03  0.10937563440E+03  0.00000000000E+00 0. -1.
          1   -1    0    0  501    0 -0.00000000000E+00 -0.00000000000E+00 -0.77112952746E+03  0.77112952746E+03  0.00000000000E+00 0. -1.
         25    1    1    2    0    0 -0.53707548273E+02  0.67120617835E+02 -0.19014020714E+03  0.24324468432E+03  0.12500000000E+03 0.  0.
          2    1    1    2  501    0  0.18166267043E+02 -0.54068915498E+02 -0.54855259132E+03  0.55151011444E+03  0.00000000000E+00 0. -1.
          3    1    1    2  502    0  0.35541281229E+02 -0.13051702336E+02  0.76938905407E+02  0.85750363093E+02  0.00000000000E+00 0. -1.
<mgrwt>
<rscale>  0 0.46986418E+02</rscale>
<asrwt>0</asrwt>
<pdfrwt beam="1">  1        2 0.16827021E-01 0.37861981E+02</pdfrwt>
<pdfrwt beam="2">  1        1 0.11863531E+00 0.58309771E+02</pdfrwt>
<totfact> 0.11091346E+03</totfact>
</mgrwt>
</event>
<event>
 5    1  0.8891499E-003  0.1713337E+03  0.7546771E-02  0.1259175E+00
          2   -1    0    0  502    0  0.00000000000E+00  0.00000000000E+00  0.42199554907E+03  0.42199554907E+03  0.00000000000E+00 0. -1.
          1   -1    0    0  501    0 -0.00000000000E+00 -0.00000000000E+00 -0.13444878853E+04  0.13444878853E+04  0.00000000000E+00 0. -1.
         25    1    1    2    0    0  0.21310446391E+02 -0.11842406664E+03  0.22528360911E+02  0.17495977175E+03  0.12500000000E+03 0.  0.
          2    1    1    2  501    0  0.30855563859E+02 -0.64607609708E+02 -0.12391352638E+04  0.12412020025E+04  0.00000000000E+00 0. -1.
          1    1    1    2  502    0 -0.52166010249E+02  0.18303167634E+03  0.29411456670E+03  0.35032166007E+03  0.00000000000E+00 0. -1.
<mgrwt>
<rscale>  0 0.11075683E+03</rscale>
<asrwt>0</asrwt>
<pdfrwt beam="1">  1        2 0.64922393E-01 0.17133372E+03</pdfrwt>
<pdfrwt beam="2">  1        1 0.20684429E+00 0.71597549E+02</pdfrwt>
<totfact> 0.10540702E+02</totfact>
</mgrwt>
</event>
<event>
 5    1  0.8891499E-003  0.7190804E+02  0.7546771E-02  0.1483141E+00
         -2   -1    0    0    0  501  0.00000000000E+00  0.00000000000E+00  0.20541021999E+03  0.20541021999E+03  0.00000000000E+00 0.  1.
         -1   -1    0    0    0  502 -0.00000000000E+00 -0.00000000000E+00 -0.61674726649E+03  0.61674726649E+03  0.00000000000E+00 0.  1.
         25    1    1    2    0    0  0.60090394567E+01 -0.54825412183E+02 -0.79047741023E+02  0.15784638018E+03  0.12500000000E+03 0.  0.
         -2    1    1    2    0  502  0.14277272018E+02  0.71815109331E+02 -0.49453280978E+03  0.49992394459E+03  0.00000000000E+00 0.  1.
         -1    1    1    2    0  501 -0.20286311475E+02 -0.16989697148E+02  0.16224350430E+03  0.16438716170E+03  0.00000000000E+00 0.  1.
<mgrwt>
<rscale>  0 0.43620618E+02</rscale>
<asrwt>0</asrwt>
<pdfrwt beam="1">  1       -2 0.31601572E-01 0.26460995E+02</pdfrwt>
<pdfrwt beam="2">  1       -1 0.94884195E-01 0.71908041E+02</pdfrwt>
<totfact> 0.78438086E+01</totfact>
</mgrwt>
</event>
<event>
 5    1  0.8891499E-003  0.1465921E+03  0.7546771E-02  0.1339229E+00
         -1   -1    0    0    0  501 -0.00000000000E+00  0.00000000000E+00  0.66205146368E+03  0.66205146368E+03  0.00000000000E+00 0.  1.
          1   -1    0    0  502    0  0.00000000000E+00 -0.00000000000E+00 -0.14086106933E+04  0.14086106933E+04  0.00000000000E+00 0. -1.
         25    1    1    2    0    0  0.15047963612E+03 -0.83964497439E+02 -0.25883355294E+02  0.21445070715E+03  0.12500000000E+03 0.  0.
          2    1    1    2  502    0 -0.11167226520E+03  0.93419211363E+02 -0.12836207119E+04  0.12918513753E+04  0.00000000000E+00 0. -1.
         -2    1    1    2    0  501 -0.38807370915E+02 -0.94547139245E+01  0.56294483753E+03  0.56436007456E+03  0.00000000000E+00 0.  1.
<mgrwt>
<rscale>  0 0.76519648E+02</rscale>
<asrwt>0</asrwt>
<pdfrwt beam="2">  1        1 0.21670933E+00 0.14659212E+03</pdfrwt>
<pdfrwt beam="1">  1       -1 0.10185407E+00 0.39942504E+02</pdfrwt>
<totfact> 0.92842536E+00</totfact>
</mgrwt>
</event>
<event>
 5    1  0.8891499E-003  0.3479871E+02  0.7546771E-02  0.1565425E+00
          2   -1    0    0  502    0  0.00000000000E+00  0.00000000000E+00  0.56149307492E+03  0.56149307492E+03  0.00000000000E+00 0. -1.
          1   -1    0    0  501    0 -0.00000000000E+00 -0.00000000000E+00 -0.30703989389E+02  0.30703989389E+02  0.00000000000E+00 0. -1.
         25    1    1    2    0    0 -0.70302550712E+01 -0.32943805960E+02  0.46451473974E+03  0.48221744294E+03  0.12500000000E+03 0.  0.
          2    1    1    2  501    0 -0.24191739030E+02  0.37996698519E+02  0.11114299524E+02  0.46395225935E+02  0.00000000000E+00 0. -1.
          1    1    1    2  502    0  0.31221994101E+02 -0.50528925587E+01  0.55160046264E+02  0.63584395434E+02  0.00000000000E+00 0. -1.
<mgrwt>
<rscale>  0 0.33175614E+02</rscale>
<asrwt>0</asrwt>
<pdfrwt beam="1">  1        2 0.86383542E-01 0.34798707E+02</pdfrwt>
<pdfrwt beam="2">  1        1 0.47236911E-02 0.31628225E+02</pdfrwt>
<totfact> 0.11174625E+04</totfact>
</mgrwt>
</event>
<event>
 5    1  0.8891499E-003  0.1011489E+03  0.7546771E-02  0.1400723E+00
          2   -1    0    0  502    0  0.00000000000E+00  0.00000000000E+00  0.66114944348E+03  0.66114944348E+03  0.00000000000E+00 0. -1.
          1   -1    0    0  501    0 -0.00000000000E+00 -0.00000000000E+00 -0.57023971874E+03  0.57023971874E+03  0.00000000000E+00 0. -1.
         25    1    1    2    0    0  0.79113088319E+02  0.15988050191E+02 -0.19803266603E+03  0.24770231187E+03  0.12500000000E+03 0.  0.
          2    1    1    2  501    0  0.21872850563E+02 -0.27047209335E+02 -0.34243072312E+03  0.34419293029E+03  0.00000000000E+00 0. -1.
          1    1    1    2  502    0 -0.10098593888E+03  0.11059159145E+02  0.63137311389E+03  0.63949392006E+03  0.00000000000E+00 0. -1.
<mgrwt>
<rscale>  0 0.59316366E+02</rscale>
<asrwt>0</asrwt>
<pdfrwt beam="1">  1        2 0.10171530E+00 0.10114891E+03</pdfrwt>
<pdfrwt beam="2">  1        1 0.87729188E-01 0.34784668E+02</pdfrwt>
<totfact> 0.25382580E+02</totfact>
</mgrwt>
</event>
<event>
 5    1  0.8891499E-003  0.7460779E+02  0.7546771E-02  0.1402029E+00
          2   -1    0    0  502    0  0.00000000000E+00  0.00000000000E+00  0.19737581281E+04  0.19737581281E+04  0.00000000000E+00 0. -1.
          1   -1    0    0  501    0 -0.00000000000E+00 -0.00000000000E+00 -0.32577596283E+03  0.32577596283E+03  0.00000000000E+00 0. -1.
         25    1    1    2    0    0 -0.28024215820E+02 -0.16545290974E+02  0.26279477574E+02  0.13181317941E+03  0.12500000000E+03 0.  0.
          2    1    1    2  501    0  0.55413422052E+02  0.54339279569E+02 -0.26719923494E+03  0.27824240475E+03  0.00000000000E+00 0. -1.
          1    1    1    2  502    0 -0.27389206232E+02 -0.37793988595E+02  0.18889019227E+04  0.18894785068E+04  0.00000000000E+00 0. -1.
<mgrwt>
<rscale>  0 0.59011164E+02</rscale>
<asrwt>0</asrwt>
<pdfrwt beam="1">  1        2 0.30365509E+00 0.46674985E+02</pdfrwt>
<pdfrwt beam="2">  1        1 0.50119380E-01 0.74607791E+02</pdfrwt>
<totfact> 0.10054087E+02</totfact>
</mgrwt>
</event>
<event>
 5    1  0.8891499E-003  0.5937167E+02  0.7546771E-02  0.1401140E+00
          2   -1    0    0  502    0  0.00000000000E+00  0.00000000000E+00  0.41199947717E+03  0.41199947717E+03  0.00000000000E+00 0. -1.
          1   -1    0    0  501    0 -0.00000000000E+00 -0.00000000000E+00 -0.21309916548E+03  0.21309916548E+03  0.00000000000E+00 0. -1.
         25    1    1    2    0    0  0.22951851955E+01 -0.22220730724E+02 -0.43287702576E+02  0.13415608053E+03  0.12500000000E+03 0.  0.
          2    1    1    2  501    0  0.57796130854E+02  0.12183731476E+02 -0.11463416245E+03  0.12895668752E+03  0.00000000000E+00 0. -1.
          1    1    1    2  502    0 -0.60091316050E+02  0.10036999248E+02  0.35682217671E+03  0.36198587460E+03  0.00000000000E+00 0. -1.
<mgrwt>
<rscale>  0 0.59218821E+02</rscale>
<asrwt>0</asrwt>
<pdfrwt beam="1">  1        2 0.63384535E-01 0.59371666E+02</pdfrwt>
<pdfrwt beam="2">  1        1 0.32784487E-01 0.59066370E+02</pdfrwt>
<totfact> 0.14032012E+03</totfact>
</mgrwt>
</event>
<event>
 5    1  0.8891499E-003  0.9860552E+02  0.7546771E-02  0.1309274E+00
         -1   -1    0    0    0  501 -0.00000000000E+00  0.00000000000E+00  0.23501354399E+03  0.23501354399E+03  0.00000000000E+00 0.  1.
          1   -1    0    0  502    0  0.00000000000E+00 -0.00000000000E+00 -0.35623288172E+03  0.35623288172E+03  0.00000000000E+00 0. -1.
         25    1    1    2    0    0 -0.11569830483E+03  0.13520520370E+02 -0.10417033521E+03  0.20011337024E+03  0.12500000000E+03 0.  0.
          2    1    1    2  502    0  0.82342598460E+02  0.56397696791E+02 -0.18274474550E+03  0.20822258698E+03  0.00000000000E+00 0. -1.
         -2    1    1    2    0  501  0.33355706373E+02 -0.69918217161E+02  0.16569574298E+03  0.18291046848E+03  0.00000000000E+00 0.  1.
<mgrwt>
<rscale>  0 0.87399595E+02</rscale>
<asrwt>0</asrwt>
<pdfrwt beam="2">  1        1 0.54805059E-01 0.98605520E+02</pdfrwt>
<pdfrwt beam="1">  1       -1 0.36155930E-01 0.77467156E+02</pdfrwt>
<totfact> 0.52285809E+02</totfact>
</mgrwt>
</event>
<event>
 5    1  0.8891499E-003  0.3922936E+02  0.7546771E-02  0.1590319E+00
          1   -1    0    0  501    0 -0.00000000000E+00  0.00000000000E+00  0.42700224026E+04  0.42700224026E+04  0.00000000000E+00 0. -1.
          2   -1    0    0  502    0  0.00000000000E+00 -0.00000000000E+00 -0.12360824295E+02  0.12360824295E+02  0.00000000000E+00 0. -1.
         25    1    1    2    0    0 -0.13413115716E+02 -0.60568942624E+02  0.16181626969E+04  0.16241687173E+04  0.12500000000E+03 0.  0.
          2    1    1    2  501    0  0.10581081601E+02  0.36687970597E+02  0.26330360754E+04  0.26333129212E+04  0.00000000000E+00 0. -1.
          3    1    1    2  502    0  0.28320341155E+01  0.23880972026E+02  0.64628058905E+01  0.24901588346E+02  0.00000000000E+00 0. -1.
<mgrwt>
<rscale>  0 0.30714813E+02</rscale>
<asrwt>0</asrwt>
<pdfrwt beam="2">  1        2 0.19016687E-02 0.24048311E+02</pdfrwt>
<pdfrwt beam="1">  1        1 0.65692534E+00 0.39229356E+02</pdfrwt>
<totfact> 0.65564318E+01</totfact>
</mgrwt>
</event>
<event>
 5    1  0.8891499E-003  0.1608435E+03  0.7546771E-02  0.1352132E+00
         -1   -1    0    0    0  501 -0.00000000000E+00  0.00000000000E+00  0.21027351337E+03  0.21027351337E+03  0.00000000000E+00 0.  1.
          1   -1    0    0  502    0  0.00000000000E+00 -0.00000000000E+00 -0.90390815327E+03  0.90390815327E+03  0.00000000000E+00 0. -1.
         25    1    1    2    0    0  0.49843229083E+02 -0.15363115811E+03 -0.64472703971E+03  0.67630232586E+03  0.12500000000E+03 0.  0.
          2    1    1    2  502    0  0.29597253860E+02  0.13630549743E+02 -0.20860361890E+03  0.21113327341E+03  0.00000000000E+00 0. -1.
         -2    1    1    2    0  501 -0.79440482943E+02  0.14000060837E+03  0.15969601871E+03  0.22674606737E+03  0.00000000000E+00 0.  1.
<mgrwt>
<rscale>  0 0.72395473E+02</rscale>
<asrwt>0</asrwt>
<pdfrwt beam="2">  1        1 0.13906279E+00 0.32585109E+02</pdfrwt>
<pdfrwt beam="1">  1       -1 0.32349771E-01 0.16084355E+03</pdfrwt>
<totfact> 0.19337148E+02</totfact>
</mgrwt>
</event>
<event>
 5    1  0.8891499E-003  0.5362220E+02  0.7546771E-02  0.1557828E+00
          1   -1    0    0  501    0 -0.00000000000E+00  0.00000000000E+00  0.19528983327E+04  0.19528983327E+04  0.00000000000E+00 0. -1.
          2   -1    0    0  502    0  0.00000000000E+00 -0.00000000000E+00 -0.34860452514E+03  0.34860452514E+03  0.00000000000E+00 0. -1.
         25    1    1    2    0    0  0.34842522812E+02 -0.27348790298E+02 -0.56759231113E+02  0.14425175231E+03  0.12500000000E+03 0.  0.
          2    1    1    2  501    0 -0.25966819835E+02  0.46970502209E+02  0.19083067278E+04  0.19090613063E+04  0.00000000000E+00 0. -1.
          1    1    1    2  502    0 -0.88757029774E+01 -0.19621711911E+02 -0.24725368911E+03  0.24818979926E+03  0.00000000000E+00 0. -1.
<mgrwt>
<rscale>  0 0.33982286E+02</rscale>
<asrwt>0</asrwt>
<pdfrwt beam="2">  1        2 0.53631467E-01 0.21535777E+02</pdfrwt>
<pdfrwt beam="1">  1        1 0.30044589E+00 0.53622202E+02</pdfrwt>
<totfact> 0.55282677E+01</totfact>
</mgrwt>
</event>
<event>
 5    1  0.8891499E-003  0.6263550E+02  0.7546771E-02  0.1459807E+00
          1   -1    0    0  501    0 -0.00000000000E+00  0.00000000000E+00  0.20702274652E+03  0.20702274652E+03  0.00000000000E+00 0. -1.
          2   -1    0    0  502    0  0.00000000000E+00 -0.00000000000E+00 -0.90593144090E+03  0.90593144090E+03  0.00000000000E+00 0. -1.
         25    1    1    2    0    0  0.42593848322E+02  0.48030095650E+02 -0.18918384137E+03  0.23566215615E+03  0.12500000000E+03 0.  0.
          2    1    1    2  501    0 -0.95804111724E+01 -0.62114927431E+02  0.17792859832E+03  0.18870250286E+03  0.00000000000E+00 0. -1.
          1    1    1    2  502    0 -0.33013437149E+02  0.14084831782E+02 -0.68765345133E+03  0.68858952841E+03  0.00000000000E+00 0. -1.
<mgrwt>
<rscale>  0 0.47414585E+02</rscale>
<asrwt>0</asrwt>
<pdfrwt beam="2">  1        2 0.13937407E+00 0.35892472E+02</pdfrwt>
<pdfrwt beam="1">  1        1 0.31849653E-01 0.62635499E+02</pdfrwt>
<totfact> 0.61736351E+02</totfact>
</mgrwt>
</event>
<event>
 5    1  0.8891499E-003  0.1195699E+03  0.7546771E-02  0.1398242E+00
          2   -1    0    0  502    0  0.00000000000E+00  0.00000000000E+00  0.81140710132E+03  0.81140710132E+03  0.00000000000E+00 0. -1.
          1   -1    0    0  501    0 -0.00000000000E+00 -0.00000000000E+00 -0.35538043307E+03  0.35538043307E+03  0.00000000000E+00 0. -1.
         25    1    1    2    0    0  0.95924175237E+02 -0.99672499706E+02  0.65677678953E+02  0.19767299286E+03  0.12500000000E+03 0.  0.
          2    1    1    2  501    0 -0.65968561696E+02  0.97866473269E+02 -0.27699755342E+03  0.30109357735E+03  0.00000000000E+00 0. -1.
          1    1    1    2  502    0 -0.29955613542E+02  0.18060264371E+01  0.66734654272E+03  0.66802096418E+03  0.00000000000E+00 0. -1.
<mgrwt>
<rscale>  0 0.59902374E+02</rscale>
<asrwt>0</asrwt>
<pdfrwt beam="1">  1        2 0.12483186E+00 0.30010007E+02</pdfrwt>
<pdfrwt beam="2">  1        1 0.54673913E-01 0.11956993E+03</pdfrwt>
<totfact> 0.36805187E+02</totfact>
</mgrwt>
</event>
<event>
 5    1  0.8891499E-003  0.1637056E+03  0.7546771E-02  0.1380543E+00
          2   -1    0    0  502    0  0.00000000000E+00  0.00000000000E+00  0.39993372602E+03  0.39993372602E+03  0.00000000000E+00 0. -1.
          1   -1    0    0  501    0 -0.00000000000E+00 -0.00000000000E+00 -0.42604173357E+03  0.42604173357E+03  0.00000000000E+00 0. -1.
         25    1    1    2    0    0 -0.13162829143E+03  0.53102499163E+02 -0.31867949273E+03  0.37057725458E+03  0.12500000000E+03 0.  0.
          2    1    1    2  501    0 -0.16637915337E+02  0.19022958737E+02 -0.60587307448E+02  0.65646896421E+02  0.00000000000E+00 0. -1.
          1    1    1    2  502    0  0.14826620677E+03 -0.72125457900E+02  0.35315879262E+03  0.38975130860E+03  0.00000000000E+00 0. -1.
<mgrwt>
<rscale>  0 0.64321296E+02</rscale>
<asrwt>0</asrwt>
<pdfrwt beam="1">  1        2 0.61528266E-01 0.16370556E+03</pdfrwt>
<pdfrwt beam="2">  1        1 0.65544882E-01 0.25272380E+02</pdfrwt>
<totfact> 0.63040368E+02</totfact>
</mgrwt>
</event>
<event>
 5    1  0.8891499E-003  0.1140685E+03  0.7546771E-02  0.1311661E+00
          2   -1    0    0  502    0  0.00000000000E+00  0.00000000000E+00  0.72213518373E+03  0.72213518373E+03  0.00000000000E+00 0. -1.
          1   -1    0    0  501    0 -0.00000000000E+00 -0.00000000000E+00 -0.17689397677E+03  0.17689397677E+03  0.00000000000E+00 0. -1.
         25    1    1    2    0    0  0.90813552245E+02  0.47199208019E+02  0.19162248790E+03  0.25063727651E+03  0.12500000000E+03 0.  0.
          2    1    1    2  501    0 -0.11628653629E+03  0.13179525763E+02 -0.12154594019E+03  0.16872958839E+03  0.00000000000E+00 0. -1.
          1    1    1    2  502    0  0.25472984047E+02 -0.60378733782E+02  0.47516465926E+03  0.47966229559E+03  0.00000000000E+00 0. -1.
<mgrwt>
<rscale>  0 0.86458978E+02</rscale>
<asrwt>0</asrwt>
<pdfrwt beam="1">  1        2 0.11109772E+00 0.65532163E+02</pdfrwt>
<pdfrwt beam="2">  1        1 0.27214458E-01 0.11406849E+03</pdfrwt>
<totfact> 0.96932820E+02</totfact>
</mgrwt>
</event>
<event>
 5    1  0.8891499E-003  0.1637515E+03  0.7546771E-02  0.1237763E+00
          2   -1    0    0  502    0  0.00000000000E+00  0.00000000000E+00  0.11401235637E+04  0.11401235637E+04  0.00000000000E+00 0. -1.
          1   -1    0    0  501    0 -0.00000000000E+00 -0.00000000000E+00 -0.29131965951E+03  0.29131965951E+03  0.00000000000E+00 0. -1.
         25    1    1    2    0    0  0.38494750406E+02 -0.26915327883E+02 -0.75854294029E+02  0.15357458972E+03  0.12500000000E+03 0.  0.
          2    1    1    2  501    0 -0.14270459115E+03 -0.99397168426E+02 -0.12585365604E+03  0.21467077157E+03  0.00000000000E+00 0. -1.
          1    1    1    2  502    0  0.10420984075E+03  0.12631249631E+03  0.10505118542E+04  0.10631978619E+04  0.00000000000E+00 0. -1.
<mgrwt>
<rscale>  0 0.12329229E+03</rscale>
<asrwt>0</asrwt>
<pdfrwt beam="1">  1        2 0.17540362E+00 0.16375145E+03</pdfrwt>
<pdfrwt beam="2">  1        1 0.44818410E-01 0.92829639E+02</pdfrwt>
<totfact> 0.27703041E+02</totfact>
</mgrwt>
</event>
<event>
 5    1  0.8891499E-003  0.4361669E+02  0.7546771E-02  0.1486143E+00
          2   -1    0    0  502    0  0.00000000000E+00  0.00000000000E+00  0.21634639199E+04  0.21634639199E+04  0.00000000000E+00 0. -1.
          1   -1    0    0  501    0 -0.00000000000E+00 -0.00000000000E+00 -0.10673379036E+02  0.10673379036E+02  0.00000000000E+00 0. -1.
         25    1    1    2    0    0 -0.11725585183E+02 -0.74455361518E+01  0.74865854262E+03  0.75914922037E+03  0.12500000000E+03 0.  0.
          2    1    1    2  501    0 -0.27316242047E+02  0.32838913852E+02  0.85906199958E+02  0.95939806826E+02  0.00000000000E+00 0. -1.
          1    1    1    2  502    0  0.39041827230E+02 -0.25393377700E+02  0.13182257983E+04  0.13190482718E+04  0.00000000000E+00 0. -1.
<mgrwt>
<rscale>  0 0.43163491E+02</rscale>
<asrwt>0</asrwt>
<pdfrwt beam="1">  1        2 0.33284025E+00 0.43616690E+02</pdfrwt>
<pdfrwt beam="2">  1        1 0.16420600E-02 0.42715001E+02</pdfrwt>
<totfact> 0.63551449E+03</totfact>
</mgrwt>
</event>
<event>
 5    1  0.8891499E-003  0.1473049E+03  0.7546771E-02  0.1348728E+00
         -1   -1    0    0    0  501 -0.00000000000E+00  0.00000000000E+00  0.57588086976E+02  0.57588086976E+02  0.00000000000E+00 0.  1.
          1   -1    0    0  502    0  0.00000000000E+00 -0.00000000000E+00 -0.83222471865E+03  0.83222471865E+03  0.00000000000E+00 0. -1.
         25    1    1    2    0    0 -0.10788294850E+03 -0.69873997472E+02 -0.41268378202E+03  0.44994889715E+03  0.12500000000E+03 0.  0.
          2    1    1    2  502    0  0.13936124559E+03  0.88601125934E+02 -0.36742373094E+03  0.40282988264E+03  0.00000000000E+00 0. -1.
         -2    1    1    2    0  501 -0.31478297089E+02 -0.18727128462E+02  0.54708812851E+01  0.37034025842E+02  0.00000000000E+00 0.  1.
<mgrwt>
<rscale>  0 0.73453661E+02</rscale>
<asrwt>0</asrwt>
<pdfrwt beam="2">  1        1 0.12803457E+00 0.14730491E+03</pdfrwt>
<pdfrwt beam="1">  1       -1 0.88597060E-02 0.36627702E+02</pdfrwt>
<totfact> 0.14227373E+03</totfact>
</mgrwt>
</event>
<event>
 5    1  0.8891499E-003  0.5167144E+02  0.7546771E-02  0.1457263E+00
          2   -1    0    0  502    0  0.00000000000E+00  0.00000000000E+00  0.17102765440E+04  0.17102765440E+04  0.00000000000E+00 0. -1.
          1   -1    0    0  501    0 -0.00000000000E+00 -0.00000000000E+00 -0.23224391417E+04  0.23224391417E+04  0.00000000000E+00 0. -1.
         25    1    1    2    0    0  0.83773954775E+02  0.21083567756E+02 -0.13542034730E+01  0.15195205229E+03  0.12500000000E+03 0.  0.
          2    1    1    2  501    0 -0.40724770292E+02 -0.31627243010E+02 -0.22451895732E+04  0.22457816031E+04  0.00000000000E+00 0. -1.
          1    1    1    2  502    0 -0.43049184483E+02  0.10543675254E+02  0.16343811789E+04  0.16349820303E+04  0.00000000000E+00 0. -1.
<mgrwt>
<rscale>  0 0.47855610E+02</rscale>
<asrwt>0</asrwt>
<pdfrwt beam="1">  1        2 0.26311947E+00 0.44321568E+02</pdfrwt>
<pdfrwt beam="2">  1        1 0.35729833E+00 0.51671444E+02</pdfrwt>
<totfact> 0.44916757E+00</totfact>
</mgrwt>
</event>
<event>
 5    1  0.8891499E-003  0.9296468E+02  0.7546771E-02  0.1411426E+00
          1   -1    0    0  501    0 -0.00000000000E+00  0.00000000000E+00  0.34128567386E+03  0.34128567386E+03  0.00000000000E+00 0. -1.
          2   -1    0    0  502    0  0.00000000000E+00 -0.00000000000E+00 -0.63060633825E+03  0.63060633825E+03  0.00000000000E+00 0. -1.
         25    1    1    2    0    0  0.20871571731E+02  0.12414593078E+03 -0.69540336732E+02  0.19054840086E+03  0.12500000000E+03 0.  0.
          2    1    1    2  501    0 -0.15117192613E+02 -0.89827028647E+02  0.27276381398E+03  0.28757176983E+03  0.00000000000E+00 0. -1.
          1    1    1    2  502    0 -0.57543791172E+01 -0.34318902137E+02 -0.49254414163E+03  0.49377184142E+03  0.00000000000E+00 0. -1.
<mgrwt>
<rscale>  0 0.56876916E+02</rscale>
<asrwt>0</asrwt>
<pdfrwt beam="2">  1        2 0.97016359E-01 0.34797987E+02</pdfrwt>
<pdfrwt beam="1">  1        1 0.52505489E-01 0.92964675E+02</pdfrwt>
<totfact> 0.51114884E+02</totfact>
</mgrwt>
</event>
<event>
 5    1  0.8891499E-003  0.4247641E+02  0.7546771E-02  0.1600451E+00
          2   -1    0    0  502    0  0.00000000000E+00  0.00000000000E+00  0.10448819653E+03  0.10448819653E+03  0.00000000000E+00 0. -1.
          1   -1    0    0  501    0 -0.00000000000E+00 -0.00000000000E+00 -0.16578293653E+03  0.16578293653E+03  0.00000000000E+00 0. -1.
         25    1    1    2    0    0 -0.35682542008E+02  0.83989505933E+01 -0.11083230769E+03  0.17103387560E+03  0.12500000000E+03 0.  0.
          2    1    1    2  501    0 -0.56594421972E+01 -0.20107700547E+02 -0.12070240612E+02  0.24125497211E+02  0.00000000000E+00 0. -1.
          1    1    1    2  502    0  0.41341984205E+02  0.11708749953E+02  0.61607808305E+02  0.75111760249E+02  0.00000000000E+00 0. -1.
<mgrwt>
<rscale>  0 0.29787383E+02</rscale>
<asrwt>0</asrwt>
<pdfrwt beam="1">  1        2 0.16075107E-01 0.42476405E+02</pdfrwt>
<pdfrwt beam="2">  1        1 0.25505067E-01 0.20888966E+02</pdfrwt>
<totfact> 0.76849997E+03</totfact>
</mgrwt>
</event>
<event>
 5    1  0.8891499E-003  0.2871063E+02  0.7546771E-02  0.1646209E+00
          1   -1    0    0  502    0  0.00000000000E+00  0.00000000000E+00  0.61948601965E+03  0.61948601965E+03  0.00000000000E+00 0. -1.
         -1   -1    0    0    0  501 -0.00000000000E+00 -0.00000000000E+00 -0.41744308281E+02  0.41744308281E+02  0.00000000000E+00 0.  1.
         25    1    1    2    0    0 -0.10602601305E+02  0.69162630817E+01  0.23023434119E+03  0.26228439091E+03  0.12500000000E+03 0.  0.
          2    1    1    2  502    0  0.30049578014E+01 -0.29319649295E+02  0.36706825862E+03  0.36824961383E+03  0.00000000000E+00 0. -1.
         -2    1    1    2    0  501  0.75976435032E+01  0.22403386213E+02 -0.19560888441E+02  0.30696323187E+02  0.00000000000E+00 0.  1.
<mgrwt>
<rscale>  0 0.26061400E+02</rscale>
<asrwt>0</asrwt>
<pdfrwt beam="1">  1        1 0.95305535E-01 0.28710629E+02</pdfrwt>
<pdfrwt beam="2">  1       -1 0.64222017E-02 0.23656625E+02</pdfrwt>
<totfact> 0.34927625E+03</totfact>
</mgrwt>
</event>
<event>
 5    1  0.8891499E-003  0.5604653E+02  0.7546771E-02  0.1474083E+00
          2   -1    0    0  502    0  0.00000000000E+00  0.00000000000E+00  0.81897953403E+03  0.81897953403E+03  0.00000000000E+00 0. -1.
         -2   -1    0    0    0  501 -0.00000000000E+00 -0.00000000000E+00 -0.13234906867E+03  0.13234906867E+03  0.00000000000E+00 0.  1.
         25    1    1    2    0    0  0.17465185877E+02 -0.44238133436E+02  0.27470202828E+02  0.13653445430E+03  0.12500000000E+03 0.  0.
          1    1    1    2  502    0 -0.34240667939E+02 -0.11739641063E+02  0.72549096766E+03  0.72639341040E+03  0.00000000000E+00 0. -1.
         -1    1    1    2    0  501  0.16775482062E+02  0.55977774499E+02 -0.66330705134E+02  0.88400738005E+02  0.00000000000E+00 0.  1.
<mgrwt>
<rscale>  0 0.45041440E+02</rscale>
<asrwt>0</asrwt>
<pdfrwt beam="1">  1        2 0.12599685E+00 0.36197272E+02</pdfrwt>
<pdfrwt beam="2">  1       -2 0.20361396E-01 0.56046525E+02</pdfrwt>
<totfact> 0.72002581E+02</totfact>
</mgrwt>
</event>
<event>
 5    1  0.8891499E-003  0.6303405E+02  0.7546771E-02  0.1404161E+00
          2   -1    0    0  502    0  0.00000000000E+00  0.00000000000E+00  0.47411126300E+03  0.47411126300E+03  0.00000000000E+00 0. -1.
          1   -1    0    0  501    0 -0.00000000000E+00 -0.00000000000E+00 -0.63019849646E+03  0.63019849646E+03  0.00000000000E+00 0. -1.
         25    1    1    2    0    0 -0.71147270103E+02  0.46517717293E+02  0.20123894754E+02  0.15249853509E+03  0.12500000000E+03 0.  0.
          2    1    1    2  501    0  0.18567874311E+02 -0.60176059856E+02 -0.56033610588E+03  0.56386388046E+03  0.00000000000E+00 0. -1.
          1    1    1    2  502    0  0.52579395792E+02  0.13658342563E+02  0.38412497766E+03  0.38794734391E+03  0.00000000000E+00 0. -1.
<mgrwt>
<rscale>  0 0.58517421E+02</rscale>
<asrwt>0</asrwt>
<pdfrwt beam="1">  1        2 0.72940194E-01 0.54324425E+02</pdfrwt>
<pdfrwt beam="2">  1        1 0.96953615E-01 0.63034050E+02</pdfrwt>
<totfact> 0.31827275E+02</totfact>
</mgrwt>
</event>
<event>
 5    1  0.8891499E-003  0.4389228E+02  0.7546771E-02  0.1510043E+00
         -1   -1    0    0    0  501 -0.00000000000E+00  0.00000000000E+00  0.21369841681E+04  0.21369841681E+04  0.00000000000E+00 0.  1.
          1   -1    0    0  502    0  0.00000000000E+00 -0.00000000000E+00 -0.56773819597E+01  0.56773819597E+01  0.00000000000E+00 0. -1.
         25    1    1    2    0    0 -0.20837745077E+02  0.65559460936E+01  0.11439767766E+04  0.11509930744E+04  0.12500000000E+03 0.  0.
          2    1    1    2  502    0  0.32533698265E+02  0.35749339239E+02  0.56492012326E+03  0.56698430529E+03  0.00000000000E+00 0.  1.
         -2    1    1    2    0  501 -0.11695953188E+02 -0.42305285333E+02  0.42240988632E+03  0.42468417036E+03  0.00000000000E+00 0. -1.
<mgrwt>
<rscale>  0 0.39752155E+02</rscale>
<asrwt>0</asrwt>
<pdfrwt beam="2">  1        1 0.87344508E-03 0.36002545E+02</pdfrwt>
<pdfrwt beam="1">  1       -1 0.32876615E+00 0.43892283E+02</pdfrwt>
<totfact> 0.46161731E+02</totfact>
</mgrwt>
</event>
<event>
 5    1  0.8891499E-003  0.2106563E+03  0.7546771E-02  0.1343424E+00
         -2   -1    0    0    0  501 -0.00000000000E+00  0.00000000000E+00  0.73224309652E+03  0.73224309652E+03  0.00000000000E+00 0.  1.
          2   -1    0    0  502    0  0.00000000000E+00 -0.00000000000E+00 -0.85050533168E+03  0.85050533168E+03  0.00000000000E+00 0. -1.
         25    1    1    2    0    0 -0.18387429207E+03 -0.94868563081E+02 -0.29118849331E+02  0.24348040359E+03  0.12500000000E+03 0.  0.
          1    1    1    2  502    0  0.17416052432E+03  0.11985191040E+03 -0.69825900158E+03  0.72956288416E+03  0.00000000000E+00 0. -1.
         -1    1    1    2    0  501  0.97137677491E+01 -0.24983347321E+02  0.60911561576E+03  0.60970514044E+03  0.00000000000E+00 0.  1.
<mgrwt>
<rscale>  0 0.75144586E+02</rscale>
<asrwt>0</asrwt>
<pdfrwt beam="2">  1        2 0.13084697E+00 0.21065631E+03</pdfrwt>
<pdfrwt beam="1">  1       -2 0.11265278E+00 0.26805315E+02</pdfrwt>
<totfact> 0.23356402E+01</totfact>
</mgrwt>
</event>
<event>
 5    1  0.8891499E-003  0.7249096E+02  0.7546771E-02  0.1420362E+00
          2   -1    0    0  502    0  0.00000000000E+00  0.00000000000E+00  0.13424171964E+04  0.13424171964E+04  0.00000000000E+00 0. -1.
          1   -1    0    0  501    0 -0.00000000000E+00 -0.00000000000E+00 -0.41169869900E+02  0.41169869900E+02  0.00000000000E+00 0. -1.
         25    1    1    2    0    0 -0.33367676934E+02  0.25776170324E+02  0.46215165126E+03  0.48061102941E+03  0.12500000000E+03 0.  0.
          2    1    1    2  501    0 -0.41625615176E+02 -0.12710775655E+01 -0.15730402094E+02  0.44516884741E+02  0.00000000000E+00 0. -1.
          1    1    1    2  502    0  0.74993292110E+02 -0.24505092759E+02  0.85482607735E+03  0.85845915218E+03  0.00000000000E+00 0. -1.
<mgrwt>
<rscale>  0 0.54944403E+02</rscale>
<asrwt>0</asrwt>
<pdfrwt beam="1">  1        2 0.20652569E+00 0.72490962E+02</pdfrwt>
<pdfrwt beam="2">  1        1 0.63338272E-02 0.41645017E+02</pdfrwt>
<totfact> 0.25434964E+03</totfact>
</mgrwt>
</event>
<event>
 5    1  0.8891499E-003  0.1093564E+03  0.7546771E-02  0.1265755E+00
          2   -1    0    0  502    0  0.00000000000E+00  0.00000000000E+00  0.40928777407E+03  0.40928777407E+03  0.00000000000E+00 0. -1.
         -2   -1    0    0    0  501 -0.00000000000E+00 -0.00000000000E+00 -0.16407233000E+03  0.16407233000E+03  0.00000000000E+00 0.  1.
         25    1    1    2    0    0 -0.46173167817E+02  0.11015864735E+03  0.12463694804E+03  0.21313436567E+03  0.12500000000E+03 0.  0.
          1    1    1    2  502    0 -0.62225351856E+02 -0.95716350034E+02  0.19638924860E+03  0.22716150872E+03  0.00000000000E+00 0. -1.
         -1    1    1    2    0  501  0.10839851967E+03 -0.14442297312E+02 -0.75810752566E+02  0.13306422969E+03  0.00000000000E+00 0.  1.
<mgrwt>
<rscale>  0 0.10724688E+03</rscale>
<asrwt>0</asrwt>
<pdfrwt beam="1">  1        2 0.62967350E-01 0.10517806E+03</pdfrwt>
<pdfrwt beam="2">  1       -2 0.25241897E-01 0.10935639E+03</pdfrwt>
<totfact> 0.10743733E+03</totfact>
</mgrwt>
</event>
<event>
 5    1  0.8891499E-003  0.4114146E+02  0.7546771E-02  0.1514200E+00
          2   -1    0    0  502    0  0.00000000000E+00  0.00000000000E+00  0.99957467248E+03  0.99957467248E+03  0.00000000000E+00 0. -1.
          1   -1    0    0  501    0 -0.00000000000E+00 -0.00000000000E+00 -0.32338547548E+02  0.32338547548E+02  0.00000000000E+00 0. -1.
         25    1    1    2    0    0 -0.41615483379E+02  0.62946806301E+02  0.40366044134E+03  0.42925621811E+03  0.12500000000E+03 0.  0.
          2    1    1    2  501    0  0.14505213566E+02 -0.34413701340E+02 -0.36202374737E+00  0.37347491506E+02  0.00000000000E+00 0. -1.
          1    1    1    2  502    0  0.27110269813E+02 -0.28533104960E+02  0.56393770733E+03  0.56530951041E+03  0.00000000000E+00 0. -1.
<mgrwt>
<rscale>  0 0.39197680E+02</rscale>
<asrwt>0</asrwt>
<pdfrwt beam="1">  1        2 0.15378070E+00 0.41141460E+02</pdfrwt>
<pdfrwt beam="2">  1        1 0.49751619E-02 0.37345737E+02</pdfrwt>
<totfact> 0.54537136E+03</totfact>
</mgrwt>
</event>
<event>
 5    1  0.8891499E-003  0.5741700E+02  0.7546771E-02  0.1461537E+00
          1   -1    0    0  501    0 -0.00000000000E+00  0.00000000000E+00  0.10817002198E+03  0.10817002198E+03  0.00000000000E+00 0. -1.
          2   -1    0    0  502    0  0.00000000000E+00 -0.00000000000E+00 -0.86839468350E+03  0.86839468350E+03  0.00000000000E+00 0. -1.
         25    1    1    2    0    0  0.47218199651E+02  0.21204808776E+02 -0.20247709631E+03  0.24351832954E+03  0.12500000000E+03 0.  0.
          2    1    1    2  501    0 -0.22135687526E+02  0.31703266474E+02  0.81981967706E+02  0.90642864012E+02  0.00000000000E+00 0. -1.
          1    1    1    2  502    0 -0.25082512125E+02 -0.52908075250E+02 -0.63972953292E+03  0.64240351192E+03  0.00000000000E+00 0. -1.
<mgrwt>
<rscale>  0 0.47117994E+02</rscale>
<asrwt>0</asrwt>
<pdfrwt beam="2">  1        2 0.13359919E+00 0.57417003E+02</pdfrwt>
<pdfrwt beam="1">  1        1 0.16641541E-01 0.38666339E+02</pdfrwt>
<totfact> 0.13798636E+03</totfact>
</mgrwt>
</event>
<event>
 5    1  0.8891499E-003  0.6097206E+02  0.7546771E-02  0.1472459E+00
          1   -1    0    0  501    0 -0.00000000000E+00  0.00000000000E+00  0.11121849048E+03  0.11121849048E+03  0.00000000000E+00 0. -1.
          2   -1    0    0  502    0  0.00000000000E+00 -0.00000000000E+00 -0.11606438862E+04  0.11606438862E+04  0.00000000000E+00 0. -1.
         25    1    1    2    0    0  0.16587450436E+02 -0.92530324053E+02 -0.67775036042E+02  0.17045662173E+03  0.12500000000E+03 0.  0.
          2    1    1    2  501    0 -0.43224871463E+01  0.33382089346E+02  0.54196547810E+02  0.63799009230E+02  0.00000000000E+00 0. -1.
          1    1    1    2  502    0 -0.12264963290E+02  0.59148234707E+02 -0.10358469075E+04  0.10376067458E+04  0.00000000000E+00 0. -1.
<mgrwt>
<rscale>  0 0.45303054E+02</rscale>
<asrwt>0</asrwt>
<pdfrwt beam="2">  1        2 0.17856060E+00 0.60972057E+02</pdfrwt>
<pdfrwt beam="1">  1        1 0.17110537E-01 0.33660775E+02</pdfrwt>
<totfact> 0.89718706E+02</totfact>
</mgrwt>
</event>
<event>
 5    1  0.8891499E-003  0.9418171E+02  0.7546771E-02  0.1430577E+00
          1   -1    0    0  501    0 -0.00000000000E+00  0.00000000000E+00  0.34160134267E+03  0.34160134267E+03  0.00000000000E+00 0. -1.
          2   -1    0    0  502    0  0.00000000000E+00 -0.00000000000E+00 -0.88465837804E+02  0.88465837804E+02  0.00000000000E+00 0. -1.
         25    1    1    2    0    0  0.26027178950E+02  0.71235236687E+02  0.11118062151E+03  0.18367907771E+03  0.12500000000E+03 0.  0.
          2    1    1    2  501    0 -0.50537103973E+02 -0.87920703228E+02  0.17483273453E+03  0.20211515034E+03  0.00000000000E+00 0. -1.
          1    1    1    2  502    0  0.24509925022E+02  0.16685466541E+02 -0.32877851174E+02  0.44272952421E+02  0.00000000000E+00 0. -1.
<mgrwt>
<rscale>  0 0.52844274E+02</rscale>
<asrwt>0</asrwt>
<pdfrwt beam="2">  1        2 0.13610129E-01 0.29650316E+02</pdfrwt>
<pdfrwt beam="1">  1        1 0.52554052E-01 0.94181705E+02</pdfrwt>
<totfact> 0.39266343E+03</totfact>
</mgrwt>
</event>
<event>
 5    1  0.8891499E-003  0.3940800E+02  0.7546771E-02  0.1534680E+00
          2   -1    0    0  502    0  0.00000000000E+00  0.00000000000E+00  0.40060002421E+03  0.40060002421E+03  0.00000000000E+00 0. -1.
          1   -1    0    0  501    0 -0.00000000000E+00 -0.00000000000E+00 -0.10430435104E+03  0.10430435104E+03  0.00000000000E+00 0. -1.
         25    1    1    2    0    0  0.13741634766E+02  0.49681141128E+01  0.81743308852E+02  0.15006826189E+03  0.12500000000E+03 0.  0.
          2    1    1    2  501    0 -0.18168296144E+01  0.33978075349E+02 -0.64447601147E+02  0.72878692139E+02  0.00000000000E+00 0. -1.
          1    1    1    2  502    0 -0.11924805152E+02 -0.38946189462E+02  0.27899996547E+03  0.28195742122E+03  0.00000000000E+00 0. -1.
<mgrwt>
<rscale>  0 0.36618586E+02</rscale>
<asrwt>0</asrwt>
<pdfrwt beam="1">  1        2 0.61630772E-01 0.39408001E+02</pdfrwt>
<pdfrwt beam="2">  1        1 0.16046823E-01 0.34026614E+02</pdfrwt>
<totfact> 0.33698640E+03</totfact>
</mgrwt>
</event>
<event>
 5    1  0.8891499E-003  0.2896759E+03  0.7546771E-02  0.1116039E+00
          2   -1    0    0  502    0  0.00000000000E+00  0.00000000000E+00  0.30946249342E+04  0.30946249342E+04  0.00000000000E+00 0. -1.
         -2   -1    0    0    0  501 -0.00000000000E+00 -0.00000000000E+00 -0.24255372229E+03  0.24255372229E+03  0.00000000000E+00 0.  1.
         25    1    1    2    0    0  0.19327567683E+03 -0.25248298783E+03  0.20509443881E+03  0.39848698251E+03  0.12500000000E+03 0.  0.
          1    1    1    2  502    0  0.11246803718E+02  0.29268236645E+03  0.27062010075E+04  0.27220053915E+04  0.00000000000E+00 0. -1.
         -1    1    1    2    0  501 -0.20452248054E+03 -0.40199378625E+02 -0.59224234400E+02  0.21668628251E+03  0.00000000000E+00 0.  1.
<mgrwt>
<rscale>  0 0.24572097E+03</rscale>
<asrwt>0</asrwt>
<pdfrwt beam="1">  1        2 0.47609612E+00 0.28967590E+03</pdfrwt>
<pdfrwt beam="2">  1       -2 0.37315959E-01 0.20843569E+03</pdfrwt>
<totfact> 0.12469146E+01</totfact>
</mgrwt>
</event>
<event>
 5    1  0.8891499E-003  0.1432076E+03  0.7546771E-02  0.1230779E+00
         -1   -1    0    0    0  501 -0.00000000000E+00  0.00000000000E+00  0.12100430246E+04  0.12100430246E+04  0.00000000000E+00 0.  1.
          1   -1    0    0  502    0  0.00000000000E+00 -0.00000000000E+00 -0.66943772479E+03  0.66943772479E+03  0.00000000000E+00 0. -1.
         25    1    1    2    0    0 -0.69696597970E+02 -0.10127364478E+03 -0.15501832028E+03  0.23402915741E+03  0.12500000000E+03 0.  0.
          2    1    1    2  502    0 -0.74214864297E+02  0.86566557794E+02 -0.46350835174E+03  0.47732756797E+03  0.00000000000E+00 0. -1.
         -2    1    1    2    0  501  0.14391146227E+03  0.14707086982E+02  0.11591319719E+04  0.11681240240E+04  0.00000000000E+00 0.  1.
<mgrwt>
<rscale>  0 0.12778572E+03</rscale>
<asrwt>0</asrwt>
<pdfrwt beam="2">  1        1 0.10299042E+00 0.11402462E+03</pdfrwt>
<pdfrwt beam="1">  1       -1 0.18616047E+00 0.14320757E+03</pdfrwt>
<totfact> 0.68944874E+00</totfact>
</mgrwt>
</event>
<event>
 5    1  0.8891499E-003  0.8133781E+02  0.7546771E-02  0.1375324E+00
          1   -1    0    0  501    0 -0.00000000000E+00  0.00000000000E+00  0.23836719501E+04  0.23836719501E+04  0.00000000000E+00 0. -1.
          2   -1    0    0  502    0  0.00000000000E+00 -0.00000000000E+00 -0.24537692425E+04  0.24537692425E+04  0.00000000000E+00 0. -1.
         25    1    1    2    0    0 -0.36924442760E+02 -0.94459881000E+02 -0.18563058457E+03  0.24570266079E+03  0.12500000000E+03 0.  0.
          2    1    1    2  501    0 -0.27692702183E+02  0.45287661757E+02  0.23525999294E+04  0.23531987349E+04  0.00000000000E+00 0. -1.
          1    1    1    2  502    0  0.64617144943E+02  0.49172219244E+02 -0.22370666373E+04  0.22385397969E+04  0.00000000000E+00 0. -1.
<mgrwt>
<rscale>  0 0.65709176E+02</rscale>
<asrwt>0</asrwt>
<pdfrwt beam="2">  1        2 0.37750296E+00 0.81337813E+02</pdfrwt>
<pdfrwt beam="1">  1        1 0.36671876E+00 0.53083501E+02</pdfrwt>
<totfact> 0.16271866E+00</totfact>
</mgrwt>
</event>
<event>
 5    1  0.8891499E-003  0.9142532E+02  0.7546771E-02  0.1453639E+00
          2   -1    0    0  502    0  0.00000000000E+00  0.00000000000E+00  0.90318189286E+03  0.90318189286E+03  0.00000000000E+00 0. -1.
         -2   -1    0    0    0  501 -0.00000000000E+00 -0.00000000000E+00 -0.10844245915E+03  0.10844245915E+03  0.00000000000E+00 0.  1.
         25    1    1    2    0    0  0.17884745513E+02 -0.64776111147E+02  0.36137724992E+03  0.38824518730E+03  0.12500000000E+03 0.  0.
          1    1    1    2  502    0  0.80786990159E+01 -0.24420506886E+02  0.50525618895E+03  0.50591050889E+03  0.00000000000E+00 0. -1.
         -1    1    1    2    0  501 -0.25963444529E+02  0.89196618033E+02 -0.71894005166E+02  0.11746865582E+03  0.00000000000E+00 0.  1.
<mgrwt>
<rscale>  0 0.48493828E+02</rscale>
<asrwt>0</asrwt>
<pdfrwt beam="1">  1        2 0.13895106E+00 0.25722102E+02</pdfrwt>
<pdfrwt beam="2">  1       -2 0.16683456E-01 0.91425319E+02</pdfrwt>
<totfact> 0.92452555E+02</totfact>
</mgrwt>
</event>
<event>
 5    1  0.8891499E-003  0.6682895E+02  0.7546771E-02  0.1487023E+00
          2   -1    0    0  502    0  0.00000000000E+00  0.00000000000E+00  0.86488441655E+03  0.86488441655E+03  0.00000000000E+00 0. -1.
          1   -1    0    0  501    0 -0.00000000000E+00 -0.00000000000E+00 -0.12961369854E+03  0.12961369854E+03  0.00000000000E+00 0. -1.
         25    1    1    2    0    0 -0.10325578496E+02 -0.62150443834E+02  0.75387623537E+02  0.15898927329E+03  0.12500000000E+03 0.  0.
          2    1    1    2  501    0  0.37457627904E+02  0.56533812276E+02 -0.74418925360E+02  0.10068427022E+03  0.00000000000E+00 0. -1.
          1    1    1    2  502    0 -0.27132049408E+02  0.56166315571E+01  0.73430201983E+03  0.73482457157E+03  0.00000000000E+00 0. -1.
<mgrwt>
<rscale>  0 0.43030803E+02</rscale>
<asrwt>0</asrwt>
<pdfrwt beam="1">  1        2 0.13305914E+00 0.27707303E+02</pdfrwt>
<pdfrwt beam="2">  1        1 0.19940569E-01 0.66828952E+02</pdfrwt>
<totfact> 0.11743803E+03</totfact>
</mgrwt>
</event>
<event>
 5    1  0.8891499E-003  0.7242430E+02  0.7546771E-02  0.1382155E+00
          1   -1    0    0  501    0 -0.00000000000E+00  0.00000000000E+00  0.19238403293E+03  0.19238403293E+03  0.00000000000E+00 0. -1.
          2   -1    0    0  502    0  0.00000000000E+00 -0.00000000000E+00 -0.40338473830E+03  0.40338473830E+03  0.00000000000E+00 0. -1.
         25    1    1    2    0    0  0.10822554870E+03  0.82616988931E+01 -0.26895642738E+03  0.31582207790E+03  0.12500000000E+03 0.  0.
          2    1    1    2  501    0 -0.53465006536E+02  0.17894895656E+02  0.15530973158E+03  0.16522665323E+03  0.00000000000E+00 0. -1.
          3    1    1    2  502    0 -0.54760542167E+02 -0.26156594549E+02 -0.97354009572E+02  0.11472004008E+03  0.00000000000E+00 0. -1.
<mgrwt>
<rscale>  0 0.63900715E+02</rscale>
<asrwt>0</asrwt>
<pdfrwt beam="2">  1        2 0.62059190E-01 0.72424303E+02</pdfrwt>
<pdfrwt beam="1">  1        1 0.29597544E-01 0.56380264E+02</pdfrwt>
<totfact> 0.16200826E+03</totfact>
</mgrwt>
</event>
<event>
 5    1  0.8891499E-003  0.1053748E+03  0.7546771E-02  0.1302870E+00
         -2   -1    0    0    0  501 -0.00000000000E+00  0.00000000000E+00  0.69307242684E+02  0.69307242684E+02  0.00000000000E+00 0.  1.
          2   -1    0    0  502    0  0.00000000000E+00 -0.00000000000E+00 -0.40084104933E+04  0.40084104933E+04  0.00000000000E+00 0. -1.
         25    1    1    2    0    0 -0.79249943061E+01 -0.39320578037E+02 -0.55065815974E+03  0.56609038349E+03  0.12500000000E+03 0.  0.
          1    1    1    2  502    0 -0.57129557022E+02 -0.51410356788E+02 -0.33986498841E+04  0.33995187668E+04  0.00000000000E+00 0. -1.
         -1    1    1    2    0  501  0.65054551328E+02  0.90730934824E+02  0.10204793228E+02  0.11210858570E+03  0.00000000000E+00 0.  1.
<mgrwt>
<rscale>  0 0.89992576E+02</rscale>
<asrwt>0</asrwt>
<pdfrwt beam="2">  1        2 0.61667836E+00 0.76855781E+02</pdfrwt>
<pdfrwt beam="1">  1       -2 0.10662656E-01 0.10537482E+03</pdfrwt>
<totfact> 0.32638438E+01</totfact>
</mgrwt>
</event>
<event>
 5    1  0.8891499E-003  0.9802985E+02  0.7546771E-02  0.1447918E+00
         -1   -1    0    0    0  501 -0.00000000000E+00  0.00000000000E+00  0.36130538591E+02  0.36130538591E+02  0.00000000000E+00 0.  1.
          1   -1    0    0  502    0  0.00000000000E+00 -0.00000000000E+00 -0.68594912026E+03  0.68594912026E+03  0.00000000000E+00 0. -1.
         25    1    1    2    0    0 -0.48730933100E+01  0.10416757682E+03 -0.25036072548E+03  0.29863041366E+03  0.12500000000E+03 0.  0.
          2    1    1    2  502    0  0.27318036961E+02 -0.93110712125E+02 -0.37871434163E+03  0.39094811984E+03  0.00000000000E+00 0. -1.
         -2    1    1    2    0  501 -0.22444943651E+02 -0.11056864698E+02 -0.20743514559E+02  0.32501125345E+02  0.00000000000E+00 0.  1.
<mgrwt>
<rscale>  0 0.49525390E+02</rscale>
<asrwt>0</asrwt>
<pdfrwt beam="2">  1        1 0.10553064E+00 0.98029847E+02</pdfrwt>
<pdfrwt beam="1">  1       -1 0.55585441E-02 0.25020587E+02</pdfrwt>
<totfact> 0.35922212E+03</totfact>
</mgrwt>
</event>
<event>
 5    1  0.8891499E-003  0.9052957E+02  0.7546771E-02  0.1454368E+00
          1   -1    0    0  501    0 -0.00000000000E+00  0.00000000000E+00  0.24364051262E+03  0.24364051262E+03  0.00000000000E+00 0. -1.
          2   -1    0    0  502    0  0.00000000000E+00 -0.00000000000E+00 -0.67112727734E+03  0.67112727734E+03  0.00000000000E+00 0. -1.
         25    1    1    2    0    0  0.28066146229E+02  0.62855343945E+02 -0.16309248965E+01  0.14271006532E+03  0.12500000000E+03 0.  0.
          2    1    1    2  501    0 -0.42350509865E+02 -0.84385947051E+02  0.15992014793E+03  0.18571216293E+03  0.00000000000E+00 0. -1.
          1    1    1    2  502    0  0.14284363636E+02  0.21530603106E+02 -0.58577598776E+03  0.58634556172E+03  0.00000000000E+00 0. -1.
<mgrwt>
<rscale>  0 0.48364412E+02</rscale>
<asrwt>0</asrwt>
<pdfrwt beam="2">  1        2 0.10325035E+00 0.25838148E+02</pdfrwt>
<pdfrwt beam="1">  1        1 0.37483156E-01 0.90529565E+02</pdfrwt>
<totfact> 0.72667104E+02</totfact>
</mgrwt>
</event>
<event>
 5    1  0.8891499E-003  0.6168904E+02  0.7546771E-02  0.1472585E+00
          2   -1    0    0  502    0  0.00000000000E+00  0.00000000000E+00  0.61877064021E+03  0.61877064021E+03  0.00000000000E+00 0. -1.
         -2   -1    0    0    0  501 -0.00000000000E+00 -0.00000000000E+00 -0.83993212230E+02  0.83993212230E+02  0.00000000000E+00 0.  1.
         25    1    1    2    0    0 -0.82093968739E+02  0.34463039493E+02  0.11278477333E+03  0.19045347435E+03  0.12500000000E+03 0.  0.
          1    1    1    2  502    0  0.33133755703E+02 -0.26496014384E+01  0.44740039267E+03  0.44863345564E+03  0.00000000000E+00 0. -1.
         -1    1    1    2    0  501  0.48960213036E+02 -0.31813438054E+02 -0.25407738029E+02  0.63676922453E+02  0.00000000000E+00 0.  1.
<mgrwt>
<rscale>  0 0.45282606E+02</rscale>
<asrwt>0</asrwt>
<pdfrwt beam="1">  1        2 0.95195480E-01 0.33239527E+02</pdfrwt>
<pdfrwt beam="2">  1       -2 0.12922033E-01 0.61689037E+02</pdfrwt>
<totfact> 0.20699705E+03</totfact>
</mgrwt>
</event>
<event>
 5    1  0.8891499E-003  0.4278783E+02  0.7546771E-02  0.1550556E+00
          1   -1    0    0  501    0 -0.00000000000E+00  0.00000000000E+00  0.16465458781E+03  0.16465458781E+03  0.00000000000E+00 0. -1.
          2   -1    0    0  502    0  0.00000000000E+00 -0.00000000000E+00 -0.15259586720E+04  0.15259586720E+04  0.00000000000E+00 0. -1.
         25    1    1    2    0    0  0.31622676650E+02 -0.20605830269E+02 -0.23616536412E+03  0.26985861692E+03  0.12500000000E+03 0.  0.
          2    1    1    2  501    0  0.11127261299E+02  0.25990339428E+02  0.14608766305E+03  0.14879824927E+03  0.00000000000E+00 0. -1.
          1    1    1    2  502    0 -0.42749937949E+02 -0.53845091589E+01 -0.12712263832E+04  0.12719563937E+04  0.00000000000E+00 0. -1.
<mgrwt>
<rscale>  0 0.34780789E+02</rscale>
<asrwt>0</asrwt>
<pdfrwt beam="2">  1        2 0.23476287E+00 0.42787828E+02</pdfrwt>
<pdfrwt beam="1">  1        1 0.25331476E-01 0.28272136E+02</pdfrwt>
<totfact> 0.37103160E+02</totfact>
</mgrwt>
</event>
<event>
 5    1  0.8891499E-003  0.8375636E+02  0.7546771E-02  0.1395631E+00
          1   -1    0    0  501    0 -0.00000000000E+00  0.00000000000E+00  0.13677766349E+04  0.13677766349E+04  0.00000000000E+00 0. -1.
          2   -1    0    0  502    0  0.00000000000E+00 -0.00000000000E+00 -0.98392733668E+03  0.98392733668E+03  0.00000000000E+00 0. -1.
         25    1    1    2    0    0  0.83198709368E+02 -0.35719126637E+02 -0.30401616569E+02  0.15731223582E+03  0.12500000000E+03 0.  0.
          2    1    1    2  501    0 -0.51647019508E+02  0.66013712178E+02  0.13024360329E+04  0.13051302022E+04  0.00000000000E+00 0. -1.
          1    1    1    2  502    0 -0.31551689860E+02 -0.30294585542E+02 -0.88818511812E+03  0.88926153357E+03  0.00000000000E+00 0. -1.
<mgrwt>
<rscale>  0 0.60527541E+02</rscale>
<asrwt>0</asrwt>
<pdfrwt beam="2">  1        2 0.15137344E+00 0.43740954E+02</pdfrwt>
<pdfrwt beam="1">  1        1 0.21042717E+00 0.83756364E+02</pdfrwt>
<totfact> 0.39273024E+01</totfact>
</mgrwt>
</event>
<event>
 5    1  0.8891499E-003  0.1169207E+03  0.7546771E-02  0.1267389E+00
          2   -1    0    0  502    0  0.00000000000E+00  0.00000000000E+00  0.16622254877E+04  0.16622254877E+04  0.00000000000E+00 0. -1.
          1   -1    0    0  501    0 -0.00000000000E+00 -0.00000000000E+00 -0.39968472054E+03  0.39968472054E+03  0.00000000000E+00 0. -1.
         25    1    1    2    0    0 -0.25792331502E+02 -0.16991853668E+02  0.69520971053E+02  0.14632885181E+03  0.12500000000E+03 0.  0.
          2    1    1    2  501    0 -0.96486354896E+02  0.80593203676E+01 -0.35232186207E+03  0.36538372134E+03  0.00000000000E+00 0. -1.
          1    1    1    2  502    0  0.12227868640E+03  0.89325333007E+01  0.15453416582E+04  0.15501976351E+04  0.00000000000E+00 0. -1.
<mgrwt>
<rscale>  0 0.10639804E+03</rscale>
<asrwt>0</asrwt>
<pdfrwt beam="1">  1        2 0.25572699E+00 0.11692074E+03</pdfrwt>
<pdfrwt beam="2">  1        1 0.61489958E-01 0.96822360E+02</pdfrwt>
<totfact> 0.10142061E+02</totfact>
</mgrwt>
</event>
<event>
 5    1  0.8891499E-003  0.1078421E+03  0.7546771E-02  0.1298918E+00
          2   -1    0    0  502    0  0.00000000000E+00  0.00000000000E+00  0.17160108466E+03  0.17160108466E+03  0.00000000000E+00 0. -1.
          1   -1    0    0  501    0 -0.00000000000E+00 -0.00000000000E+00 -0.31698134465E+03  0.31698134465E+03  0.00000000000E+00 0. -1.
         25    1    1    2    0    0  0.15862676108E+02 -0.14361322072E+03 -0.11970969651E+03  0.22545907189E+03  0.12500000000E+03 0.  0.
          2    1    1    2  501    0  0.41148639246E+02  0.90557167398E+02 -0.11002065317E+03  0.14831842502E+03  0.00000000000E+00 0. -1.
          1    1    1    2  502    0 -0.57011315353E+02  0.53056053322E+02  0.84350089689E+02  0.11480493240E+03  0.00000000000E+00 0. -1.
<mgrwt>
<rscale>  0 0.91644419E+02</rscale>
<asrwt>0</asrwt>
<pdfrwt beam="1">  1        2 0.26400167E-01 0.77879618E+02</pdfrwt>
<pdfrwt beam="2">  1        1 0.48766360E-01 0.10784207E+03</pdfrwt>
<totfact> 0.21783311E+03</totfact>
</mgrwt>
</event>
<event>
 5    1  0.8891499E-003  0.1126194E+03  0.7546771E-02  0.1433664E+00
         -1   -1    0    0    0  501 -0.00000000000E+00  0.00000000000E+00  0.30610960296E+03  0.30610960296E+03  0.00000000000E+00 0.  1.
          1   -1    0    0  502    0  0.00000000000E+00 -0.00000000000E+00 -0.40338017784E+03  0.40338017784E+03  0.00000000000E+00 0. -1.
         25    1    1    2    0    0 -0.10794144015E+03 -0.68118706925E+02  0.12886155457E+03  0.22027667371E+03  0.12500000000E+03 0.  0.
          2    1    1    2  502    0  0.10272641876E+03  0.44462357846E+02 -0.34769039667E+03  0.36526460314E+03  0.00000000000E+00 0. -1.
         -2    1    1    2    0  501  0.52150213985E+01  0.23656349079E+02  0.12155826721E+03  0.12394850394E+03  0.00000000000E+00 0.  1.
<mgrwt>
<rscale>  0 0.52231523E+02</rscale>
<asrwt>0</asrwt>
<pdfrwt beam="2">  1        1 0.62058489E-01 0.11261939E+03</pdfrwt>
<pdfrwt beam="1">  1       -1 0.47093785E-01 0.24224353E+02</pdfrwt>
<totfact> 0.28136546E+02</totfact>
</mgrwt>
</event>
<event>
 5    1  0.8891499E-003  0.8387883E+02  0.7546771E-02  0.1429300E+00
          2   -1    0    0  502    0  0.00000000000E+00  0.00000000000E+00  0.58584071715E+03  0.58584071715E+03  0.00000000000E+00 0. -1.
          1   -1    0    0  501    0 -0.00000000000E+00 -0.00000000000E+00 -0.52476009239E+03  0.52476009239E+03  0.00000000000E+00 0. -1.
         25    1    1    2    0    0 -0.73043629836E+02 -0.28895512625E+02 -0.19913254616E+02  0.14896932644E+03  0.12500000000E+03 0.  0.
          2    1    1    2  501    0  0.84557829510E+02 -0.26874080218E+01 -0.43570388878E+03  0.44384133132E+03  0.00000000000E+00 0. -1.
          1    1    1    2  502    0 -0.11514199674E+02  0.31582920647E+02  0.51669776815E+03  0.51779015178E+03  0.00000000000E+00 0. -1.
<mgrwt>
<rscale>  0 0.53100834E+02</rscale>
<asrwt>0</asrwt>
<pdfrwt beam="1">  1        2 0.90129341E-01 0.33616330E+02</pdfrwt>
<pdfrwt beam="2">  1        1 0.80732322E-01 0.83878832E+02</pdfrwt>
<totfact> 0.32325971E+02</totfact>
</mgrwt>
</event>
<event>
 5    1  0.8891499E-003  0.9788927E+02  0.7546771E-02  0.1400067E+00
          1   -1    0    0  502    0  0.00000000000E+00  0.00000000000E+00  0.18221610745E+04  0.18221610745E+04  0.00000000000E+00 0. -1.
         -1   -1    0    0    0  501 -0.00000000000E+00 -0.00000000000E+00 -0.22582266011E+03  0.22582266011E+03  0.00000000000E+00 0.  1.
         25    1    1    2    0    0  0.89893651831E+01  0.12886670658E+03  0.29614759758E+03  0.34643301849E+03  0.12500000000E+03 0.  0.
          2    1    1    2  502    0  0.11478610839E+02 -0.34258190496E+02  0.14889664092E+04  0.14894046965E+04  0.00000000000E+00 0. -1.
         -2    1    1    2    0  501 -0.20467976022E+02 -0.94608516079E+02 -0.18877559241E+03  0.21214601964E+03  0.00000000000E+00 0.  1.
<mgrwt>
<rscale>  0 0.59470552E+02</rscale>
<asrwt>0</asrwt>
<pdfrwt beam="1">  1        1 0.28033246E+00 0.36130072E+02</pdfrwt>
<pdfrwt beam="2">  1       -1 0.34741949E-01 0.97889275E+02</pdfrwt>
<totfact> 0.44140547E+01</totfact>
</mgrwt>
</event>
<event>
 5    1  0.8891499E-003  0.5807133E+02  0.7546771E-02  0.1499333E+00
          2   -1    0    0  502    0  0.00000000000E+00  0.00000000000E+00  0.22445238943E+04  0.22445238943E+04  0.00000000000E+00 0. -1.
          1   -1    0    0  501    0 -0.00000000000E+00 -0.00000000000E+00 -0.39686648295E+03  0.39686648295E+03  0.00000000000E+00 0. -1.
         25    1    1    2    0    0 -0.25592712252E+02 -0.60198626681E+02  0.33130356079E+03  0.36009153137E+03  0.12500000000E+03 0.  0.
          2    1    1    2  501    0 -0.18626285125E+02  0.22586877470E+02 -0.38146778542E+03  0.38258956709E+03  0.00000000000E+00 0. -1.
          3    1    1    2  502    0  0.44218997378E+02  0.37611749211E+02  0.18978216359E+04  0.18987092788E+04  0.00000000000E+00 0. -1.
<mgrwt>
<rscale>  0 0.41232481E+02</rscale>
<asrwt>0</asrwt>
<pdfrwt beam="1">  1        2 0.34531136E+00 0.58071331E+02</pdfrwt>
<pdfrwt beam="2">  1        1 0.61056384E-01 0.29276365E+02</pdfrwt>
<totfact> 0.57034868E+01</totfact>
</mgrwt>
</event>
<event>
 5    1  0.8891499E-003  0.7334017E+02  0.7546771E-02  0.1385278E+00
         -2   -1    0    0    0  501 -0.00000000000E+00  0.00000000000E+00  0.64049746156E+03  0.64049746156E+03  0.00000000000E+00 0.  1.
          2   -1    0    0  502    0  0.00000000000E+00 -0.00000000000E+00 -0.17102920850E+04  0.17102920850E+04  0.00000000000E+00 0. -1.
         25    1    1    2    0    0 -0.11200141658E+03  0.25282755841E+02 -0.68576930044E+02  0.18306100183E+03  0.12500000000E+03 0.  0.
          1    1    1    2  502    0  0.51948134196E+02  0.15751611046E+02 -0.15817381652E+04  0.15826693733E+04  0.00000000000E+00 0. -1.
         -1    1    1    2    0  501  0.60053282379E+02 -0.41034366887E+02  0.58052047177E+03  0.58505917148E+03  0.00000000000E+00 0.  1.
<mgrwt>
<rscale>  0 0.63096568E+02</rscale>
<asrwt>0</asrwt>
<pdfrwt beam="2">  1        2 0.26312186E+00 0.54283717E+02</pdfrwt>
<pdfrwt beam="1">  1       -2 0.98538071E-01 0.73340167E+02</pdfrwt>
<totfact> 0.11456333E+01</totfact>
</mgrwt>
</event>
<event>
 5    1  0.8891499E-003  0.4262105E+02  0.7546771E-02  0.1578223E+00
          2   -1    0    0  502    0  0.00000000000E+00  0.00000000000E+00  0.14799417414E+04  0.14799417414E+04  0.00000000000E+00 0. -1.
          1   -1    0    0  501    0 -0.00000000000E+00 -0.00000000000E+00 -0.99681439125E+02  0.99681439125E+02  0.00000000000E+00 0. -1.
         25    1    1    2    0    0  0.55311139468E+02 -0.14386908913E+02  0.30094906287E+03  0.33084988097E+03  0.12500000000E+03 0.  0.
          2    1    1    2  501    0 -0.21259312232E+02 -0.10790834827E+02 -0.82660552880E+02  0.86030038215E+02  0.00000000000E+00 0. -1.
          3    1    1    2  502    0 -0.34051827235E+02  0.25177743740E+02  0.11619717923E+04  0.11627432613E+04  0.00000000000E+00 0. -1.
<mgrwt>
<rscale>  0 0.31876872E+02</rscale>
<asrwt>0</asrwt>
<pdfrwt beam="1">  1        2 0.22768333E+00 0.42621054E+02</pdfrwt>
<pdfrwt beam="2">  1        1 0.15335607E-01 0.23841151E+02</pdfrwt>
<totfact> 0.70674054E+02</totfact>
</mgrwt>
</event>
<event>
 5    1  0.8891499E-003  0.1409240E+03  0.7546771E-02  0.1307546E+00
          2   -1    0    0  502    0  0.00000000000E+00  0.00000000000E+00  0.44538266917E+03  0.44538266917E+03  0.00000000000E+00 0. -1.
          1   -1    0    0  501    0 -0.00000000000E+00 -0.00000000000E+00 -0.15041363260E+04  0.15041363260E+04  0.00000000000E+00 0. -1.
         25    1    1    2    0    0  0.58079099469E+02  0.18601730615E+03  0.11065142865E+03  0.25660155620E+03  0.12500000000E+03 0.  0.
          2    1    1    2  501    0 -0.38908566816E+02 -0.13439927512E+03 -0.14248002826E+04  0.14316538992E+04  0.00000000000E+00 0. -1.
          1    1    1    2  502    0 -0.19170532654E+02 -0.51618031034E+02  0.25539519718E+03  0.26126353973E+03  0.00000000000E+00 0. -1.
<mgrwt>
<rscale>  0 0.88089126E+02</rscale>
<asrwt>0</asrwt>
<pdfrwt beam="1">  1        2 0.68520411E-01 0.55062968E+02</pdfrwt>
<pdfrwt beam="2">  1        1 0.23140559E+00 0.14092401E+03</pdfrwt>
<totfact> 0.74436766E+01</totfact>
</mgrwt>
</event>
<event>
 5    1  0.8891499E-003  0.6023508E+02  0.7546771E-02  0.1465827E+00
         -2   -1    0    0    0  501 -0.00000000000E+00  0.00000000000E+00  0.89543549581E+01  0.89543549581E+01  0.00000000000E+00 0.  1.
          2   -1    0    0  502    0  0.00000000000E+00 -0.00000000000E+00 -0.18833138040E+04  0.18833138040E+04  0.00000000000E+00 0. -1.
         25    1    1    2    0    0 -0.51911880218E+02  0.46112865432E+02 -0.12018812006E+04  0.12103572448E+04  0.12500000000E+03 0.  0.
          1    1    1    2  502    0  0.58441268037E+02 -0.10982356797E+02 -0.57541657959E+03  0.57848097120E+03  0.00000000000E+00 0. -1.
         -1    1    1    2    0  501 -0.65293878192E+01 -0.35130508635E+02 -0.97061668869E+02  0.10342994299E+03  0.00000000000E+00 0.  1.
<mgrwt>
<rscale>  0 0.46393191E+02</rscale>
<asrwt>0</asrwt>
<pdfrwt beam="2">  1        2 0.28974048E+00 0.60235083E+02</pdfrwt>
<pdfrwt beam="1">  1       -2 0.13775936E-02 0.35732136E+02</pdfrwt>
<totfact> 0.98349201E+03</totfact>
</mgrwt>
</event>
<event>
 5    1  0.8891499E-003  0.5845029E+02  0.7546771E-02  0.1542496E+00
          2   -1    0    0  502    0  0.00000000000E+00  0.00000000000E+00  0.99084901789E+02  0.99084901789E+02  0.00000000000E+00 0. -1.
          1   -1    0    0  501    0 -0.00000000000E+00 -0.00000000000E+00 -0.12436343246E+04  0.12436343246E+04  0.00000000000E+00 0. -1.
         25    1    1    2    0    0 -0.64090803825E+02 -0.38551175695E+02 -0.40770503779E+03  0.43294598061E+03  0.12500000000E+03 0.  0.
          2    1    1    2  501    0  0.53926224841E+02  0.19264682259E+02 -0.82092113760E+03  0.82291596160E+03  0.00000000000E+00 0. -1.
          1    1    1    2  502    0  0.10164578984E+02  0.19286493436E+02  0.84076752566E+02  0.86857284191E+02  0.00000000000E+00 0. -1.
<mgrwt>
<rscale>  0 0.35697058E+02</rscale>
<asrwt>0</asrwt>
<pdfrwt beam="1">  1        2 0.15243831E-01 0.21801089E+02</pdfrwt>
<pdfrwt beam="2">  1        1 0.19132835E+00 0.58450287E+02</pdfrwt>
<totfact> 0.54908777E+02</totfact>
</mgrwt>
</event>
<event>
 5    1  0.8891499E-003  0.4348373E+02  0.7546771E-02  0.1582505E+00
          2   -1    0    0  502    0  0.00000000000E+00  0.00000000000E+00  0.68524201683E+03  0.68524201683E+03  0.00000000000E+00 0. -1.
          1   -1    0    0  501    0 -0.00000000000E+00 -0.00000000000E+00 -0.70094357845E+03  0.70094357845E+03  0.00000000000E+00 0. -1.
         25    1    1    2    0    0 -0.52773495466E+01  0.60881365419E+02 -0.32840578200E+03  0.35666475678E+03  0.12500000000E+03 0.  0.
          2    1    1    2  501    0 -0.10274624710E+02 -0.20307412308E+02 -0.35734257700E+03  0.35806658075E+03  0.00000000000E+00 0. -1.
          1    1    1    2  502    0  0.15551974256E+02 -0.40573953112E+02  0.67004679739E+03  0.67145425776E+03  0.00000000000E+00 0. -1.
<mgrwt>
<rscale>  0 0.31458444E+02</rscale>
<asrwt>0</asrwt>
<pdfrwt beam="1">  1        2 0.10542185E+00 0.43483734E+02</pdfrwt>
<pdfrwt beam="2">  1        1 0.10783747E+00 0.22758711E+02</pdfrwt>
<totfact> 0.19420842E+02</totfact>
</mgrwt>
</event>
<event>
 5    1  0.8891499E-003  0.6104667E+02  0.7546771E-02  0.1473199E+00
          1   -1    0    0  502    0  0.00000000000E+00  0.00000000000E+00  0.12144903721E+04  0.12144903721E+04  0.00000000000E+00 0. -1.
         -1   -1    0    0    0  501 -0.00000000000E+00 -0.00000000000E+00 -0.17136904678E+03  0.17136904678E+03  0.00000000000E+00 0.  1.
         25    1    1    2    0    0  0.91302646503E+01 -0.30300837215E+02  0.90813424163E+02  0.15771360270E+03  0.12500000000E+03 0.  0.
          2    1    1    2  502    0  0.20207401431E+01  0.61829482587E+02  0.10873073663E+04  0.10890657818E+04  0.00000000000E+00 0. -1.
         -2    1    1    2    0  501 -0.11151004793E+02 -0.31528645372E+02 -0.13499946511E+03  0.13908003439E+03  0.00000000000E+00 0.  1.
<mgrwt>
<rscale>  0 0.45183545E+02</rscale>
<asrwt>0</asrwt>
<pdfrwt beam="1">  1        1 0.18684467E+00 0.61046667E+02</pdfrwt>
<pdfrwt beam="2">  1       -1 0.26364469E-01 0.33442494E+02</pdfrwt>
<totfact> 0.15295031E+02</totfact>
</mgrwt>
</event>
<event>
 5    1  0.8891499E-003  0.9451371E+02  0.7546771E-02  0.1301139E+00
          2   -1    0    0  502    0  0.00000000000E+00  0.00000000000E+00  0.13483826518E+04  0.13483826518E+04  0.00000000000E+00 0. -1.
          1   -1    0    0  501    0 -0.00000000000E+00 -0.00000000000E+00 -0.71916987305E+03  0.71916987305E+03  0.00000000000E+00 0. -1.
         25    1    1    2    0    0 -0.91278496146E+02  0.13475153173E+03 -0.21458376434E+03  0.29691906486E+03  0.12500000000E+03 0.  0.
          2    1    1    2  501    0  0.76382831820E+02 -0.41776957484E+02 -0.45761344726E+03  0.46582155198E+03  0.00000000000E+00 0. -1.
          1    1    1    2  502    0  0.14895664326E+02 -0.92974574241E+02  0.13014099904E+04  0.13048119080E+04  0.00000000000E+00 0. -1.
<mgrwt>
<rscale>  0 0.90710951E+02</rscale>
<asrwt>0</asrwt>
<pdfrwt beam="1">  1        2 0.20744348E+00 0.94513715E+02</pdfrwt>
<pdfrwt beam="2">  1        1 0.11064152E+00 0.87061192E+02</pdfrwt>
<totfact> 0.69435868E+01</totfact>
</mgrwt>
</event>
<event>
 5    1  0.8891499E-003  0.4977743E+02  0.7546771E-02  0.1559579E+00
          2   -1    0    0  502    0  0.00000000000E+00  0.00000000000E+00  0.25822766681E+04  0.25822766681E+04  0.00000000000E+00 0. -1.
          1   -1    0    0  501    0 -0.00000000000E+00 -0.00000000000E+00 -0.49179813094E+03  0.49179813094E+03  0.00000000000E+00 0. -1.
         25    1    1    2    0    0  0.18963866118E+02  0.67487825545E+02  0.10417315964E+04  0.10515436053E+04  0.12500000000E+03 0.  0.
          2    1    1    2  501    0 -0.46806011612E+01 -0.49533464292E+02 -0.48553508134E+03  0.48807764477E+03  0.00000000000E+00 0. -1.
          1    1    1    2  502    0 -0.14283264957E+02 -0.17954361253E+02  0.15342820220E+04  0.15344535490E+04  0.00000000000E+00 0. -1.
<mgrwt>
<rscale>  0 0.33793968E+02</rscale>
<asrwt>0</asrwt>
<pdfrwt beam="1">  1        2 0.39727332E+00 0.22942771E+02</pdfrwt>
<pdfrwt beam="2">  1        1 0.75661253E-01 0.49777434E+02</pdfrwt>
<totfact> 0.34087560E+01</totfact>
</mgrwt>
</event>
<event>
 5    1  0.8891499E-003  0.5948239E+02  0.7546771E-02  0.1423162E+00
          2   -1    0    0  502    0  0.00000000000E+00  0.00000000000E+00  0.12858615685E+04  0.12858615685E+04  0.00000000000E+00 0. -1.
         -2   -1    0    0    0  501 -0.00000000000E+00 -0.00000000000E+00 -0.43937214069E+03  0.43937214069E+03  0.00000000000E+00 0.  1.
         25    1    1    2    0    0 -0.64467181537E+02 -0.55538639245E+02 -0.86748177167E+02  0.17432958494E+03  0.12500000000E+03 0.  0.
          1    1    1    2  502    0  0.14833648644E+02  0.57543977238E+02  0.12393568796E+04  0.12407807306E+04  0.00000000000E+00 0. -1.
         -1    1    1    2    0  501  0.49633532893E+02 -0.20053379925E+01 -0.30611927464E+03  0.31012339363E+03  0.00000000000E+00 0.  1.
<mgrwt>
<rscale>  0 0.54357425E+02</rscale>
<asrwt>0</asrwt>
<pdfrwt beam="1">  1        2 0.19782486E+00 0.59482386E+02</pdfrwt>
<pdfrwt beam="2">  1       -2 0.67595714E-01 0.49674027E+02</pdfrwt>
<totfact> 0.42163691E+01</totfact>
</mgrwt>
</event>
<event>
 5    1  0.8891499E-003  0.5255787E+02  0.7546771E-02  0.1454871E+00
          2   -1    0    0  502    0  0.00000000000E+00  0.00000000000E+00  0.39320878953E+03  0.39320878953E+03  0.00000000000E+00 0. -1.
         -2   -1    0    0    0  501 -0.00000000000E+00 -0.00000000000E+00 -0.10648332676E+03  0.10648332676E+03  0.00000000000E+00 0.  1.
         25    1    1    2    0    0 -0.25138101852E+02  0.64989686215E+02  0.90436805429E+02  0.16929087174E+03  0.12500000000E+03 0.  0.
          1    1    1    2  502    0  0.45666206995E+02 -0.25685575478E+02  0.25302499079E+03  0.25839271897E+03  0.00000000000E+00 0. -1.
         -1    1    1    2    0  501 -0.20528105143E+02 -0.39304110738E+02 -0.56736333457E+02  0.72008525577E+02  0.00000000000E+00 0.  1.
<mgrwt>
<rscale>  0 0.48275489E+02</rscale>
<asrwt>0</asrwt>
<pdfrwt beam="1">  1        2 0.60493659E-01 0.52557866E+02</pdfrwt>
<pdfrwt beam="2">  1       -2 0.16382050E-01 0.44342037E+02</pdfrwt>
<totfact> 0.22217882E+03</totfact>
</mgrwt>
</event>
<event>
 5    1  0.8891499E-003  0.1027586E+03  0.7546771E-02  0.1423769E+00
          1   -1    0    0  501    0 -0.00000000000E+00  0.00000000000E+00  0.25046102691E+03  0.25046102691E+03  0.00000000000E+00 0. -1.
          2   -1    0    0  502    0  0.00000000000E+00 -0.00000000000E+00 -0.13186130127E+04  0.13186130127E+04  0.00000000000E+00 0. -1.
         25    1    1    2    0    0  0.64834415442E+02 -0.96178736856E+02 -0.10827849078E+03  0.20199772873E+03  0.12500000000E+03 0.  0.
          2    1    1    2  501    0  0.10230742448E+02  0.26729947904E+02  0.20033524220E+03  0.20236938374E+03  0.00000000000E+00 0. -1.
          1    1    1    2  502    0 -0.75065157890E+02  0.69448788951E+02 -0.11602087373E+04  0.11647069272E+04  0.00000000000E+00 0. -1.
<mgrwt>
<rscale>  0 0.54231419E+02</rscale>
<asrwt>0</asrwt>
<pdfrwt beam="2">  1        2 0.20286354E+00 0.10275857E+03</pdfrwt>
<pdfrwt beam="1">  1        1 0.38532466E-01 0.28620940E+02</pdfrwt>
<totfact> 0.26971902E+02</totfact>
</mgrwt>
</event>
<event>
 5    1  0.8891499E-003  0.1078760E+03  0.7546771E-02  0.1304182E+00
          2   -1    0    0  502    0  0.00000000000E+00  0.00000000000E+00  0.16353765646E+04  0.16353765646E+04  0.00000000000E+00 0. -1.
          1   -1    0    0  501    0 -0.00000000000E+00 -0.00000000000E+00 -0.37795873763E+03  0.37795873763E+03  0.00000000000E+00 0. -1.
         25    1    1    2    0    0  0.81478775518E+02 -0.99841495539E+02  0.31962105386E+03  0.36659205278E+03  0.12500000000E+03 0.  0.
          2    1    1    2  501    0 -0.73767112787E+02 -0.77806301036E+01 -0.34830879125E+03  0.35611955745E+03  0.00000000000E+00 0. -1.
          1    1    1    2  502    0 -0.77116627310E+01  0.10762212564E+03  0.12861055643E+04  0.12906236920E+04  0.00000000000E+00 0. -1.
<mgrwt>
<rscale>  0 0.89453034E+02</rscale>
<asrwt>0</asrwt>
<pdfrwt beam="1">  1        2 0.25159639E+00 0.10787602E+03</pdfrwt>
<pdfrwt beam="2">  1        1 0.58147499E-01 0.74176311E+02</pdfrwt>
<totfact> 0.11326948E+02</totfact>
</mgrwt>
</event>
<event>
 5    1  0.8891499E-003  0.3667705E+02  0.7546771E-02  0.1565134E+00
          2   -1    0    0  502    0  0.00000000000E+00  0.00000000000E+00  0.79719305113E+03  0.79719305113E+03  0.00000000000E+00 0. -1.
         -2   -1    0    0    0  501 -0.00000000000E+00 -0.00000000000E+00 -0.14952134307E+03  0.14952134307E+03  0.00000000000E+00 0.  1.
         25    1    1    2    0    0  0.20144596669E+02 -0.31457404328E+01  0.21419292282E+02  0.12845032713E+03  0.12500000000E+03 0.  0.
          1    1    1    2  502    0 -0.18254693848E+01 -0.30007961459E+02  0.71819536626E+03  0.71882431386E+03  0.00000000000E+00 0. -1.
         -1    1    1    2    0  501 -0.18319127285E+02  0.33153701892E+02 -0.91942950480E+02  0.99439753201E+02  0.00000000000E+00 0.  1.
<mgrwt>
<rscale>  0 0.33205993E+02</rscale>
<asrwt>0</asrwt>
<pdfrwt beam="1">  1        2 0.12264508E+00 0.30063434E+02</pdfrwt>
<pdfrwt beam="2">  1       -2 0.23003284E-01 0.36677047E+02</pdfrwt>
<totfact> 0.59861528E+02</totfact>
</mgrwt>
</event>
<event>
 5    1  0.8891499E-003  0.9593241E+02  0.7546771E-02  0.1301519E+00
          2   -1    0    0  502    0  0.00000000000E+00  0.00000000000E+00  0.14415154233E+04  0.14415154233E+04  0.00000000000E+00 0. -1.
          1   -1    0    0  501    0 -0.00000000000E+00 -0.00000000000E+00 -0.31950749270E+03  0.31950749270E+03  0.00000000000E+00 0. -1.
         25    1    1    2    0    0  0.10060730962E+03  0.92248418273E+02  0.25062181189E+02  0.18677450134E+03  0.12500000000E+03 0.  0.
          2    1    1    2  501    0 -0.51793565914E+01 -0.85317620074E+02 -0.22921880281E+03  0.24463683613E+03  0.00000000000E+00 0. -1.
          1    1    1    2  502    0 -0.95427953032E+02 -0.69307981990E+01  0.13261645522E+04  0.13296115785E+04  0.00000000000E+00 0. -1.
<mgrwt>
<rscale>  0 0.90552705E+02</rscale>
<asrwt>0</asrwt>
<pdfrwt beam="1">  1        2 0.22177160E+00 0.95932406E+02</pdfrwt>
<pdfrwt beam="2">  1        1 0.49155000E-01 0.85474686E+02</pdfrwt>
<totfact> 0.17642109E+02</totfact>
</mgrwt>
</event>
<event>
 5    1  0.8891499E-003  0.5203559E+02  0.7546771E-02  0.1457874E+00
         -2   -1    0    0    0  501 -0.00000000000E+00  0.00000000000E+00  0.36057412779E+03  0.36057412779E+03  0.00000000000E+00 0.  1.
          2   -1    0    0  502    0  0.00000000000E+00 -0.00000000000E+00 -0.55104095651E+02  0.55104095651E+02  0.00000000000E+00 0. -1.
         25    1    1    2    0    0  0.57165095153E+02 -0.67400351058E+02  0.12330636215E+03  0.19657088893E+03  0.12500000000E+03 0.  0.
          3    1    1    2  502    0 -0.31242249239E+02  0.32075441315E+02  0.16455611250E+02  0.47704289269E+02  0.00000000000E+00 0. -1.
         -3    1    1    2    0  501 -0.25922845914E+02  0.35324909743E+02  0.16570805873E+03  0.17140304524E+03  0.00000000000E+00 0.  1.
<mgrwt>
<rscale>  0 0.47749265E+02</rscale>
<asrwt>0</asrwt>
<pdfrwt beam="2">  1        2 0.84775534E-02 0.52035592E+02</pdfrwt>
<pdfrwt beam="1">  1       -2 0.55472941E-01 0.43816015E+02</pdfrwt>
<totfact> 0.22093668E+03</totfact>
</mgrwt>
</event>
<event>
 5    1  0.8891499E-003  0.1573823E+03  0.7546771E-02  0.1239773E+00
          2   -1    0    0  502    0  0.00000000000E+00  0.00000000000E+00  0.20132109084E+04  0.20132109084E+04  0.00000000000E+00 0. -1.
          1   -1    0    0  501    0 -0.00000000000E+00 -0.00000000000E+00 -0.14928630021E+03  0.14928630021E+03  0.00000000000E+00 0. -1.
         25    1    1    2    0    0  0.33201339839E+02  0.22755131797E+03  0.29084996326E+03  0.39128075905E+03  0.12500000000E+03 0.  0.
          2    1    1    2  501    0 -0.55899459099E+02 -0.76355908605E+02 -0.72090568608E+02  0.11896228137E+03  0.00000000000E+00 0. -1.
          1    1    1    2  502    0  0.22698119260E+02 -0.15119540937E+03  0.16451652135E+04  0.16522541682E+04  0.00000000000E+00 0. -1.
<mgrwt>
<rscale>  0 0.12203771E+03</rscale>
<asrwt>0</asrwt>
<pdfrwt beam="1">  1        2 0.30972474E+00 0.15738231E+03</pdfrwt>
<pdfrwt beam="2">  1        1 0.22967125E-01 0.94630726E+02</pdfrwt>
<totfact> 0.21896282E+02</totfact>
</mgrwt>
</event>
<event>
 5    1  0.8891499E-003  0.6869214E+02  0.7546771E-02  0.1501759E+00
          1   -1    0    0  501    0 -0.00000000000E+00  0.00000000000E+00  0.34735416659E+03  0.34735416659E+03  0.00000000000E+00 0. -1.
          2   -1    0    0  502    0  0.00000000000E+00 -0.00000000000E+00 -0.45098461151E+03  0.45098461151E+03  0.00000000000E+00 0. -1.
         25    1    1    2    0    0  0.46344500154E+02  0.15323125257E+02 -0.14879728542E+03  0.20037026479E+03  0.12500000000E+03 0.  0.
          2    1    1    2  501    0 -0.58938936715E+02 -0.36152446153E+02  0.31730139240E+03  0.32474755002E+03  0.00000000000E+00 0. -1.
          1    1    1    2  502    0  0.12594436562E+02  0.20829320896E+02 -0.27213455190E+03  0.27322096329E+03  0.00000000000E+00 0. -1.
<mgrwt>
<rscale>  0 0.40890463E+02</rscale>
<asrwt>0</asrwt>
<pdfrwt beam="2">  1        2 0.69382248E-01 0.24340921E+02</pdfrwt>
<pdfrwt beam="1">  1        1 0.53439103E-01 0.68692141E+02</pdfrwt>
<totfact> 0.71229100E+02</totfact>
</mgrwt>
</event>
<event>
 5    1  0.8891499E-003  0.1318319E+03  0.7546771E-02  0.1384810E+00
         -2   -1    0    0    0  501 -0.00000000000E+00  0.00000000000E+00  0.73016300676E+03  0.73016300676E+03  0.00000000000E+00 0.  1.
          2   -1    0    0  502    0  0.00000000000E+00 -0.00000000000E+00 -0.13714781793E+04  0.13714781793E+04  0.00000000000E+00 0. -1.
         25    1    1    2    0    0  0.57181380061E+02 -0.10787655233E+03  0.68191403008E+02  0.18756899587E+03  0.12500000000E+03 0.  0.
          1    1    1    2  502    0 -0.22066119657E+02 -0.20784526048E+02 -0.13042280489E+04  0.13045802826E+04  0.00000000000E+00 0. -1.
         -3    1    1    2    0  501 -0.35115260403E+02  0.12866107838E+03  0.59472147334E+03  0.60949190762E+03  0.00000000000E+00 0.  1.
<mgrwt>
<rscale>  0 0.63216217E+02</rscale>
<asrwt>0</asrwt>
<pdfrwt beam="2">  1        2 0.21099664E+00 0.30313531E+02</pdfrwt>
<pdfrwt beam="1">  1       -2 0.11233277E+00 0.13183189E+03</pdfrwt>
<totfact> 0.12830251E+01</totfact>
</mgrwt>
</event>
<event>
 5    1  0.8891499E-003  0.4343230E+02  0.7546771E-02  0.1491715E+00
          1   -1    0    0  501    0 -0.00000000000E+00  0.00000000000E+00  0.22485453447E+03  0.22485453447E+03  0.00000000000E+00 0. -1.
          2   -1    0    0  502    0  0.00000000000E+00 -0.00000000000E+00 -0.15129958840E+03  0.15129958840E+03  0.00000000000E+00 0. -1.
         25    1    1    2    0    0  0.74857539557E+02  0.14743058349E+02 -0.38583790249E+02  0.15144212712E+03  0.12500000000E+03 0.  0.
          2    1    1    2  501    0 -0.41546180278E+02  0.96048916129E+01  0.15763005033E+03  0.16329596384E+03  0.00000000000E+00 0. -1.
          1    1    1    2  502    0 -0.33311359280E+02 -0.24347949962E+02 -0.45491314012E+02  0.61416031905E+02  0.00000000000E+00 0. -1.
<mgrwt>
<rscale>  0 0.42332725E+02</rscale>
<asrwt>0</asrwt>
<pdfrwt beam="2">  1        2 0.23276860E-01 0.41260990E+02</pdfrwt>
<pdfrwt beam="1">  1        1 0.34593005E-01 0.43432298E+02</pdfrwt>
<totfact> 0.36646711E+03</totfact>
</mgrwt>
</event>
<event>
 5    1  0.1174768E-002  0.4450490E+02  0.7546771E-02  0.1566958E+00
          2   -1    0    0  502    0  0.00000000000E+00  0.00000000000E+00  0.18371546593E+04  0.18371546593E+04  0.00000000000E+00 0. -1.
         -2   -1    0    0    0  501 -0.00000000000E+00 -0.00000000000E+00 -0.69670231070E+01  0.69670231070E+01  0.00000000000E+00 0.  1.
         25    1    1    2    0    0 -0.61532128433E+01  0.30945446817E+02  0.10130429798E+04  0.10212132792E+04  0.12500000000E+03 0.  0.
          1    1    1    2  502    0  0.24182052651E+02 -0.47524857366E+02  0.26996446174E+03  0.27518029424E+03  0.00000000000E+00 0.  1.
         -1    1    1    2    0  501 -0.18028839807E+02  0.16579410549E+02  0.54718019469E+03  0.54772810899E+03  0.00000000000E+00 0. -1.
<mgrwt>
<rscale>  0 0.33016157E+02</rscale>
<asrwt>0</asrwt>
<pdfrwt beam="1">  1        2 0.28263879E+00 0.44504902E+02</pdfrwt>
<pdfrwt beam="2">  1       -2 0.10718512E-02 0.24493181E+02</pdfrwt>
<totfact> 0.13967868E+04</totfact>
</mgrwt>
</event>
<event>
 5    1  0.8891499E-003  0.9125215E+02  0.7546771E-02  0.1304712E+00
         -1   -1    0    0    0  502 -0.00000000000E+00  0.00000000000E+00  0.24729035285E+03  0.24729035285E+03  0.00000000000E+00 0.  1.
         -2   -1    0    0    0  501  0.00000000000E+00 -0.00000000000E+00 -0.28728913144E+03  0.28728913144E+03  0.00000000000E+00 0.  1.
         25    1    1    2    0    0 -0.49300610009E+02 -0.26986414602E+02 -0.35244272813E+02  0.14151316365E+03  0.12500000000E+03 0.  0.
         -2    1    1    2    0  502  0.35987859659E+02 -0.79498477497E+02  0.16821963484E+03  0.18950720174E+03  0.00000000000E+00 0.  1.
         -1    1    1    2    0  501  0.13312750350E+02  0.10648489210E+03 -0.17297414061E+03  0.20355911890E+03  0.00000000000E+00 0.  1.
<mgrwt>
<rscale>  0 0.89236172E+02</rscale>
<asrwt>0</asrwt>
<pdfrwt beam="2">  1       -2 0.44198328E-01 0.91252146E+02</pdfrwt>
<pdfrwt beam="1">  1       -1 0.38044670E-01 0.87264735E+02</pdfrwt>
<totfact> 0.24470631E+02</totfact>
</mgrwt>
</event>
<event>
 5    1  0.8891499E-003  0.1212040E+03  0.7546771E-02  0.1341131E+00
          2   -1    0    0  502    0  0.00000000000E+00  0.00000000000E+00  0.16024371837E+03  0.16024371837E+03  0.00000000000E+00 0. -1.
          1   -1    0    0  501    0 -0.00000000000E+00 -0.00000000000E+00 -0.17767419891E+04  0.17767419891E+04  0.00000000000E+00 0. -1.
         25    1    1    2    0    0  0.41073404410E+02  0.79787814827E+02 -0.54149761697E+03  0.56293675411E+03  0.12500000000E+03 0.  0.
          2    1    1    2  501    0 -0.82289366182E+02 -0.10343862054E+03 -0.12170785192E+04  0.12242349488E+04  0.00000000000E+00 0. -1.
          1    1    1    2  502    0  0.41215961772E+02  0.23650805712E+02  0.14207786543E+03  0.14981400455E+03  0.00000000000E+00 0. -1.
<mgrwt>
<rscale>  0 0.75891846E+02</rscale>
<asrwt>0</asrwt>
<pdfrwt beam="1">  1        2 0.24652880E-01 0.47519639E+02</pdfrwt>
<pdfrwt beam="2">  1        1 0.27334492E+00 0.12120404E+03</pdfrwt>
<totfact> 0.14526229E+02</totfact>
</mgrwt>
</event>
<event>
 5    1  0.8891499E-003  0.6177507E+02  0.7546771E-02  0.1468051E+00
          2   -1    0    0  502    0  0.00000000000E+00  0.00000000000E+00  0.59175948956E+03  0.59175948956E+03  0.00000000000E+00 0. -1.
          1   -1    0    0  501    0 -0.00000000000E+00 -0.00000000000E+00 -0.11735835322E+04  0.11735835322E+04  0.00000000000E+00 0. -1.
         25    1    1    2    0    0 -0.84903613677E+02  0.35822439112E+02  0.69662065368E+02  0.17020480049E+03  0.12500000000E+03 0.  0.
          2    1    1    2  501    0  0.25684684157E+02 -0.22715443468E+02 -0.11210997991E+04  0.11216240252E+04  0.00000000000E+00 0. -1.
          1    1    1    2  502    0  0.59218929520E+02 -0.13106995645E+02  0.46961369113E+03  0.47351419603E+03  0.00000000000E+00 0. -1.
<mgrwt>
<rscale>  0 0.46023564E+02</rscale>
<asrwt>0</asrwt>
<pdfrwt beam="1">  1        2 0.91039922E-01 0.61775073E+02</pdfrwt>
<pdfrwt beam="2">  1        1 0.18055131E+00 0.34288400E+02</pdfrwt>
<totfact> 0.10183477E+02</totfact>
</mgrwt>
</event>
<event>
 5    1  0.1452609E-002  0.6118616E+02  0.7546771E-02  0.1478324E+00
          2   -1    0    0  502    0  0.00000000000E+00  0.00000000000E+00  0.93091067714E+03  0.93091067714E+03  0.00000000000E+00 0. -1.
          1   -1    0    0  501    0 -0.00000000000E+00 -0.00000000000E+00 -0.20333827975E+04  0.20333827975E+04  0.00000000000E+00 0. -1.
         25    1    1    2    0    0  0.53494915114E+02  0.46146850143E+02 -0.83325775895E+03  0.84553813076E+03  0.12500000000E+03 0.  0.
          2    1    1    2  501    0 -0.22979392785E+02 -0.56340203433E+02 -0.11929294171E+04  0.11944801653E+04  0.00000000000E+00 0. -1.
          1    1    1    2  502    0 -0.30515522329E+02  0.10193353290E+02  0.92371505573E+03  0.92427517858E+03  0.00000000000E+00 0. -1.
<mgrwt>
<rscale>  0 0.44368255E+02</rscale>
<asrwt>0</asrwt>
<pdfrwt beam="1">  1        2 0.14321703E+00 0.32172994E+02</pdfrwt>
<pdfrwt beam="2">  1        1 0.31282812E+00 0.61186164E+02</pdfrwt>
<totfact> 0.16968712E+01</totfact>
</mgrwt>
</event>
<event>
 5    1  0.8891499E-003  0.6262630E+02  0.7546771E-02  0.1463458E+00
          2   -1    0    0  502    0  0.00000000000E+00  0.00000000000E+00  0.17858393789E+03  0.17858393789E+03  0.00000000000E+00 0. -1.
          1   -1    0    0  501    0 -0.00000000000E+00 -0.00000000000E+00 -0.21488932279E+04  0.21488932279E+04  0.00000000000E+00 0. -1.
         25    1    1    2    0    0 -0.75401191743E+02  0.38170312073E+02  0.25684329260E+01  0.15091026899E+03  0.12500000000E+03 0.  0.
          2    1    1    2  501    0  0.62260685836E+02 -0.57733005603E+01 -0.20712362910E+04  0.20721798902E+04  0.00000000000E+00 0. -1.
          1    1    1    2  502    0  0.13140505907E+02 -0.32397011513E+02  0.98358568052E+02  0.10438700666E+03  0.00000000000E+00 0. -1.
<mgrwt>
<rscale>  0 0.46791552E+02</rscale>
<asrwt>0</asrwt>
<pdfrwt beam="1">  1        2 0.27474451E-01 0.34960538E+02</pdfrwt>
<pdfrwt beam="2">  1        1 0.33059897E+00 0.62626304E+02</pdfrwt>
<totfact> 0.81252180E+01</totfact>
</mgrwt>
</event>
<event>
 5    1  0.8891499E-003  0.1365338E+03  0.7546771E-02  0.1219057E+00
          1   -1    0    0  501    0 -0.00000000000E+00  0.00000000000E+00  0.38136475096E+03  0.38136475096E+03  0.00000000000E+00 0. -1.
          2   -1    0    0  502    0  0.00000000000E+00 -0.00000000000E+00 -0.32471623824E+04  0.32471623824E+04  0.00000000000E+00 0. -1.
         25    1    1    2    0    0  0.28445649315E+01 -0.11837497385E+02 -0.13347640233E+03  0.18327347837E+03  0.12500000000E+03 0.  0.
          2    1    1    2  501    0 -0.98659650674E+02  0.10910486846E+03  0.33971003466E+03  0.37018982514E+03  0.00000000000E+00 0. -1.
          1    1    1    2  502    0  0.95815085743E+02 -0.97267371076E+02 -0.30720312638E+04  0.30750638299E+04  0.00000000000E+00 0. -1.
<mgrwt>
<rscale>  0 0.13582717E+03</rscale>
<asrwt>0</asrwt>
<pdfrwt beam="2">  1        2 0.49956345E+00 0.13653378E+03</pdfrwt>
<pdfrwt beam="1">  1        1 0.58671499E-01 0.13512422E+03</pdfrwt>
<totfact> 0.14682879E+01</totfact>
</mgrwt>
</event>
<event>
 5    1  0.9553897E-003  0.1468623E+03  0.7546771E-02  0.1270049E+00
          2   -1    0    0  502    0  0.00000000000E+00  0.00000000000E+00  0.15502321286E+04  0.15502321286E+04  0.00000000000E+00 0. -1.
          1   -1    0    0  501    0 -0.00000000000E+00 -0.00000000000E+00 -0.97328380956E+03  0.97328380956E+03  0.00000000000E+00 0. -1.
         25    1    1    2    0    0  0.10213283117E+03 -0.28707004397E+02 -0.24801710222E+03  0.29730908209E+03  0.12500000000E+03 0.  0.
          2    1    1    2  501    0  0.41485019354E+02  0.62627468173E+02 -0.69502343198E+03  0.69907136803E+03  0.00000000000E+00 0. -1.
          1    1    1    2  502    0 -0.14361785052E+03 -0.33920463776E+02  0.15199888533E+04  0.15271354881E+04  0.00000000000E+00 0. -1.
<mgrwt>
<rscale>  0 0.10503562E+03</rscale>
<asrwt>0</asrwt>
<pdfrwt beam="1">  1        2 0.23849725E+00 0.14686227E+03</pdfrwt>
<pdfrwt beam="2">  1        1 0.14973597E+00 0.75121279E+02</pdfrwt>
<totfact> 0.33630868E+01</totfact>
</mgrwt>
</event>
<event>
 5    1  0.8891499E-003  0.6514244E+02  0.7546771E-02  0.1415637E+00
         -2   -1    0    0    0  501 -0.00000000000E+00  0.00000000000E+00  0.22913258799E+03  0.22913258799E+03  0.00000000000E+00 0.  1.
          2   -1    0    0  502    0  0.00000000000E+00 -0.00000000000E+00 -0.27360295181E+03  0.27360295181E+03  0.00000000000E+00 0. -1.
         25    1    1    2    0    0  0.58366317209E+02 -0.72009958321E+02 -0.65386532017E+01  0.15575562612E+03  0.12500000000E+03 0.  0.
          1    1    1    2  502    0 -0.11170017776E+02  0.62924478289E+02 -0.18316835078E+03  0.19399717521E+03  0.00000000000E+00 0. -1.
         -1    1    1    2    0  501 -0.47196299434E+02  0.90854800324E+01  0.14523664015E+03  0.15298273847E+03  0.00000000000E+00 0.  1.
<mgrwt>
<rscale>  0 0.55954719E+02</rscale>
<asrwt>0</asrwt>
<pdfrwt beam="2">  1        2 0.42092762E-01 0.65142437E+02</pdfrwt>
<pdfrwt beam="1">  1       -2 0.35251167E-01 0.48062840E+02</pdfrwt>
<totfact> 0.88467702E+02</totfact>
</mgrwt>
</event>
<event>
 5    1  0.8891499E-003  0.1891800E+03  0.7546771E-02  0.1257225E+00
          1   -1    0    0  501    0 -0.00000000000E+00  0.00000000000E+00  0.33391686563E+03  0.33391686563E+03  0.00000000000E+00 0. -1.
          2   -1    0    0  502    0  0.00000000000E+00 -0.00000000000E+00 -0.15984857076E+04  0.15984857076E+04  0.00000000000E+00 0. -1.
         25    1    1    2    0    0 -0.21439503952E+03  0.11230549712E+03 -0.29564505796E+02  0.27400149208E+03  0.12500000000E+03 0.  0.
          2    1    1    2  501    0  0.36680355016E+02 -0.54990904611E+02  0.20033910217E+03  0.21096256515E+03  0.00000000000E+00 0. -1.
          3    1    1    2  502    0  0.17771468451E+03 -0.57314592512E+02 -0.14353434384E+04  0.14474385160E+04  0.00000000000E+00 0. -1.
<mgrwt>
<rscale>  0 0.11182638E+03</rscale>
<asrwt>0</asrwt>
<pdfrwt beam="2">  1        2 0.24592087E+00 0.18918001E+03</pdfrwt>
<pdfrwt beam="1">  1        1 0.51371827E-01 0.66101801E+02</pdfrwt>
<totfact> 0.13135469E+02</totfact>
</mgrwt>
</event>
<event>
 5    1  0.8891499E-003  0.4136542E+02  0.7546771E-02  0.1520605E+00
          2   -1    0    0  502    0  0.00000000000E+00  0.00000000000E+00  0.13158449323E+04  0.13158449323E+04  0.00000000000E+00 0. -1.
         -2   -1    0    0    0  501 -0.00000000000E+00 -0.00000000000E+00 -0.21489087911E+03  0.21489087911E+03  0.00000000000E+00 0.  1.
         25    1    1    2    0    0 -0.33319675799E+02 -0.65707183540E+02  0.77594777864E+03  0.78939697868E+03  0.12500000000E+03 0.  0.
          1    1    1    2  502    0  0.55612716800E+01  0.35143616082E+02  0.53052352997E+03  0.53171535368E+03  0.00000000000E+00 0. -1.
         -1    1    1    2    0  501  0.27758404119E+02  0.30563567458E+02 -0.20551725546E+03  0.20962347900E+03  0.00000000000E+00 0.  1.
<mgrwt>
<rscale>  0 0.38364298E+02</rscale>
<asrwt>0</asrwt>
<pdfrwt beam="1">  1        2 0.20243768E+00 0.35580915E+02</pdfrwt>
<pdfrwt beam="2">  1       -2 0.33060136E-01 0.41365416E+02</pdfrwt>
<totfact> 0.16586442E+02</totfact>
</mgrwt>
</event>
<event>
 5    1  0.8891499E-003  0.1065121E+03  0.7546771E-02  0.1402932E+00
          2   -1    0    0  502    0  0.00000000000E+00  0.00000000000E+00  0.25400504445E+04  0.25400504445E+04  0.00000000000E+00 0. -1.
          1   -1    0    0  501    0 -0.00000000000E+00 -0.00000000000E+00 -0.10090189619E+04  0.10090189619E+04  0.00000000000E+00 0. -1.
         25    1    1    2    0    0 -0.12976302757E+03 -0.40519456349E+02  0.48450048531E+03  0.51850360648E+03  0.12500000000E+03 0.  0.
          2    1    1    2  501    0  0.28644992295E+02  0.15272569884E+02 -0.99041919628E+03  0.99095104387E+03  0.00000000000E+00 0. -1.
          1    1    1    2  502    0  0.10111803528E+03  0.25246886465E+02  0.20369501935E+04  0.20396147561E+04  0.00000000000E+00 0. -1.
<mgrwt>
<rscale>  0 0.58801412E+02</rscale>
<asrwt>0</asrwt>
<pdfrwt beam="1">  1        2 0.39077699E+00 0.10651214E+03</pdfrwt>
<pdfrwt beam="2">  1        1 0.15523369E+00 0.32462085E+02</pdfrwt>
<totfact> 0.10734815E+01</totfact>
</mgrwt>
</event>
<event>
 5    1  0.8891499E-003  0.1798965E+03  0.7546771E-02  0.1226701E+00
          3   -1    0    0  501    0 -0.00000000000E+00  0.00000000000E+00  0.14788415025E+03  0.14788415025E+03  0.00000000000E+00 0. -1.
          2   -1    0    0  502    0  0.00000000000E+00 -0.00000000000E+00 -0.22307779904E+04  0.22307779904E+04  0.00000000000E+00 0. -1.
         25    1    1    2    0    0  0.51127092244E+02  0.18080424652E+03 -0.87270963269E+03  0.90141625130E+03  0.12500000000E+03 0.  0.
          2    1    1    2  501    0 -0.12897830912E+03 -0.12691749449E+03  0.69665482129E+02  0.19389877264E+03  0.00000000000E+00 0. -1.
          1    1    1    2  502    0  0.77851216875E+02 -0.53886752026E+02 -0.12798496896E+04  0.12833471167E+04  0.00000000000E+00 0. -1.
<mgrwt>
<rscale>  0 0.13051008E+03</rscale>
<asrwt>0</asrwt>
<pdfrwt beam="2">  1        2 0.34319662E+00 0.94681540E+02</pdfrwt>
<pdfrwt beam="1">  1        3 0.22751408E-01 0.17989653E+03</pdfrwt>
<totfact> 0.69340229E+01</totfact>
</mgrwt>
</event>
<event>
 5    1  0.8891499E-003  0.1225578E+03  0.7546771E-02  0.1346142E+00
          1   -1    0    0  501    0 -0.00000000000E+00  0.00000000000E+00  0.35701864234E+03  0.35701864234E+03  0.00000000000E+00 0. -1.
          2   -1    0    0  502    0  0.00000000000E+00 -0.00000000000E+00 -0.44985943413E+03  0.44985943413E+03  0.00000000000E+00 0. -1.
         25    1    1    2    0    0 -0.42375148342E+02 -0.70204668431E+02 -0.75807397207E+02  0.16761894325E+03  0.12500000000E+03 0.  0.
          2    1    1    2  501    0  0.62109392154E+02  0.11065703333E+03  0.29649910852E+03  0.32251244468E+03  0.00000000000E+00 0. -1.
          1    1    1    2  502    0 -0.19734243812E+02 -0.40452364895E+02 -0.31353250309E+03  0.31674668854E+03  0.00000000000E+00 0. -1.
<mgrwt>
<rscale>  0 0.74271385E+02</rscale>
<asrwt>0</asrwt>
<pdfrwt beam="2">  1        2 0.69209144E-01 0.45009268E+02</pdfrwt>
<pdfrwt beam="1">  1        1 0.54925945E-01 0.12255784E+03</pdfrwt>
<totfact> 0.68602433E+02</totfact>
</mgrwt>
</event>
<event>
 5    1  0.8891499E-003  0.3594600E+02  0.7546771E-02  0.1596706E+00
          2   -1    0    0  502    0  0.00000000000E+00  0.00000000000E+00  0.14056809031E+04  0.14056809031E+04  0.00000000000E+00 0. -1.
          1   -1    0    0  501    0 -0.00000000000E+00 -0.00000000000E+00 -0.33604553369E+03  0.33604553369E+03  0.00000000000E+00 0. -1.
         25    1    1    2    0    0 -0.35617004127E+02  0.15017740521E+02 -0.13100688181E+03  0.18515373773E+03  0.12500000000E+03 0.  0.
          2    1    1    2  501    0  0.17014839229E+02 -0.32087933646E+02 -0.17599518164E+03  0.17970376791E+03  0.00000000000E+00 0. -1.
          3    1    1    2  502    0  0.18602164898E+02  0.17070193125E+02  0.13766374329E+04  0.13768689312E+04  0.00000000000E+00 0. -1.
<mgrwt>
<rscale>  0 0.30125464E+02</rscale>
<asrwt>0</asrwt>
<pdfrwt beam="1">  1        2 0.21625860E+00 0.25247416E+02</pdfrwt>
<pdfrwt beam="2">  1        1 0.51699314E-01 0.35945997E+02</pdfrwt>
<totfact> 0.19318820E+02</totfact>
</mgrwt>
</event>
<event>
 5    1  0.8891499E-003  0.7141888E+02  0.7546771E-02  0.1366344E+00
          2   -1    0    0  502    0  0.00000000000E+00  0.00000000000E+00  0.12038017176E+04  0.12038017176E+04  0.00000000000E+00 0. -1.
          1   -1    0    0  501    0 -0.00000000000E+00 -0.00000000000E+00 -0.72770321347E+02  0.72770321347E+02  0.00000000000E+00 0. -1.
         25    1    1    2    0    0 -0.16339178584E+02 -0.13430579863E+02  0.10258776112E+02  0.12719116211E+03  0.12500000000E+03 0.  0.
          2    1    1    2  501    0  0.29346896647E+02 -0.58126498861E+02  0.68179816140E+02  0.94278404428E+02  0.00000000000E+00 0. -1.
          1    1    1    2  502    0 -0.13007718063E+02  0.71557078724E+02  0.10525928040E+04  0.10551024724E+04  0.00000000000E+00 0. -1.
<mgrwt>
<rscale>  0 0.68194005E+02</rscale>
<asrwt>0</asrwt>
<pdfrwt beam="1">  1        2 0.18520025E+00 0.71418882E+02</pdfrwt>
<pdfrwt beam="2">  1        1 0.11195435E-01 0.65114747E+02</pdfrwt>
<totfact> 0.14937897E+03</totfact>
</mgrwt>
</event>
<event>
 5    1  0.8891499E-003  0.6015227E+02  0.7546771E-02  0.1469485E+00
          1   -1    0    0  501    0 -0.00000000000E+00  0.00000000000E+00  0.24242065683E+02  0.24242065683E+02  0.00000000000E+00 0. -1.
          2   -1    0    0  502    0  0.00000000000E+00 -0.00000000000E+00 -0.22952724480E+04  0.22952724480E+04  0.00000000000E+00 0. -1.
         25    1    1    2    0    0  0.37836315828E+02  0.82474195282E+02 -0.11011539146E+04  0.11119345859E+04  0.12500000000E+03 0.  0.
          2    1    1    2  501    0 -0.34489675633E+02 -0.47782122026E+02 -0.28125483026E+02  0.65297103351E+02  0.00000000000E+00 0. -1.
          1    1    1    2  502    0 -0.33466401945E+01 -0.34692073256E+02 -0.11417509847E+04  0.11422828245E+04  0.00000000000E+00 0. -1.
<mgrwt>
<rscale>  0 0.45787489E+02</rscale>
<asrwt>0</asrwt>
<pdfrwt beam="2">  1        2 0.35311911E+00 0.34853120E+02</pdfrwt>
<pdfrwt beam="1">  1        1 0.37295457E-02 0.60152268E+02</pdfrwt>
<totfact> 0.19642667E+03</totfact>
</mgrwt>
</event>
<event>
 5    1  0.8891499E-003  0.2929888E+02  0.7546771E-02  0.1633430E+00
         -1   -1    0    0    0  501 -0.00000000000E+00  0.00000000000E+00  0.31826782863E+02  0.31826782863E+02  0.00000000000E+00 0.  1.
          1   -1    0    0  502    0  0.00000000000E+00 -0.00000000000E+00 -0.41973339488E+03  0.41973339488E+03  0.00000000000E+00 0. -1.
         25    1    1    2    0    0  0.20351388372E+01 -0.11271817483E+02 -0.31163141965E+03  0.33596180940E+03  0.12500000000E+03 0.  0.
          2    1    1    2  502    0 -0.22366843533E+02 -0.11031564002E+02 -0.81267823195E+02  0.85008412412E+02  0.00000000000E+00 0. -1.
         -2    1    1    2    0  501  0.20331704696E+02  0.22303381485E+02  0.49926308286E+01  0.30589955935E+02  0.00000000000E+00 0.  1.
<mgrwt>
<rscale>  0 0.27031369E+02</rscale>
<asrwt>0</asrwt>
<pdfrwt beam="2">  1        1 0.64574367E-01 0.24939348E+02</pdfrwt>
<pdfrwt beam="1">  1       -1 0.48964283E-02 0.29298877E+02</pdfrwt>
<totfact> 0.85032448E+03</totfact>
</mgrwt>
</event>
<event>
 5    1  0.8891499E-003  0.1690267E+03  0.7546771E-02  0.1400762E+00
         -2   -1    0    0    0  501 -0.00000000000E+00  0.00000000000E+00  0.59787117849E+02  0.59787117849E+02  0.00000000000E+00 0.  1.
          2   -1    0    0  502    0  0.00000000000E+00 -0.00000000000E+00 -0.21898262871E+04  0.21898262871E+04  0.00000000000E+00 0. -1.
         25    1    1    2    0    0 -0.10151344783E+03  0.11064325974E+03 -0.14673637233E+04  0.14803135504E+04  0.12500000000E+03 0.  0.
          1    1    1    2  502    0 -0.11785820035E+02  0.17150070616E+02 -0.57854044307E+03  0.57891456602E+03  0.00000000000E+00 0. -1.
         -1    1    1    2    0  501  0.11329926787E+03 -0.12779333035E+03 -0.84135002877E+02  0.19038528854E+03  0.00000000000E+00 0.  1.
<mgrwt>
<rscale>  0 0.59307181E+02</rscale>
<asrwt>0</asrwt>
<pdfrwt beam="2">  1        2 0.33689633E+00 0.20809384E+02</pdfrwt>
<pdfrwt beam="1">  1       -2 0.91980186E-02 0.16902671E+03</pdfrwt>
<totfact> 0.59969440E+02</totfact>
</mgrwt>
</event>
<event>
 5    1  0.8891499E-003  0.6124449E+02  0.7546771E-02  0.1410033E+00
          2   -1    0    0  502    0  0.00000000000E+00  0.00000000000E+00  0.96293848040E+03  0.96293848040E+03  0.00000000000E+00 0. -1.
          1   -1    0    0  501    0 -0.00000000000E+00 -0.00000000000E+00 -0.21861287645E+03  0.21861287645E+03  0.00000000000E+00 0. -1.
         25    1    1    2    0    0  0.95012445034E+02 -0.50339446248E+02  0.33094142651E+03  0.36974133166E+03  0.12500000000E+03 0.  0.
          2    1    1    2  501    0 -0.52273881352E+02  0.10896681986E+02 -0.19422112162E+03  0.20142775487E+03  0.00000000000E+00 0. -1.
          1    1    1    2  502    0 -0.42738563683E+02  0.39442764262E+02  0.60760529906E+03  0.61038227032E+03  0.00000000000E+00 0. -1.
<mgrwt>
<rscale>  0 0.57186577E+02</rscale>
<asrwt>0</asrwt>
<pdfrwt beam="1">  1        2 0.14814438E+00 0.61244489E+02</pdfrwt>
<pdfrwt beam="2">  1        1 0.33632751E-01 0.53397531E+02</pdfrwt>
<totfact> 0.52004587E+02</totfact>
</mgrwt>
</event>
<event>
 5    1  0.8891499E-003  0.3458149E+02  0.7546771E-02  0.1561525E+00
         -2   -1    0    0    0  501 -0.00000000000E+00  0.00000000000E+00  0.21352360345E+02  0.21352360345E+02  0.00000000000E+00 0.  1.
          2   -1    0    0  502    0  0.00000000000E+00 -0.00000000000E+00 -0.76574496729E+03  0.76574496729E+03  0.00000000000E+00 0. -1.
         25    1    1    2    0    0 -0.63262833233E+01 -0.14883482391E+02 -0.52944149681E+03  0.54423785100E+03  0.12500000000E+03 0.  0.
          1    1    1    2  502    0  0.38893854919E+02  0.13038110522E+02 -0.20454832418E+03  0.20862104688E+03  0.00000000000E+00 0. -1.
         -1    1    1    2    0  501 -0.32567571596E+02  0.18453718691E+01 -0.10402785955E+02  0.34238429762E+02  0.00000000000E+00 0.  1.
<mgrwt>
<rscale>  0 0.33586332E+02</rscale>
<asrwt>0</asrwt>
<pdfrwt beam="2">  1        2 0.11780692E+00 0.34581490E+02</pdfrwt>
<pdfrwt beam="1">  1       -2 0.32849786E-02 0.32619812E+02</pdfrwt>
<totfact> 0.11623631E+04</totfact>
</mgrwt>
</event>
<event>
 5    1  0.8891499E-003  0.1138719E+03  0.7546771E-02  0.1333636E+00
          1   -1    0    0  501    0 -0.00000000000E+00  0.00000000000E+00  0.94258683934E+03  0.94258683934E+03  0.00000000000E+00 0. -1.
          2   -1    0    0  502    0  0.00000000000E+00 -0.00000000000E+00 -0.12930451276E+04  0.12930451276E+04  0.00000000000E+00 0. -1.
         25    1    1    2    0    0  0.22208364829E+02 -0.61560671168E+02  0.22678228845E+02  0.14290636713E+03  0.12500000000E+03 0.  0.
          2    1    1    2  501    0 -0.58574430265E+02  0.10146088929E+03  0.85520803430E+03  0.86319526057E+03  0.00000000000E+00 0. -1.
          1    1    1    2  502    0  0.36366065437E+02 -0.39900218121E+02 -0.12283445514E+04  0.12295303392E+04  0.00000000000E+00 0. -1.
<mgrwt>
<rscale>  0 0.78406123E+02</rscale>
<asrwt>0</asrwt>
<pdfrwt beam="2">  1        2 0.19893002E+00 0.53986277E+02</pdfrwt>
<pdfrwt beam="1">  1        1 0.14501336E+00 0.11387190E+03</pdfrwt>
<totfact> 0.50651304E+01</totfact>
</mgrwt>
</event>
<event>
 5    1  0.8891499E-003  0.7837122E+02  0.7546771E-02  0.1339748E+00
          1   -1    0    0  501    0 -0.00000000000E+00  0.00000000000E+00  0.68285158360E+02  0.68285158360E+02  0.00000000000E+00 0. -1.
          2   -1    0    0  502    0  0.00000000000E+00 -0.00000000000E+00 -0.90666608955E+03  0.90666608955E+03  0.00000000000E+00 0. -1.
         25    1    1    2    0    0  0.21449238157E+02 -0.57029218505E+02 -0.20309910659E+03  0.24614355299E+03  0.12500000000E+03 0.  0.
          2    1    1    2  501    0  0.61294341512E+02  0.42129111150E+02  0.12649492210E+02  0.75444469386E+02  0.00000000000E+00 0. -1.
          1    1    1    2  502    0 -0.82743579669E+02  0.14900107355E+02 -0.64793131682E+03  0.65336322554E+03  0.00000000000E+00 0. -1.
<mgrwt>
<rscale>  0 0.76347721E+02</rscale>
<asrwt>0</asrwt>
<pdfrwt beam="2">  1        2 0.13948708E+00 0.78371224E+02</pdfrwt>
<pdfrwt beam="1">  1        1 0.10505410E-01 0.74376463E+02</pdfrwt>
<totfact> 0.24017838E+03</totfact>
</mgrwt>
</event>
<event>
 5    1  0.8891499E-003  0.9713609E+02  0.7546771E-02  0.1392254E+00
         -2   -1    0    0    0  501 -0.00000000000E+00  0.00000000000E+00  0.15221644224E+03  0.15221644224E+03  0.00000000000E+00 0.  1.
          2   -1    0    0  502    0  0.00000000000E+00 -0.00000000000E+00 -0.10819243368E+04  0.10819243368E+04  0.00000000000E+00 0. -1.
         25    1    1    2    0    0  0.96791093621E+02  0.18069682429E+02 -0.39681961815E+03  0.42753460512E+03  0.12500000000E+03 0.  0.
          1    1    1    2  502    0 -0.16117992311E+01 -0.38713690248E+02 -0.65177197963E+03  0.65292270686E+03  0.00000000000E+00 0. -1.
         -1    1    1    2    0  501 -0.95179294390E+02  0.20644007819E+02  0.11888370324E+03  0.15368346702E+03  0.00000000000E+00 0.  1.
<mgrwt>
<rscale>  0 0.61349445E+02</rscale>
<asrwt>0</asrwt>
<pdfrwt beam="2">  1        2 0.16644990E+00 0.38747228E+02</pdfrwt>
<pdfrwt beam="1">  1       -2 0.23417914E-01 0.97136094E+02</pdfrwt>
<totfact> 0.40849579E+02</totfact>
</mgrwt>
</event>
<event>
 5    1  0.8891499E-003  0.1338948E+03  0.7546771E-02  0.1331497E+00
          1   -1    0    0  501    0 -0.00000000000E+00  0.00000000000E+00  0.10926373076E+04  0.10926373076E+04  0.00000000000E+00 0. -1.
          2   -1    0    0  502    0  0.00000000000E+00 -0.00000000000E+00 -0.11868135904E+04  0.11868135904E+04  0.00000000000E+00 0. -1.
         25    1    1    2    0    0  0.15344658636E+03  0.77516464878E+02 -0.17192230188E+03  0.27338056822E+03  0.12500000000E+03 0.  0.
          2    1    1    2  501    0 -0.12750504483E+03 -0.38586297239E+02  0.10370776997E+04  0.10455986773E+04  0.00000000000E+00 0. -1.
          1    1    1    2  502    0 -0.25941541537E+02 -0.38930167639E+02 -0.95933168066E+03  0.96047165239E+03  0.00000000000E+00 0. -1.
<mgrwt>
<rscale>  0 0.79144298E+02</rscale>
<asrwt>0</asrwt>
<pdfrwt beam="2">  1        2 0.18258671E+00 0.46781637E+02</pdfrwt>
<pdfrwt beam="1">  1        1 0.16809805E+00 0.13389484E+03</pdfrwt>
<totfact> 0.44773234E+01</totfact>
</mgrwt>
</event>
<event>
 5    1  0.8891499E-003  0.7139002E+02  0.7546771E-02  0.1388920E+00
         -1   -1    0    0    0  501 -0.00000000000E+00  0.00000000000E+00  0.11286383992E+03  0.11286383992E+03  0.00000000000E+00 0.  1.
          1   -1    0    0  502    0  0.00000000000E+00 -0.00000000000E+00 -0.11380166211E+04  0.11380166211E+04  0.00000000000E+00 0. -1.
         25    1    1    2    0    0 -0.78142139328E+01  0.10546475019E+03 -0.65608120466E+03  0.67620368424E+03  0.12500000000E+03 0.  0.
          2    1    1    2  502    0  0.31835803355E+02 -0.56932760105E+02 -0.46229099109E+03  0.46687023678E+03  0.00000000000E+00 0. -1.
         -2    1    1    2    0  501 -0.24021589422E+02 -0.48531990089E+02  0.93219414556E+02  0.10780654002E+03  0.00000000000E+00 0.  1.
<mgrwt>
<rscale>  0 0.62176203E+02</rscale>
<asrwt>0</asrwt>
<pdfrwt beam="2">  1        1 0.17507947E+00 0.71390015E+02</pdfrwt>
<pdfrwt beam="1">  1       -1 0.17363668E-01 0.54151554E+02</pdfrwt>
<totfact> 0.33381982E+02</totfact>
</mgrwt>
</event>
<event>
 5    1  0.8891499E-003  0.7723069E+02  0.7546771E-02  0.1435525E+00
          2   -1    0    0  502    0  0.00000000000E+00  0.00000000000E+00  0.86723212600E+02  0.86723212600E+02  0.00000000000E+00 0. -1.
          1   -1    0    0  501    0 -0.00000000000E+00 -0.00000000000E+00 -0.14833939447E+04  0.14833939447E+04  0.00000000000E+00 0. -1.
         25    1    1    2    0    0  0.58814853310E+01 -0.67923180979E+02 -0.78401911109E+03  0.79684321979E+03  0.12500000000E+03 0.  0.
          2    1    1    2  501    0  0.34785464791E+02  0.18137193477E+01 -0.67365426375E+03  0.67455421221E+03  0.00000000000E+00 0. -1.
          3    1    1    2  502    0 -0.40666950122E+02  0.66109461631E+02  0.61002642714E+02  0.98719725321E+02  0.00000000000E+00 0. -1.
<mgrwt>
<rscale>  0 0.51866703E+02</rscale>
<asrwt>0</asrwt>
<pdfrwt beam="1">  1        2 0.13342033E-01 0.77230695E+02</pdfrwt>
<pdfrwt beam="2">  1        1 0.22821444E+00 0.34832716E+02</pdfrwt>
<totfact> 0.51367098E+02</totfact>
</mgrwt>
</event>
<event>
 5    1  0.8891499E-003  0.8552027E+02  0.7546771E-02  0.1401079E+00
          2   -1    0    0  502    0  0.00000000000E+00  0.00000000000E+00  0.15723350229E+03  0.15723350229E+03  0.00000000000E+00 0. -1.
         -2   -1    0    0    0  501 -0.00000000000E+00 -0.00000000000E+00 -0.87363447546E+03  0.87363447546E+03  0.00000000000E+00 0.  1.
         25    1    1    2    0    0 -0.26507587784E+02  0.73907791519E+02 -0.20794915801E+03  0.25501542340E+03  0.12500000000E+03 0.  0.
          1    1    1    2  502    0 -0.38172373921E+02 -0.15032991871E+02  0.12748794124E+03  0.13392645794E+03  0.00000000000E+00 0. -1.
         -1    1    1    2    0  501  0.64679961705E+02 -0.58874799649E+02 -0.63593975639E+03  0.64192609640E+03  0.00000000000E+00 0.  1.
<mgrwt>
<rscale>  0 0.59232951E+02</rscale>
<asrwt>0</asrwt>
<pdfrwt beam="1">  1        2 0.24189769E-01 0.41025857E+02</pdfrwt>
<pdfrwt beam="2">  1       -2 0.13440530E+00 0.85520271E+02</pdfrwt>
<totfact> 0.93507633E+01</totfact>
</mgrwt>
</event>
<event>
 5    1  0.8891499E-003  0.3158401E+02  0.7546771E-02  0.1606912E+00
          1   -1    0    0  501    0 -0.00000000000E+00  0.00000000000E+00  0.37292943646E+03  0.37292943646E+03  0.00000000000E+00 0. -1.
          2   -1    0    0  502    0  0.00000000000E+00 -0.00000000000E+00 -0.13936115687E+04  0.13936115687E+04  0.00000000000E+00 0. -1.
         25    1    1    2    0    0  0.46196721239E+02 -0.20514660857E+02 -0.18513184693E+02  0.13609822325E+03  0.12500000000E+03 0.  0.
          2    1    1    2  501    0 -0.31379742598E+02 -0.20886457066E+01  0.31321063715E+03  0.31478556814E+03  0.00000000000E+00 0. -1.
          1    1    1    2  502    0 -0.14816978641E+02  0.22603306563E+02 -0.13153795847E+04  0.13156572138E+04  0.00000000000E+00 0. -1.
<mgrwt>
<rscale>  0 0.29216730E+02</rscale>
<asrwt>0</asrwt>
<pdfrwt beam="2">  1        2 0.21440178E+00 0.27026882E+02</pdfrwt>
<pdfrwt beam="1">  1        1 0.57373760E-01 0.31584010E+02</pdfrwt>
<totfact> 0.17212196E+02</totfact>
</mgrwt>
</event>
<event>
 5    1  0.8891499E-003  0.9834916E+02  0.7546771E-02  0.1320898E+00
          1   -1    0    0  501    0 -0.00000000000E+00  0.00000000000E+00  0.15312049991E+04  0.15312049991E+04  0.00000000000E+00 0. -1.
          2   -1    0    0  502    0  0.00000000000E+00 -0.00000000000E+00 -0.52341836776E+03  0.52341836776E+03  0.00000000000E+00 0. -1.
         25    1    1    2    0    0 -0.96446937530E+02  0.55624982632E+02  0.48791056111E+02  0.17436088325E+03  0.12500000000E+03 0.  0.
          2    1    1    2  501    0 -0.13299689372E+01 -0.69939756725E+02  0.14134541999E+04  0.14151841271E+04  0.00000000000E+00 0. -1.
          3    1    1    2  502    0  0.97776906467E+02  0.14314774093E+02 -0.45445862464E+03  0.46507835652E+03  0.00000000000E+00 0. -1.
<mgrwt>
<rscale>  0 0.82944318E+02</rscale>
<asrwt>0</asrwt>
<pdfrwt beam="2">  1        2 0.80525903E-01 0.98349161E+02</pdfrwt>
<pdfrwt beam="1">  1        1 0.23557000E+00 0.69952401E+02</pdfrwt>
<totfact> 0.64010591E+01</totfact>
</mgrwt>
</event>
<event>
 5    1  0.8891499E-003  0.6628497E+02  0.7546771E-02  0.1406246E+00
          2   -1    0    0  502    0  0.00000000000E+00  0.00000000000E+00  0.12964132447E+04  0.12964132447E+04  0.00000000000E+00 0. -1.
          1   -1    0    0  501    0 -0.00000000000E+00 -0.00000000000E+00 -0.33546610076E+02  0.33546610076E+02  0.00000000000E+00 0. -1.
         25    1    1    2    0    0 -0.58882515115E+01  0.25450464992E+02  0.79807467381E+03  0.80822681386E+03  0.12500000000E+03 0.  0.
          2    1    1    2  501    0  0.53510778080E+02 -0.43194380537E+02  0.16698966952E+02  0.70767318573E+02  0.00000000000E+00 0. -1.
          1    1    1    2  502    0 -0.47622526569E+02  0.17743915545E+02  0.44809299390E+03  0.45096572238E+03  0.00000000000E+00 0. -1.
<mgrwt>
<rscale>  0 0.58040104E+02</rscale>
<asrwt>0</asrwt>
<pdfrwt beam="1">  1        2 0.19944815E+00 0.50820779E+02</pdfrwt>
<pdfrwt beam="2">  1        1 0.51610179E-02 0.66284967E+02</pdfrwt>
<totfact> 0.37861559E+03</totfact>
</mgrwt>
</event>
<event>
 5    1  0.8891499E-003  0.1155916E+03  0.7546771E-02  0.1430918E+00
          2   -1    0    0  502    0  0.00000000000E+00  0.00000000000E+00  0.17299124179E+04  0.17299124179E+04  0.00000000000E+00 0. -1.
          1   -1    0    0  501    0 -0.00000000000E+00 -0.00000000000E+00 -0.34229219032E+03  0.34229219032E+03  0.00000000000E+00 0. -1.
         25    1    1    2    0    0  0.97713971363E+02  0.93894812437E+02  0.77009003977E+03  0.79185094895E+03  0.12500000000E+03 0.  0.
          2    1    1    2  501    0 -0.91123727380E+02 -0.70717285081E+02 -0.32121624055E+03  0.34129802415E+03  0.00000000000E+00 0. -1.
          1    1    1    2  502    0 -0.65902439837E+01 -0.23177527357E+02  0.93874642834E+03  0.93905563509E+03  0.00000000000E+00 0. -1.
<mgrwt>
<rscale>  0 0.52776167E+02</rscale>
<asrwt>0</asrwt>
<pdfrwt beam="1">  1        2 0.26614037E+00 0.24096246E+02</pdfrwt>
<pdfrwt beam="2">  1        1 0.52660338E-01 0.11559160E+03</pdfrwt>
<totfact> 0.13302651E+02</totfact>
</mgrwt>
</event>
<event>
 5    1  0.8891499E-003  0.7403930E+02  0.7546771E-02  0.1409815E+00
         -2   -1    0    0    0  501 -0.00000000000E+00  0.00000000000E+00  0.10454902921E+03  0.10454902921E+03  0.00000000000E+00 0.  1.
          2   -1    0    0  502    0  0.00000000000E+00 -0.00000000000E+00 -0.97382766187E+03  0.97382766187E+03  0.00000000000E+00 0. -1.
         25    1    1    2    0    0  0.21263038495E+02 -0.40823272056E+02 -0.16715869219E+03  0.21374209862E+03  0.12500000000E+03 0.  0.
          1    1    1    2  502    0  0.46376391041E+01  0.76694719002E+02 -0.77531131867E+03  0.77910925324E+03  0.00000000000E+00 0. -1.
         -1    1    1    2    0  501 -0.25900677599E+02 -0.35871446946E+02  0.73191378208E+02  0.85525339228E+02  0.00000000000E+00 0.  1.
<mgrwt>
<rscale>  0 0.57235103E+02</rscale>
<asrwt>0</asrwt>
<pdfrwt beam="2">  1        2 0.14981964E+00 0.74039301E+02</pdfrwt>
<pdfrwt beam="1">  1       -2 0.16084466E-01 0.44244839E+02</pdfrwt>
<totfact> 0.81457655E+02</totfact>
</mgrwt>
</event>
<event>
 5    1  0.8891499E-003  0.1749575E+03  0.7546771E-02  0.1368938E+00
          2   -1    0    0  502    0  0.00000000000E+00  0.00000000000E+00  0.12091587145E+04  0.12091587145E+04  0.00000000000E+00 0. -1.
          1   -1    0    0  501    0 -0.00000000000E+00 -0.00000000000E+00 -0.19591915533E+03  0.19591915533E+03  0.00000000000E+00 0. -1.
         25    1    1    2    0    0 -0.28995637818E+02  0.15575182372E+03  0.16348020617E+03  0.25971167747E+03  0.12500000000E+03 0.  0.
          2    1    1    2  501    0  0.48836588596E+02 -0.17257584183E+03 -0.93148766935E+02  0.20209929824E+03  0.00000000000E+00 0. -1.
          1    1    1    2  502    0 -0.19840950778E+02  0.16824018109E+02  0.94290811993E+03  0.94326689412E+03  0.00000000000E+00 0. -1.
<mgrwt>
<rscale>  0 0.67463230E+02</rscale>
<asrwt>0</asrwt>
<pdfrwt beam="1">  1        2 0.18602441E+00 0.26013668E+02</pdfrwt>
<pdfrwt beam="2">  1        1 0.30141409E-01 0.17495754E+03</pdfrwt>
<totfact> 0.46950077E+02</totfact>
</mgrwt>
</event>
<event>
 5    1  0.8891499E-003  0.7563225E+02  0.7546771E-02  0.1380453E+00
          2   -1    0    0  502    0  0.00000000000E+00  0.00000000000E+00  0.96845103288E+03  0.96845103288E+03  0.00000000000E+00 0. -1.
          1   -1    0    0  501    0 -0.00000000000E+00 -0.00000000000E+00 -0.96835144614E+03  0.96835144614E+03  0.00000000000E+00 0. -1.
         25    1    1    2    0    0  0.37896795464E+02  0.11972494665E+03  0.40611576165E+02  0.18178154492E+03  0.12500000000E+03 0.  0.
          2    1    1    2  501    0 -0.68230620389E+01 -0.74657383650E+02 -0.89532434867E+03  0.89845754960E+03  0.00000000000E+00 0. -1.
          1    1    1    2  502    0 -0.31073733425E+02 -0.45067562996E+02  0.85481235925E+03  0.85656338450E+03  0.00000000000E+00 0. -1.
<mgrwt>
<rscale>  0 0.64344725E+02</rscale>
<asrwt>0</asrwt>
<pdfrwt beam="1">  1        2 0.14899247E+00 0.54741777E+02</pdfrwt>
<pdfrwt beam="2">  1        1 0.14897714E+00 0.75632248E+02</pdfrwt>
<totfact> 0.74542274E+01</totfact>
</mgrwt>
</event>
<event>
 5    1  0.8891499E-003  0.5897577E+02  0.7546771E-02  0.1446295E+00
          1   -1    0    0  501    0 -0.00000000000E+00  0.00000000000E+00  0.26323530056E+03  0.26323530056E+03  0.00000000000E+00 0. -1.
          2   -1    0    0  502    0  0.00000000000E+00 -0.00000000000E+00 -0.99778514110E+03  0.99778514110E+03  0.00000000000E+00 0. -1.
         25    1    1    2    0    0 -0.10928029832E+02  0.98452016891E+02 -0.14043067772E+03  0.21250410987E+03  0.12500000000E+03 0.  0.
          2    1    1    2  501    0 -0.19509622454E+01 -0.42046505471E+02  0.22421889660E+03  0.22813554846E+03  0.00000000000E+00 0. -1.
          1    1    1    2  502    0  0.12878992078E+02 -0.56405511420E+02 -0.81833805942E+03  0.82038078333E+03  0.00000000000E+00 0. -1.
<mgrwt>
<rscale>  0 0.49823620E+02</rscale>
<asrwt>0</asrwt>
<pdfrwt beam="2">  1        2 0.15350540E+00 0.58975773E+02</pdfrwt>
<pdfrwt beam="1">  1        1 0.40497740E-01 0.42091744E+02</pdfrwt>
<totfact> 0.39707353E+02</totfact>
</mgrwt>
</event>
<event>
 5    1  0.8891499E-003  0.1933407E+03  0.7546771E-02  0.1193608E+00
          1   -1    0    0  501    0 -0.00000000000E+00  0.00000000000E+00  0.92171908751E+03  0.92171908751E+03  0.00000000000E+00 0. -1.
          2   -1    0    0  502    0  0.00000000000E+00 -0.00000000000E+00 -0.17515311257E+04  0.17515311257E+04  0.00000000000E+00 0. -1.
         25    1    1    2    0    0 -0.28734399331E+03 -0.69124168333E+02  0.10652629082E+02  0.32106572480E+03  0.12500000000E+03 0.  0.
          2    1    1    2  501    0  0.16357148590E+03  0.89444909285E+02  0.74184471340E+03  0.76491149920E+03  0.00000000000E+00 0. -1.
          1    1    1    2  502    0  0.12377250741E+03 -0.20320740952E+02 -0.15823093807E+04  0.15872729892E+04  0.00000000000E+00 0. -1.
<mgrwt>
<rscale>  0 0.15572615E+03</rscale>
<asrwt>0</asrwt>
<pdfrwt beam="2">  1        2 0.26946632E+00 0.12542953E+03</pdfrwt>
<pdfrwt beam="1">  1        1 0.14180294E+00 0.19334071E+03</pdfrwt>
<totfact> 0.27754723E+01</totfact>
</mgrwt>
</event>
<event>
 5    1  0.8891499E-003  0.8828051E+02  0.7546771E-02  0.1471104E+00
          2   -1    0    0  502    0  0.00000000000E+00  0.00000000000E+00  0.39311110555E+03  0.39311110555E+03  0.00000000000E+00 0. -1.
         -2   -1    0    0    0  501 -0.00000000000E+00 -0.00000000000E+00 -0.12697387136E+03  0.12697387136E+03  0.00000000000E+00 0.  1.
         25    1    1    2    0    0 -0.87102659572E+02 -0.10610111858E+02  0.36927771473E+02  0.15712449868E+03  0.12500000000E+03 0.  0.
          1    1    1    2  502    0  0.45166524838E+01 -0.23035633764E+02  0.26560671639E+03  0.26664202288E+03  0.00000000000E+00 0. -1.
         -1    1    1    2    0  501  0.82586007089E+02  0.33645745622E+02 -0.36397253674E+02  0.96318455346E+02  0.00000000000E+00 0.  1.
<mgrwt>
<rscale>  0 0.45522732E+02</rscale>
<asrwt>0</asrwt>
<pdfrwt beam="1">  1        2 0.60478631E-01 0.23474253E+02</pdfrwt>
<pdfrwt beam="2">  1       -2 0.19534442E-01 0.88280511E+02</pdfrwt>
<totfact> 0.17224209E+03</totfact>
</mgrwt>
</event>
<event>
 5    1  0.8891499E-003  0.1101285E+03  0.7546771E-02  0.1349391E+00
          2   -1    0    0  502    0  0.00000000000E+00  0.00000000000E+00  0.58313853505E+03  0.58313853505E+03  0.00000000000E+00 0. -1.
         -2   -1    0    0    0  501 -0.00000000000E+00 -0.00000000000E+00 -0.25220617917E+03  0.25220617917E+03  0.00000000000E+00 0.  1.
         25    1    1    2    0    0 -0.64374287404E+02  0.51552365498E+02 -0.36467437635E+02  0.15413166214E+03  0.12500000000E+03 0.  0.
          1    1    1    2  502    0 -0.65679195470E+01  0.48270502718E+02  0.49904295293E+03  0.50141504551E+03  0.00000000000E+00 0. -1.
         -1    1    1    2    0  501  0.70942206951E+02 -0.99822868217E+02 -0.13164315940E+03  0.17979800656E+03  0.00000000000E+00 0.  1.
<mgrwt>
<rscale>  0 0.73245746E+02</rscale>
<asrwt>0</asrwt>
<pdfrwt beam="1">  1        2 0.89713620E-01 0.48715285E+02</pdfrwt>
<pdfrwt beam="2">  1       -2 0.38800951E-01 0.11012846E+03</pdfrwt>
<totfact> 0.34225379E+02</totfact>
</mgrwt>
</event>
<event>
 5    1  0.8891499E-003  0.1487250E+03  0.7546771E-02  0.1214684E+00
          1   -1    0    0  501    0 -0.00000000000E+00  0.00000000000E+00  0.26800039542E+03  0.26800039542E+03  0.00000000000E+00 0. -1.
          2   -1    0    0  502    0  0.00000000000E+00 -0.00000000000E+00 -0.11150872395E+04  0.11150872395E+04  0.00000000000E+00 0. -1.
         25    1    1    2    0    0  0.20498722565E+02 -0.67269243955E+02 -0.19253833620E+03  0.24008615061E+03  0.12500000000E+03 0.  0.
          2    1    1    2  501    0 -0.67825794344E+02 -0.11079383784E+03  0.21660725351E+03  0.25257536530E+03  0.00000000000E+00 0. -1.
          1    1    1    2  502    0  0.47327071780E+02  0.17806308179E+03 -0.87115576140E+03  0.89042611902E+03  0.00000000000E+00 0. -1.
<mgrwt>
<rscale>  0 0.13899747E+03</rscale>
<asrwt>0</asrwt>
<pdfrwt beam="2">  1        2 0.17155188E+00 0.14872502E+03</pdfrwt>
<pdfrwt beam="1">  1        1 0.41230831E-01 0.12990617E+03</pdfrwt>
<totfact> 0.31915375E+02</totfact>
</mgrwt>
</event>
<event>
 5    1  0.8891499E-003  0.3459577E+02  0.7546771E-02  0.1635290E+00
          1   -1    0    0  501    0 -0.00000000000E+00  0.00000000000E+00  0.45291940856E+02  0.45291940856E+02  0.00000000000E+00 0. -1.
          2   -1    0    0  502    0  0.00000000000E+00 -0.00000000000E+00 -0.15421725098E+04  0.15421725098E+04  0.00000000000E+00 0. -1.
         25    1    1    2    0    0  0.20136788718E+02  0.22489870110E+02 -0.97131890858E+02  0.16115485950E+03  0.12500000000E+03 0.  0.
          2    1    1    2  501    0  0.13846752447E+02 -0.15649375707E+02  0.47125389355E+01  0.21420633430E+02  0.00000000000E+00 0. -1.
          1    1    1    2  502    0 -0.33983541165E+02 -0.68404944036E+01 -0.14044612170E+04  0.14048889577E+04  0.00000000000E+00 0. -1.
<mgrwt>
<rscale>  0 0.26886935E+02</rscale>
<asrwt>0</asrwt>
<pdfrwt beam="2">  1        2 0.23725725E+00 0.34595775E+02</pdfrwt>
<pdfrwt beam="1">  1        1 0.69679927E-02 0.20895825E+02</pdfrwt>
<totfact> 0.17620422E+03</totfact>
</mgrwt>
</event>
<event>
 5    1  0.8891499E-003  0.7976102E+02  0.7546771E-02  0.1350226E+00
          1   -1    0    0  501    0 -0.00000000000E+00  0.00000000000E+00  0.24029296686E+03  0.24029296686E+03  0.00000000000E+00 0. -1.
          2   -1    0    0  502    0  0.00000000000E+00 -0.00000000000E+00 -0.62739976363E+03  0.62739976363E+03  0.00000000000E+00 0. -1.
         25    1    1    2    0    0 -0.86693942100E+02 -0.20970312682E+02 -0.81001176255E+01  0.15377322757E+03  0.12500000000E+03 0.  0.
          2    1    1    2  501    0  0.18774325406E+02  0.64092079152E+02  0.15767784190E+03  0.17123834773E+03  0.00000000000E+00 0. -1.
          1    1    1    2  502    0  0.67919616694E+02 -0.43121766470E+02 -0.53668452104E+03  0.54268115519E+03  0.00000000000E+00 0. -1.
<mgrwt>
<rscale>  0 0.72985342E+02</rscale>
<asrwt>0</asrwt>
<pdfrwt beam="2">  1        2 0.96523041E-01 0.79761025E+02</pdfrwt>
<pdfrwt beam="1">  1        1 0.36968149E-01 0.66785252E+02</pdfrwt>
<totfact> 0.77106215E+02</totfact>
</mgrwt>
</event>
<event>
 5    1  0.8891499E-003  0.1495164E+03  0.7546771E-02  0.1274325E+00
          2   -1    0    0  502    0  0.00000000000E+00  0.00000000000E+00  0.21498974391E+04  0.21498974391E+04  0.00000000000E+00 0. -1.
          1   -1    0    0  501    0 -0.00000000000E+00 -0.00000000000E+00 -0.94674186838E+03  0.94674186838E+03  0.00000000000E+00 0. -1.
         25    1    1    2    0    0 -0.14736656210E+03 -0.37098493396E+02 -0.82442757699E+03  0.84758423271E+03  0.12500000000E+03 0.  0.
          2    1    1    2  501    0  0.16497701381E+01  0.70790656558E+02 -0.96511366338E+02  0.11970164005E+03  0.00000000000E+00 0. -1.
          1    1    1    2  502    0  0.14571679196E+03 -0.33692163161E+02  0.21240945141E+04  0.21293534348E+04  0.00000000000E+00 0. -1.
<mgrwt>
<rscale>  0 0.10289430E+03</rscale>
<asrwt>0</asrwt>
<pdfrwt beam="1">  1        2 0.33075345E+00 0.14951637E+03</pdfrwt>
<pdfrwt beam="2">  1        1 0.14565260E+00 0.70809878E+02</pdfrwt>
<totfact> 0.17310341E+01</totfact>
</mgrwt>
</event>
<event>
 5    1  0.8891499E-003  0.3320468E+02  0.7546771E-02  0.1576924E+00
          2   -1    0    0  502    0  0.00000000000E+00  0.00000000000E+00  0.61762820787E+03  0.61762820787E+03  0.00000000000E+00 0. -1.
          1   -1    0    0  501    0 -0.00000000000E+00 -0.00000000000E+00 -0.31066654609E+03  0.31066654609E+03  0.00000000000E+00 0. -1.
         25    1    1    2    0    0  0.99635735204E+00 -0.38240396713E+01 -0.61985361543E+01  0.12521596487E+03  0.12500000000E+03 0.  0.
          2    1    1    2  501    0  0.14224160294E+02  0.30657274191E+02 -0.24336437479E+03  0.24569984557E+03  0.00000000000E+00 0. -1.
          1    1    1    2  502    0 -0.15220517646E+02 -0.26833234520E+02  0.55652457273E+03  0.55737894352E+03  0.00000000000E+00 0. -1.
<mgrwt>
<rscale>  0 0.32005392E+02</rscale>
<asrwt>0</asrwt>
<pdfrwt beam="1">  1        2 0.95019724E-01 0.30849419E+02</pdfrwt>
<pdfrwt beam="2">  1        1 0.47794854E-01 0.33204681E+02</pdfrwt>
<totfact> 0.58675001E+02</totfact>
</mgrwt>
</event>
<event>
 5    1  0.8891499E-003  0.2515646E+03  0.7546771E-02  0.1207958E+00
          2   -1    0    0  502    0  0.00000000000E+00  0.00000000000E+00  0.10317011779E+04  0.10317011779E+04  0.00000000000E+00 0. -1.
          1   -1    0    0  501    0 -0.00000000000E+00 -0.00000000000E+00 -0.24590910329E+03  0.24590910329E+03  0.00000000000E+00 0. -1.
         25    1    1    2    0    0  0.13269122300E+03  0.12544689513E+03  0.44707791318E+03  0.49884621339E+03  0.12500000000E+03 0.  0.
          2    1    1    2  501    0 -0.17670317802E+03 -0.19523300396E+03 -0.13638917714E+03  0.29655007435E+03  0.00000000000E+00 0. -1.
          1    1    1    2  502    0  0.44011955018E+02  0.69786108831E+02  0.47510333856E+03  0.48221399345E+03  0.00000000000E+00 0. -1.
<mgrwt>
<rscale>  0 0.14406755E+03</rscale>
<asrwt>0</asrwt>
<pdfrwt beam="1">  1        2 0.15872326E+00 0.82505474E+02</pdfrwt>
<pdfrwt beam="2">  1        1 0.37832170E-01 0.25156464E+03</pdfrwt>
<totfact> 0.41046905E+02</totfact>
</mgrwt>
</event>
<event>
 5    1  0.8891499E-003  0.8337623E+02  0.7546771E-02  0.1379380E+00
          2   -1    0    0  502    0  0.00000000000E+00  0.00000000000E+00  0.98962854475E+02  0.98962854475E+02  0.00000000000E+00 0. -1.
          1   -1    0    0  501    0 -0.00000000000E+00 -0.00000000000E+00 -0.76947967004E+03  0.76947967004E+03  0.00000000000E+00 0. -1.
         25    1    1    2    0    0 -0.82009242125E+02 -0.20055176193E+02 -0.25563646140E+02  0.15299093401E+03  0.12500000000E+03 0.  0.
          2    1    1    2  501    0  0.55769607116E+02  0.62727347057E+02 -0.65828438995E+03  0.66361382385E+03  0.00000000000E+00 0. -1.
          1    1    1    2  502    0  0.26239635009E+02 -0.42672170863E+02  0.13331220523E+02  0.51837766659E+02  0.00000000000E+00 0. -1.
<mgrwt>
<rscale>  0 0.64627151E+02</rscale>
<asrwt>0</asrwt>
<pdfrwt beam="1">  1        2 0.15225054E-01 0.50094237E+02</pdfrwt>
<pdfrwt beam="2">  1        1 0.11838149E+00 0.83376231E+02</pdfrwt>
<totfact> 0.12430391E+03</totfact>
</mgrwt>
</event>
<event>
 5    1  0.8891499E-003  0.9948722E+02  0.7546771E-02  0.1313920E+00
          1   -1    0    0  501    0 -0.00000000000E+00  0.00000000000E+00  0.20686596780E+04  0.20686596780E+04  0.00000000000E+00 0. -1.
          2   -1    0    0  502    0  0.00000000000E+00 -0.00000000000E+00 -0.56732238541E+03  0.56732238541E+03  0.00000000000E+00 0. -1.
         25    1    1    2    0    0  0.59851076680E+02  0.71342949902E+01  0.22694031773E+02  0.14061674375E+03  0.12500000000E+03 0.  0.
          2    1    1    2  501    0 -0.60230167677E+02 -0.80752201716E+02  0.19830536790E+04  0.19856108594E+04  0.00000000000E+00 0. -1.
          1    1    1    2  502    0  0.37909099764E+00  0.73617906725E+02 -0.50441041812E+03  0.50975446031E+03  0.00000000000E+00 0. -1.
<mgrwt>
<rscale>  0 0.85581178E+02</rscale>
<asrwt>0</asrwt>
<pdfrwt beam="2">  1        2 0.87280368E-01 0.73618883E+02</pdfrwt>
<pdfrwt beam="1">  1        1 0.31825533E+00 0.99487220E+02</pdfrwt>
<totfact> 0.26066929E+01</totfact>
</mgrwt>
</event>
<event>
 5    1  0.8891499E-003  0.8403072E+02  0.7546771E-02  0.1364924E+00
          1   -1    0    0  501    0 -0.00000000000E+00  0.00000000000E+00  0.49625511629E+03  0.49625511629E+03  0.00000000000E+00 0. -1.
          2   -1    0    0  502    0  0.00000000000E+00 -0.00000000000E+00 -0.10476410197E+04  0.10476410197E+04  0.00000000000E+00 0. -1.
         25    1    1    2    0    0 -0.95559656693E+02  0.89687429708E+02  0.11876632914E+03  0.21657775503E+03  0.12500000000E+03 0.  0.
          2    1    1    2  501    0  0.44927512005E+02 -0.65760863697E+02  0.32295661933E+03  0.33263185430E+03  0.00000000000E+00 0. -1.
          1    1    1    2  502    0  0.50632144688E+02 -0.23926566011E+02 -0.99310885188E+03  0.99468652666E+03  0.00000000000E+00 0. -1.
<mgrwt>
<rscale>  0 0.68598772E+02</rscale>
<asrwt>0</asrwt>
<pdfrwt beam="2">  1        2 0.16117554E+00 0.56000845E+02</pdfrwt>
<pdfrwt beam="1">  1        1 0.76346942E-01 0.84030724E+02</pdfrwt>
<totfact> 0.17165956E+02</totfact>
</mgrwt>
</event>
<event>
 5    1  0.8891499E-003  0.1753453E+03  0.7546771E-02  0.1348515E+00
          2   -1    0    0  502    0  0.00000000000E+00  0.00000000000E+00  0.19893565353E+03  0.19893565353E+03  0.00000000000E+00 0. -1.
          1   -1    0    0  501    0 -0.00000000000E+00 -0.00000000000E+00 -0.17296838723E+04  0.17296838723E+04  0.00000000000E+00 0. -1.
         25    1    1    2    0    0 -0.13792050921E+03 -0.77163936841E+02 -0.23198052990E+02  0.20282872004E+03  0.12500000000E+03 0.  0.
          2    1    1    2  501    0  0.13946416174E+03  0.10795147598E+03 -0.16095762323E+04  0.16192095051E+04  0.00000000000E+00 0. -1.
          1    1    1    2  502    0 -0.15436525260E+01 -0.30787539140E+02  0.10202606651E+03  0.10658130078E+03  0.00000000000E+00 0. -1.
<mgrwt>
<rscale>  0 0.73520290E+02</rscale>
<asrwt>0</asrwt>
<pdfrwt beam="1">  1        2 0.30605485E-01 0.30826213E+02</pdfrwt>
<pdfrwt beam="2">  1        1 0.26610521E+00 0.17534535E+03</pdfrwt>
<totfact> 0.11757816E+02</totfact>
</mgrwt>
</event>
<event>
 5    1  0.8891499E-003  0.9912787E+02  0.7546771E-02  0.1348966E+00
          2   -1    0    0  502    0  0.00000000000E+00  0.00000000000E+00  0.16636319350E+03  0.16636319350E+03  0.00000000000E+00 0. -1.
          1   -1    0    0  501    0 -0.00000000000E+00 -0.00000000000E+00 -0.12657096385E+04  0.12657096385E+04  0.00000000000E+00 0. -1.
         25    1    1    2    0    0 -0.48543158814E+02  0.14431020059E+03  0.66229912375E+02  0.20782991497E+03  0.12500000000E+03 0.  0.
          2    1    1    2  501    0  0.26350939037E+02 -0.94731942072E+02 -0.11657845935E+04  0.11699240280E+04  0.00000000000E+00 0. -1.
          1    1    1    2  502    0  0.22192219777E+02 -0.49578258516E+02  0.20823619796E+00  0.54318888966E+02  0.00000000000E+00 0. -1.
<mgrwt>
<rscale>  0 0.73378991E+02</rscale>
<asrwt>0</asrwt>
<pdfrwt beam="1">  1        2 0.25594338E-01 0.54318490E+02</pdfrwt>
<pdfrwt beam="2">  1        1 0.19472456E+00 0.99127872E+02</pdfrwt>
<totfact> 0.30506611E+02</totfact>
</mgrwt>
</event>
<event>
 5    1  0.8891499E-003  0.7695702E+02  0.7546771E-02  0.1445556E+00
          2   -1    0    0  502    0  0.00000000000E+00  0.00000000000E+00  0.22692711315E+04  0.22692711315E+04  0.00000000000E+00 0. -1.
         -2   -1    0    0    0  501 -0.00000000000E+00 -0.00000000000E+00 -0.33712227278E+02  0.33712227278E+02  0.00000000000E+00 0.  1.
         25    1    1    2    0    0 -0.27622705616E+02 -0.98642384458E+02  0.12835473766E+04  0.12936816462E+04  0.12500000000E+03 0.  0.
          1    1    1    2  502    0  0.23754236682E+02  0.66439917289E+02  0.96976380905E+03  0.97232729660E+03  0.00000000000E+00 0. -1.
         -1    1    1    2    0  501  0.38684689338E+01  0.32202467169E+02 -0.17752281368E+02  0.36974415985E+02  0.00000000000E+00 0.  1.
<mgrwt>
<rscale>  0 0.49960220E+02</rscale>
<asrwt>0</asrwt>
<pdfrwt beam="1">  1        2 0.34911852E+00 0.76957023E+02</pdfrwt>
<pdfrwt beam="2">  1       -2 0.51864983E-02 0.32433994E+02</pdfrwt>
<totfact> 0.93587575E+02</totfact>
</mgrwt>
</event>
<event>
 5    1  0.8891499E-003  0.1821662E+03  0.7546771E-02  0.1290525E+00
          1   -1    0    0  501    0 -0.00000000000E+00  0.00000000000E+00  0.56241798694E+03  0.56241798694E+03  0.00000000000E+00 0. -1.
          2   -1    0    0  502    0  0.00000000000E+00 -0.00000000000E+00 -0.16572078522E+04  0.16572078522E+04  0.00000000000E+00 0. -1.
         25    1    1    2    0    0 -0.17535700482E+03  0.14971043601E+03 -0.85632822304E+03  0.89559271958E+03  0.12500000000E+03 0.  0.
          2    1    1    2  501    0  0.13335340362E+03 -0.12287285148E+03  0.52680778302E+03  0.55714208972E+03  0.00000000000E+00 0. -1.
          1    1    1    2  502    0  0.42003601190E+02 -0.26837584538E+02 -0.76526942522E+03  0.76689102983E+03  0.00000000000E+00 0. -1.
<mgrwt>
<rscale>  0 0.95289744E+02</rscale>
<asrwt>0</asrwt>
<pdfrwt beam="2">  1        2 0.25495505E+00 0.49845345E+02</pdfrwt>
<pdfrwt beam="1">  1        1 0.86525845E-01 0.18216616E+03</pdfrwt>
<totfact> 0.70038741E+01</totfact>
</mgrwt>
</event>
<event>
 5    1  0.8891499E-003  0.4936600E+02  0.7546771E-02  0.1534824E+00
          1   -1    0    0  501    0 -0.00000000000E+00  0.00000000000E+00  0.10920152166E+04  0.10920152166E+04  0.00000000000E+00 0. -1.
          2   -1    0    0  502    0  0.00000000000E+00 -0.00000000000E+00 -0.15954898814E+03  0.15954898814E+03  0.00000000000E+00 0. -1.
         25    1    1    2    0    0 -0.19182174015E+02  0.54147933193E+02  0.31649483464E+03  0.34509989108E+03  0.12500000000E+03 0.  0.
          2    1    1    2  501    0 -0.74050358585E+01 -0.48712693777E+02  0.75914464231E+03  0.76074197271E+03  0.00000000000E+00 0. -1.
          1    1    1    2  502    0  0.26587209874E+02 -0.54352394159E+01 -0.14317324851E+03  0.14572234093E+03  0.00000000000E+00 0. -1.
<mgrwt>
<rscale>  0 0.36601221E+02</rscale>
<asrwt>0</asrwt>
<pdfrwt beam="2">  1        2 0.24545999E-01 0.27137088E+02</pdfrwt>
<pdfrwt beam="1">  1        1 0.16800234E+00 0.49365996E+02</pdfrwt>
<totfact> 0.42787054E+02</totfact>
</mgrwt>
</event>
<event>
 5    1  0.8891499E-003  0.4922810E+03  0.7546771E-02  0.1193349E+00
          1   -1    0    0  502    0  0.00000000000E+00  0.00000000000E+00  0.42720820183E+04  0.42720820183E+04  0.00000000000E+00 0. -1.
         -3   -1    0    0    0  501 -0.00000000000E+00 -0.00000000000E+00 -0.13663827283E+03  0.13663827283E+03  0.00000000000E+00 0.  1.
         25    1    1    2    0    0  0.50105492124E+03  0.52577830848E+02  0.95836108580E+03  0.10899089105E+04  0.12500000000E+03 0.  0.
          2    1    1    2  502    0 -0.48951496294E+03 -0.45423729953E+01  0.32177800255E+04  0.32548047291E+04  0.00000000000E+00 0. -1.
         -2    1    1    2    0  501 -0.11539958309E+02 -0.48035457853E+02 -0.40697365863E+02  0.64006651507E+02  0.00000000000E+00 0.  1.
<mgrwt>
<rscale>  0 0.15594793E+03</rscale>
<asrwt>0</asrwt>
<pdfrwt beam="1">  1        1 0.65724328E+00 0.49228098E+03</pdfrwt>
<pdfrwt beam="2">  1       -3 0.21021276E-01 0.49402185E+02</pdfrwt>
<totfact> 0.63451414E-01</totfact>
</mgrwt>
</event>
<event>
 5    1  0.8891499E-003  0.5641137E+02  0.7546771E-02  0.1434641E+00
          1   -1    0    0  502    0  0.00000000000E+00  0.00000000000E+00  0.31679628631E+03  0.31679628631E+03  0.00000000000E+00 0. -1.
         -1   -1    0    0    0  501 -0.00000000000E+00 -0.00000000000E+00 -0.68789446031E+02  0.68789446031E+02  0.00000000000E+00 0.  1.
         25    1    1    2    0    0  0.11591940528E+01  0.37440972497E+02  0.89617094346E+02  0.15830159112E+03  0.12500000000E+03 0.  0.
          2    1    1    2  502    0 -0.49163288578E+02 -0.36944289934E+02  0.16748949994E+03  0.17842265017E+03  0.00000000000E+00 0. -1.
         -2    1    1    2    0  501  0.48004094526E+02 -0.49668256244E+00 -0.90997540086E+01  0.48861491052E+02  0.00000000000E+00 0.  1.
<mgrwt>
<rscale>  0 0.52039619E+02</rscale>
<asrwt>0</asrwt>
<pdfrwt beam="1">  1        1 0.48737889E-01 0.56411375E+02</pdfrwt>
<pdfrwt beam="2">  1       -1 0.10582992E-01 0.48006664E+02</pdfrwt>
<totfact> 0.40966771E+03</totfact>
</mgrwt>
</event>
<event>
 5    1  0.8891499E-003  0.1223655E+03  0.7546771E-02  0.1299171E+00
          2   -1    0    0  502    0  0.00000000000E+00  0.00000000000E+00  0.34438671676E+03  0.34438671676E+03  0.00000000000E+00 0. -1.
         -2   -1    0    0    0  501 -0.00000000000E+00 -0.00000000000E+00 -0.20848242917E+04  0.20848242917E+04  0.00000000000E+00 0.  1.
         25    1    1    2    0    0  0.17924612436E+03 -0.62097875342E+02 -0.66187252004E+03  0.69977535824E+03  0.12500000000E+03 0.  0.
          1    1    1    2  502    0 -0.11503258934E+03  0.38315529790E+02  0.31327128342E+03  0.33591587257E+03  0.00000000000E+00 0. -1.
         -1    1    1    2    0  501 -0.64213535022E+02  0.23782345551E+02 -0.13918363383E+04  0.13935197777E+04  0.00000000000E+00 0.  1.
<mgrwt>
<rscale>  0 0.91537489E+02</rscale>
<asrwt>0</asrwt>
<pdfrwt beam="1">  1        2 0.52982572E-01 0.12236547E+03</pdfrwt>
<pdfrwt beam="2">  1       -2 0.32074220E+00 0.68476113E+02</pdfrwt>
<totfact> 0.31003716E+00</totfact>
</mgrwt>
</event>
<event>
 5    1  0.8891499E-003  0.1116927E+03  0.7546771E-02  0.1291685E+00
          2   -1    0    0  502    0  0.00000000000E+00  0.00000000000E+00  0.54576884577E+03  0.54576884577E+03  0.00000000000E+00 0. -1.
          1   -1    0    0  501    0 -0.00000000000E+00 -0.00000000000E+00 -0.15102460923E+04  0.15102460923E+04  0.00000000000E+00 0. -1.
         25    1    1    2    0    0  0.43884019672E+02  0.26586240570E+02  0.52136830412E+01  0.13522136614E+03  0.12500000000E+03 0.  0.
          2    1    1    2  501    0 -0.11306810572E+03  0.14410906255E+02 -0.14395735125E+04  0.14440789344E+04  0.00000000000E+00 0. -1.
          1    1    1    2  502    0  0.69184086053E+02 -0.40997146825E+02  0.46988258300E+03  0.47671463751E+03  0.00000000000E+00 0. -1.
<mgrwt>
<rscale>  0 0.94774526E+02</rscale>
<asrwt>0</asrwt>
<pdfrwt beam="1">  1        2 0.83964438E-01 0.80418927E+02</pdfrwt>
<pdfrwt beam="2">  1        1 0.23234555E+00 0.11169275E+03</pdfrwt>
<totfact> 0.60430763E+01</totfact>
</mgrwt>
</event>
<event>
 5    1  0.8891499E-003  0.1884784E+03  0.7546771E-02  0.1215442E+00
         -1   -1    0    0    0  501 -0.00000000000E+00  0.00000000000E+00  0.82087657498E+02  0.82087657498E+02  0.00000000000E+00 0.  1.
          1   -1    0    0  502    0  0.00000000000E+00 -0.00000000000E+00 -0.26802231781E+04  0.26802231781E+04  0.00000000000E+00 0. -1.
         25    1    1    2    0    0  0.22283612325E+02 -0.12787162117E+03 -0.16061610625E+03  0.24139230407E+03  0.12500000000E+03 0.  0.
          2    1    1    2  502    0  0.61273549213E+02  0.18582566956E+03 -0.24067308531E+04  0.24146716188E+04  0.00000000000E+00 0. -1.
         -2    1    1    2    0  501 -0.83557161539E+02 -0.57954048390E+02 -0.30788561297E+02  0.10624691278E+03  0.00000000000E+00 0.  1.
<mgrwt>
<rscale>  0 0.13844135E+03</rscale>
<asrwt>0</asrwt>
<pdfrwt beam="2">  1        1 0.41234204E+00 0.18847835E+03</pdfrwt>
<pdfrwt beam="1">  1       -1 0.12628870E-01 0.10168811E+03</pdfrwt>
<totfact> 0.51172430E+01</totfact>
</mgrwt>
</event>
<event>
 5    1  0.8891499E-003  0.1057032E+03  0.7546771E-02  0.1297521E+00
         -1   -1    0    0    0  501 -0.00000000000E+00  0.00000000000E+00  0.65267245860E+02  0.65267245860E+02  0.00000000000E+00 0.  1.
          1   -1    0    0  502    0  0.00000000000E+00 -0.00000000000E+00 -0.24488063417E+04  0.24488063417E+04  0.00000000000E+00 0. -1.
         25    1    1    2    0    0  0.12473874699E+02 -0.30336383798E+02 -0.70884795280E+03  0.72053196592E+03  0.12500000000E+03 0.  0.
          2    1    1    2  502    0 -0.27296476753E+01 -0.80441337038E+02 -0.16802696922E+04  0.16821963317E+04  0.00000000000E+00 0. -1.
         -2    1    1    2    0  501 -0.97442270240E+01  0.11077772084E+03  0.55785491510E+01  0.11134529000E+03  0.00000000000E+00 0.  1.
<mgrwt>
<rscale>  0 0.92237758E+02</rscale>
<asrwt>0</asrwt>
<pdfrwt beam="2">  1        1 0.37673940E+00 0.80487637E+02</pdfrwt>
<pdfrwt beam="1">  1       -1 0.10041116E-01 0.10570324E+03</pdfrwt>
<totfact> 0.11687186E+02</totfact>
</mgrwt>
</event>
<event>
 5    1  0.8891499E-003  0.6939722E+02  0.7546771E-02  0.1420886E+00
          1   -1    0    0  501    0 -0.00000000000E+00  0.00000000000E+00  0.84814031534E+03  0.84814031534E+03  0.00000000000E+00 0. -1.
          2   -1    0    0  502    0  0.00000000000E+00 -0.00000000000E+00 -0.20534480243E+04  0.20534480243E+04  0.00000000000E+00 0. -1.
         25    1    1    2    0    0  0.50040963499E+02  0.44663081170E+02 -0.29418328105E+03  0.32660020162E+03  0.12500000000E+03 0.  0.
          2    1    1    2  501    0 -0.36080151550E+02  0.23988232154E+02  0.83066311398E+03  0.83179229471E+03  0.00000000000E+00 0. -1.
          1    1    1    2  502    0 -0.13960811950E+02 -0.68651313324E+02 -0.17417875419E+04  0.17431958434E+04  0.00000000000E+00 0. -1.
<mgrwt>
<rscale>  0 0.54833935E+02</rscale>
<asrwt>0</asrwt>
<pdfrwt beam="2">  1        2 0.31591508E+00 0.69397224E+02</pdfrwt>
<pdfrwt beam="1">  1        1 0.13048313E+00 0.43326812E+02</pdfrwt>
<totfact> 0.25755715E+01</totfact>
</mgrwt>
</event>
<event>
 5    1  0.8891499E-003  0.5575284E+02  0.7546771E-02  0.1473106E+00
         -2   -1    0    0    0  501  0.00000000000E+00  0.00000000000E+00  0.68648785408E+03  0.68648785408E+03  0.00000000000E+00 0.  1.
         -1   -1    0    0    0  502 -0.00000000000E+00 -0.00000000000E+00 -0.27463698645E+03  0.27463698645E+03  0.00000000000E+00 0.  1.
         25    1    1    2    0    0 -0.16258375883E+02  0.33920940422E+02 -0.63637319792E+02  0.14522284068E+03  0.12500000000E+03 0.  0.
         -2    1    1    2    0  502  0.30499044280E+02  0.20309100003E+02 -0.16699964068E+03  0.17097231130E+03  0.00000000000E+00 0.  1.
         -1    1    1    2    0  501 -0.14240668398E+02 -0.54230040425E+02  0.64248782810E+03  0.64492968855E+03  0.00000000000E+00 0.  1.
<mgrwt>
<rscale>  0 0.45198531E+02</rscale>
<asrwt>0</asrwt>
<pdfrwt beam="1">  1       -2 0.10561352E+00 0.55752844E+02</pdfrwt>
<pdfrwt beam="2">  1       -1 0.42251844E-01 0.36642206E+02</pdfrwt>
<totfact> 0.32928227E+01</totfact>
</mgrwt>
</event>
<event>
 5    1  0.8891499E-003  0.5857907E+02  0.7546771E-02  0.1412918E+00
          2   -1    0    0  502    0  0.00000000000E+00  0.00000000000E+00  0.27940981506E+04  0.27940981506E+04  0.00000000000E+00 0. -1.
          1   -1    0    0  501    0 -0.00000000000E+00 -0.00000000000E+00 -0.64128777237E+03  0.64128777237E+03  0.00000000000E+00 0. -1.
         25    1    1    2    0    0  0.58459984602E+02  0.82701974721E+02  0.14994801404E+02  0.16157670157E+03  0.12500000000E+03 0.  0.
          2    1    1    2  501    0 -0.48459822670E+02 -0.25126941273E+02 -0.56636892308E+03  0.56899338715E+03  0.00000000000E+00 0. -1.
          1    1    1    2  502    0 -0.10000161932E+02 -0.57575033448E+02  0.27041844999E+04  0.27048158342E+04  0.00000000000E+00 0. -1.
<mgrwt>
<rscale>  0 0.56547709E+02</rscale>
<asrwt>0</asrwt>
<pdfrwt beam="1">  1        2 0.42986125E+00 0.58579070E+02</pdfrwt>
<pdfrwt beam="2">  1        1 0.98659659E-01 0.54586790E+02</pdfrwt>
<totfact> 0.16059222E+01</totfact>
</mgrwt>
</event>
<event>
 5    1  0.8891499E-003  0.6855492E+02  0.7546771E-02  0.1410568E+00
         -2   -1    0    0    0  501 -0.00000000000E+00  0.00000000000E+00  0.34830236492E+02  0.34830236492E+02  0.00000000000E+00 0.  1.
          2   -1    0    0  502    0  0.00000000000E+00 -0.00000000000E+00 -0.89069211669E+03  0.89069211669E+03  0.00000000000E+00 0. -1.
         25    1    1    2    0    0  0.53047158762E+02 -0.82416874130E+02 -0.19618808640E+03  0.25243079733E+03  0.12500000000E+03 0.  0.
          1    1    1    2  502    0 -0.15847478337E+02  0.44783312777E+02 -0.54187636441E+03  0.54395466904E+03  0.00000000000E+00 0. -1.
         -1    1    1    2    0  501 -0.37199680425E+02  0.37633561353E+02 -0.11779742939E+03  0.12913688681E+03  0.00000000000E+00 0.  1.
<mgrwt>
<rscale>  0 0.57067281E+02</rscale>
<asrwt>0</asrwt>
<pdfrwt beam="2">  1        2 0.13702955E+00 0.47504607E+02</pdfrwt>
<pdfrwt beam="1">  1       -2 0.53584981E-02 0.68554920E+02</pdfrwt>
<totfact> 0.51886553E+03</totfact>
</mgrwt>
</event>
<event>
 5    1  0.8891499E-003  0.1357804E+03  0.7546771E-02  0.1273890E+00
          1   -1    0    0  501    0 -0.00000000000E+00  0.00000000000E+00  0.89557657122E+03  0.89557657122E+03  0.00000000000E+00 0. -1.
          2   -1    0    0  502    0  0.00000000000E+00 -0.00000000000E+00 -0.27620821673E+04  0.27620821673E+04  0.00000000000E+00 0. -1.
         25    1    1    2    0    0  0.17203362479E+02  0.20902339602E+03  0.23195606347E+03  0.33677195718E+03  0.12500000000E+03 0.  0.
          2    1    1    2  501    0  0.13324624629E+02 -0.77157549514E+02  0.60700608678E+03  0.61203531145E+03  0.00000000000E+00 0. -1.
          1    1    1    2  502    0 -0.30527987108E+02 -0.13186584651E+03 -0.27054677463E+04  0.27088514699E+04  0.00000000000E+00 0. -1.
<mgrwt>
<rscale>  0 0.10310943E+03</rscale>
<asrwt>0</asrwt>
<pdfrwt beam="2">  1        2 0.42493571E+00 0.13578039E+03</pdfrwt>
<pdfrwt beam="1">  1        1 0.13778101E+00 0.78299636E+02</pdfrwt>
<totfact> 0.89603308E+00</totfact>
</mgrwt>
</event>
<event>
 5    1  0.8891499E-003  0.1096922E+03  0.7546771E-02  0.1268513E+00
          2   -1    0    0  502    0  0.00000000000E+00  0.00000000000E+00  0.65431318738E+03  0.65431318738E+03  0.00000000000E+00 0. -1.
          1   -1    0    0  501    0 -0.00000000000E+00 -0.00000000000E+00 -0.12241315994E+04  0.12241315994E+04  0.00000000000E+00 0. -1.
         25    1    1    2    0    0 -0.19695235896E+03  0.72367142027E+02  0.24928207119E+02  0.24550692547E+03  0.12500000000E+03 0.  0.
          2    1    1    2  501    0  0.10151285080E+03 -0.36138674253E+02 -0.11061799844E+04  0.11114157730E+04  0.00000000000E+00 0. -1.
          1    1    1    2  502    0  0.95439508161E+02 -0.36228467774E+02  0.51143336519E+03  0.52152208834E+03  0.00000000000E+00 0. -1.
<mgrwt>
<rscale>  0 0.10581988E+03</rscale>
<asrwt>0</asrwt>
<pdfrwt beam="1">  1        2 0.10066357E+00 0.10208429E+03</pdfrwt>
<pdfrwt beam="2">  1        1 0.18832794E+00 0.10969218E+03</pdfrwt>
<totfact> 0.75726694E+01</totfact>
</mgrwt>
</event>
<event>
 5    1  0.8891499E-003  0.1568216E+03  0.7546771E-02  0.1373871E+00
          1   -1    0    0  502    0  0.00000000000E+00  0.00000000000E+00  0.13385321825E+04  0.13385321825E+04  0.00000000000E+00 0. -1.
         -1   -1    0    0    0  501 -0.00000000000E+00 -0.00000000000E+00 -0.86386319024E+03  0.86386319024E+03  0.00000000000E+00 0.  1.
         25    1    1    2    0    0 -0.14328595639E+03 -0.17265933601E+02 -0.16932675008E+03  0.25519703379E+03  0.12500000000E+03 0.  0.
          2    1    1    2  502    0 -0.10842393686E+02 -0.25667080897E+02  0.12856223200E+04  0.12859242225E+04  0.00000000000E+00 0. -1.
         -2    1    1    2    0  501  0.15412835007E+03  0.42933014498E+02 -0.64162657758E+03  0.66127411645E+03  0.00000000000E+00 0.  1.
<mgrwt>
<rscale>  0 0.66102549E+02</rscale>
<asrwt>0</asrwt>
<pdfrwt beam="1">  1        1 0.20592803E+00 0.27863175E+02</pdfrwt>
<pdfrwt beam="2">  1       -1 0.13290203E+00 0.15682157E+03</pdfrwt>
<totfact> 0.60870912E+00</totfact>
</mgrwt>
</event>
<event>
 5    1  0.8891499E-003  0.3841900E+02  0.7546771E-02  0.1564640E+00
          2   -1    0    0  502    0  0.00000000000E+00  0.00000000000E+00  0.99549362572E+03  0.99549362572E+03  0.00000000000E+00 0. -1.
          1   -1    0    0  501    0 -0.00000000000E+00 -0.00000000000E+00 -0.34529862366E+03  0.34529862366E+03  0.00000000000E+00 0. -1.
         25    1    1    2    0    0 -0.67824754393E+01  0.14622408525E+02  0.12419132735E+03  0.17694152309E+03  0.12500000000E+03 0.  0.
          2    1    1    2  501    0  0.35569099198E+02 -0.15056726010E+02 -0.31750758471E+03  0.31984829555E+03  0.00000000000E+00 0. -1.
          1    1    1    2  502    0 -0.28786623759E+02  0.43431748556E+00  0.84351125942E+03  0.84400243075E+03  0.00000000000E+00 0. -1.
<mgrwt>
<rscale>  0 0.33257767E+02</rscale>
<asrwt>0</asrwt>
<pdfrwt beam="1">  1        2 0.15315286E+00 0.28789900E+02</pdfrwt>
<pdfrwt beam="2">  1        1 0.53122866E-01 0.38418996E+02</pdfrwt>
<totfact> 0.29994543E+02</totfact>
</mgrwt>
</event>
<event>
 5    1  0.8891499E-003  0.2542960E+03  0.7546771E-02  0.1161898E+00
         -1   -1    0    0    0  501 -0.00000000000E+00  0.00000000000E+00  0.27362386909E+04  0.27362386909E+04  0.00000000000E+00 0.  1.
          1   -1    0    0  502    0  0.00000000000E+00 -0.00000000000E+00 -0.46193949126E+03  0.46193949126E+03  0.00000000000E+00 0. -1.
         25    1    1    2    0    0 -0.26365793154E+03 -0.16133055283E+03  0.22954467007E+04  0.23195352138E+04  0.12500000000E+03 0.  0.
          2    1    1    2  502    0  0.11295597077E+03  0.76451204844E+02 -0.42123630320E+03  0.44276840582E+03  0.00000000000E+00 0. -1.
         -2    1    1    2    0  501  0.15070196077E+03  0.84879347982E+02  0.40008880206E+03  0.43587456249E+03  0.00000000000E+00 0.  1.
<mgrwt>
<rscale>  0 0.18623892E+03</rscale>
<asrwt>0</asrwt>
<pdfrwt beam="2">  1        1 0.71067616E-01 0.13639589E+03</pdfrwt>
<pdfrwt beam="1">  1       -1 0.42095979E+00 0.25429604E+03</pdfrwt>
<totfact> 0.33102174E-01</totfact>
</mgrwt>
</event>
<event>
 5    1  0.8891499E-003  0.1792348E+03  0.7546771E-02  0.1290782E+00
          2   -1    0    0  502    0  0.00000000000E+00  0.00000000000E+00  0.10242934609E+04  0.10242934609E+04  0.00000000000E+00 0. -1.
          1   -1    0    0  501    0 -0.00000000000E+00 -0.00000000000E+00 -0.47529423042E+03  0.47529423042E+03  0.00000000000E+00 0. -1.
         25    1    1    2    0    0  0.98642615994E+02 -0.84751037948E+02 -0.27763459977E+03  0.33108771513E+03  0.12500000000E+03 0.  0.
          2    1    1    2  501    0  0.39607873590E+02 -0.31390695382E+02 -0.15880649108E+03  0.16665431592E+03  0.00000000000E+00 0. -1.
          1    1    1    2  502    0 -0.13825048958E+03  0.11614173333E+03  0.98544032135E+03  0.10018456603E+04  0.00000000000E+00 0. -1.
<mgrwt>
<rscale>  0 0.95175052E+02</rscale>
<asrwt>0</asrwt>
<pdfrwt beam="1">  1        2 0.15758361E+00 0.17923476E+03</pdfrwt>
<pdfrwt beam="2">  1        1 0.73122189E-01 0.50538692E+02</pdfrwt>
<totfact> 0.17767594E+02</totfact>
</mgrwt>
</event>
<event>
 5    1  0.8891499E-003  0.5359365E+02  0.7546771E-02  0.1472672E+00
          2   -1    0    0  502    0  0.00000000000E+00  0.00000000000E+00  0.30198330703E+04  0.30198330703E+04  0.00000000000E+00 0. -1.
         -2   -1    0    0    0  501 -0.00000000000E+00 -0.00000000000E+00 -0.11116718789E+02  0.11116718789E+02  0.00000000000E+00 0.  1.
         25    1    1    2    0    0  0.38033206214E+02  0.12877461265E+02  0.22234078382E+04  0.22272808015E+04  0.12500000000E+03 0.  0.
          1    1    1    2  502    0 -0.43827427004E+02 -0.50672540554E+02  0.74538026134E+03  0.74838511725E+03  0.00000000000E+00 0. -1.
         -1    1    1    2    0  501  0.57942207906E+01  0.37795079289E+02  0.39928251943E+02  0.55283870308E+02  0.00000000000E+00 0.  1.
<mgrwt>
<rscale>  0 0.45268546E+02</rscale>
<asrwt>0</asrwt>
<pdfrwt beam="1">  1        2 0.46458905E+00 0.53593646E+02</pdfrwt>
<pdfrwt beam="2">  1       -2 0.17102668E-02 0.38236645E+02</pdfrwt>
<totfact> 0.19474049E+03</totfact>
</mgrwt>
</event>
<event>
 5    1  0.8891499E-003  0.1128252E+03  0.7546771E-02  0.1353212E+00
          1   -1    0    0  501    0 -0.00000000000E+00  0.00000000000E+00  0.12319646955E+04  0.12319646955E+04  0.00000000000E+00 0. -1.
          2   -1    0    0  502    0  0.00000000000E+00 -0.00000000000E+00 -0.20921183647E+03  0.20921183647E+03  0.00000000000E+00 0. -1.
         25    1    1    2    0    0  0.91093653904E+02  0.12410719051E+03  0.18453030599E+03  0.27088204508E+03  0.12500000000E+03 0.  0.
          2    1    1    2  501    0 -0.74037883295E+02 -0.81354825790E+02  0.99798730985E+03  0.10040313175E+04  0.00000000000E+00 0. -1.
          1    1    1    2  502    0 -0.17055770610E+02 -0.42752364720E+02 -0.15976475679E+03  0.16626316944E+03  0.00000000000E+00 0. -1.
<mgrwt>
<rscale>  0 0.72064035E+02</rscale>
<asrwt>0</asrwt>
<pdfrwt beam="2">  1        2 0.32186437E-01 0.46028947E+02</pdfrwt>
<pdfrwt beam="1">  1        1 0.18953303E+00 0.11282520E+03</pdfrwt>
<totfact> 0.24865666E+02</totfact>
</mgrwt>
</event>
<event>
 5    1  0.8891499E-003  0.2798212E+03  0.7546771E-02  0.1116450E+00
          2   -1    0    0  502    0  0.00000000000E+00  0.00000000000E+00  0.66557816764E+03  0.66557816764E+03  0.00000000000E+00 0. -1.
          1   -1    0    0  501    0 -0.00000000000E+00 -0.00000000000E+00 -0.13667471071E+04  0.13667471071E+04  0.00000000000E+00 0. -1.
         25    1    1    2    0    0  0.36364034174E+03 -0.34084843149E+02  0.20669574404E+03  0.43788606427E+03  0.12500000000E+03 0.  0.
          2    1    1    2  501    0 -0.20973380259E+03  0.18372949461E+03 -0.11999703162E+04  0.12319389413E+04  0.00000000000E+00 0. -1.
          1    1    1    2  502    0 -0.15390653915E+03 -0.14964465146E+03  0.29210563274E+03  0.36250026922E+03  0.00000000000E+00 0. -1.
<mgrwt>
<rscale>  0 0.24508695E+03</rscale>
<asrwt>0</asrwt>
<pdfrwt beam="1">  1        2 0.10239664E+00 0.21466426E+03</pdfrwt>
<pdfrwt beam="2">  1        1 0.21026878E+00 0.27982122E+03</pdfrwt>
<totfact> 0.54140027E+01</totfact>
</mgrwt>
</event>
<event>
 5    1  0.8891499E-003  0.1083303E+03  0.7546771E-02  0.1282050E+00
          2   -1    0    0  502    0  0.00000000000E+00  0.00000000000E+00  0.94939589787E+03  0.94939589787E+03  0.00000000000E+00 0. -1.
         -2   -1    0    0    0  501 -0.00000000000E+00 -0.00000000000E+00 -0.33608704613E+03  0.33608704613E+03  0.00000000000E+00 0.  1.
         25    1    1    2    0    0  0.11594475632E+03  0.56040217026E+02  0.36187145343E+03  0.40393024305E+03  0.12500000000E+03 0.  0.
          1    1    1    2  502    0 -0.78308579431E+02  0.45930943740E+02  0.55330954532E+03  0.56070789021E+03  0.00000000000E+00 0. -1.
         -1    1    1    2    0  501 -0.37636176890E+02 -0.10197116077E+03 -0.30187214701E+03  0.32084481074E+03  0.00000000000E+00 0.  1.
<mgrwt>
<rscale>  0 0.99170307E+02</rscale>
<asrwt>0</asrwt>
<pdfrwt beam="1">  1        2 0.14606091E+00 0.90784829E+02</pdfrwt>
<pdfrwt beam="2">  1       -2 0.51705700E-01 0.10833032E+03</pdfrwt>
<totfact> 0.10840525E+02</totfact>
</mgrwt>
</event>
<event>
 5    1  0.8891499E-003  0.3052519E+02  0.7546771E-02  0.1647144E+00
          2   -1    0    0  502    0  0.00000000000E+00  0.00000000000E+00  0.35157289114E+03  0.35157289114E+03  0.00000000000E+00 0. -1.
          1   -1    0    0  501    0 -0.00000000000E+00 -0.00000000000E+00 -0.34082042843E+03  0.34082042843E+03  0.00000000000E+00 0. -1.
         25    1    1    2    0    0 -0.32897728505E+02 -0.29674025544E+02  0.14838949745E+03  0.19901570613E+03  0.12500000000E+03 0.  0.
          2    1    1    2  501    0  0.29470464156E+02  0.78083683850E+01 -0.31407784456E+03  0.31555407036E+03  0.00000000000E+00 0. -1.
          3    1    1    2  502    0  0.34272643493E+01  0.21865657159E+02  0.17644080983E+03  0.17782354309E+03  0.00000000000E+00 0. -1.
<mgrwt>
<rscale>  0 0.25992357E+02</rscale>
<asrwt>0</asrwt>
<pdfrwt beam="1">  1        2 0.54088137E-01 0.22132625E+02</pdfrwt>
<pdfrwt beam="2">  1        1 0.52433912E-01 0.30525191E+02</pdfrwt>
<totfact> 0.93295680E+02</totfact>
</mgrwt>
</event>
<event>
 5    1  0.8891499E-003  0.5574356E+02  0.7546771E-02  0.1446605E+00
          2   -1    0    0  502    0  0.00000000000E+00  0.00000000000E+00  0.17159336633E+04  0.17159336633E+04  0.00000000000E+00 0. -1.
         -2   -1    0    0    0  501 -0.00000000000E+00 -0.00000000000E+00 -0.12963432399E+03  0.12963432399E+03  0.00000000000E+00 0.  1.
         25    1    1    2    0    0 -0.46171632892E+02 -0.27972971658E+02  0.32215637990E+03  0.34974853815E+03  0.12500000000E+03 0.  0.
          1    1    1    2  502    0  0.11218469724E+02  0.55401655214E+02  0.13751187190E+04  0.13762800183E+04  0.00000000000E+00 0. -1.
         -1    1    1    2    0  501  0.34953163167E+02 -0.27428683556E+02 -0.11097575961E+03  0.11953943081E+03  0.00000000000E+00 0.  1.
<mgrwt>
<rscale>  0 0.49766515E+02</rscale>
<asrwt>0</asrwt>
<pdfrwt beam="1">  1        2 0.26398978E+00 0.55743559E+02</pdfrwt>
<pdfrwt beam="2">  1       -2 0.19943743E-01 0.44430353E+02</pdfrwt>
<totfact> 0.24057373E+02</totfact>
</mgrwt>
</event>
<event>
 5    1  0.8891499E-003  0.1396713E+03  0.7546771E-02  0.1231512E+00
          1   -1    0    0  501    0 -0.00000000000E+00  0.00000000000E+00  0.66714026944E+03  0.66714026944E+03  0.00000000000E+00 0. -1.
          2   -1    0    0  502    0  0.00000000000E+00 -0.00000000000E+00 -0.10485308675E+04  0.10485308675E+04  0.00000000000E+00 0. -1.
         25    1    1    2    0    0  0.80313970703E+02 -0.77639052507E+02 -0.39671612066E+03  0.43068182775E+03  0.12500000000E+03 0.  0.
          2    1    1    2  501    0  0.17589277719E+02  0.13991435958E+03  0.63708030328E+03  0.65250036286E+03  0.00000000000E+00 0. -1.
          1    1    1    2  502    0 -0.97903248422E+02 -0.62275307075E+02 -0.62175478073E+03  0.63248894637E+03  0.00000000000E+00 0. -1.
<mgrwt>
<rscale>  0 0.12730374E+03</rscale>
<asrwt>0</asrwt>
<pdfrwt beam="2">  1        2 0.16131244E+00 0.11603129E+03</pdfrwt>
<pdfrwt beam="1">  1        1 0.10263696E+00 0.13967131E+03</pdfrwt>
<totfact> 0.10921192E+02</totfact>
</mgrwt>
</event>
<event>
 5    1  0.8891499E-003  0.4678844E+02  0.7546771E-02  0.1570924E+00
          2   -1    0    0  502    0  0.00000000000E+00  0.00000000000E+00  0.22426891475E+04  0.22426891475E+04  0.00000000000E+00 0. -1.
          1   -1    0    0  501    0 -0.00000000000E+00 -0.00000000000E+00 -0.52960412050E+02  0.52960412050E+02  0.00000000000E+00 0. -1.
         25    1    1    2    0    0  0.50483219819E+02 -0.46236319650E+02  0.46094476195E+03  0.48247427528E+03  0.12500000000E+03 0.  0.
          2    1    1    2  501    0 -0.19045149748E+02  0.12399884770E+02 -0.38811955227E+02  0.44976024055E+02  0.00000000000E+00 0. -1.
          1    1    1    2  502    0 -0.31438070071E+02  0.33836434881E+02  0.17675959287E+04  0.17681992602E+04  0.00000000000E+00 0. -1.
<mgrwt>
<rscale>  0 0.32608556E+02</rscale>
<asrwt>0</asrwt>
<pdfrwt beam="1">  1        2 0.34502903E+00 0.46788436E+02</pdfrwt>
<pdfrwt beam="2">  1        1 0.81477574E-02 0.22726083E+02</pdfrwt>
<totfact> 0.64777751E+02</totfact>
</mgrwt>
</event>
<event>
 5    1  0.8891499E-003  0.2134250E+03  0.7546771E-02  0.1321474E+00
         -2   -1    0    0    0  501 -0.00000000000E+00  0.00000000000E+00  0.23186256923E+03  0.23186256923E+03  0.00000000000E+00 0.  1.
          2   -1    0    0  502    0  0.00000000000E+00 -0.00000000000E+00 -0.11002796927E+04  0.11002796927E+04  0.00000000000E+00 0. -1.
         25    1    1    2    0    0 -0.19012477610E+03  0.11833753716E+03  0.97606737318E+02  0.27441442811E+03  0.12500000000E+03 0.  0.
          1    1    1    2  502    0  0.19451402040E+03 -0.86569429317E+02 -0.99315568480E+03  0.10157205248E+04  0.00000000000E+00 0. -1.
         -1    1    1    2    0  501 -0.43892443021E+01 -0.31768107838E+02  0.27131823988E+02  0.42007309056E+02  0.00000000000E+00 0.  1.
<mgrwt>
<rscale>  0 0.82731596E+02</rscale>
<asrwt>0</asrwt>
<pdfrwt beam="2">  1        2 0.16927380E+00 0.21342499E+03</pdfrwt>
<pdfrwt beam="1">  1       -2 0.35671165E-01 0.32069895E+02</pdfrwt>
<totfact> 0.16737844E+02</totfact>
</mgrwt>
</event>
<event>
 5    1  0.8891499E-003  0.3896559E+02  0.7546771E-02  0.1537644E+00
          2   -1    0    0  502    0  0.00000000000E+00  0.00000000000E+00  0.10725421227E+02  0.10725421227E+02  0.00000000000E+00 0. -1.
          1   -1    0    0  501    0 -0.00000000000E+00 -0.00000000000E+00 -0.34865952893E+04  0.34865952893E+04  0.00000000000E+00 0. -1.
         25    1    1    2    0    0 -0.11414500193E+02 -0.48100166837E+02 -0.69707634064E+03  0.70991854571E+03  0.12500000000E+03 0.  0.
          2    1    1    2  501    0  0.32433273310E+02  0.21691747187E+02 -0.27145641467E+04  0.27148445546E+04  0.00000000000E+00 0. -1.
          1    1    1    2  502    0 -0.21018773117E+02  0.26408419650E+02 -0.64229380809E+02  0.72557610289E+02  0.00000000000E+00 0. -1.
<mgrwt>
<rscale>  0 0.36265191E+02</rscale>
<asrwt>0</asrwt>
<pdfrwt beam="1">  1        2 0.16500639E-02 0.33751940E+02</pdfrwt>
<pdfrwt beam="2">  1        1 0.53639956E+00 0.38965585E+02</pdfrwt>
<totfact> 0.34197065E+02</totfact>
</mgrwt>
</event>
<event>
 5    1  0.8891499E-003  0.9026821E+02  0.7546771E-02  0.1440615E+00
         -2   -1    0    0    0  501 -0.00000000000E+00  0.00000000000E+00  0.15934499376E+03  0.15934499376E+03  0.00000000000E+00 0.  1.
          2   -1    0    0  502    0  0.00000000000E+00 -0.00000000000E+00 -0.13567200512E+04  0.13567200512E+04  0.00000000000E+00 0. -1.
         25    1    1    2    0    0 -0.40851312685E+00 -0.69775352626E+02 -0.17091402343E+03  0.22294701192E+03  0.12500000000E+03 0.  0.
          1    1    1    2  502    0  0.21438493956E+02  0.89285835757E+02 -0.11564052174E+04  0.11600450837E+04  0.00000000000E+00 0. -1.
         -1    1    1    2    0  501 -0.21029980830E+02 -0.19510483131E+02  0.12994418337E+03  0.13307294931E+03  0.00000000000E+00 0.  1.
<mgrwt>
<rscale>  0 0.50886983E+02</rscale>
<asrwt>0</asrwt>
<pdfrwt beam="2">  1        2 0.20872616E+00 0.90268214E+02</pdfrwt>
<pdfrwt beam="1">  1       -2 0.24514615E-01 0.28686566E+02</pdfrwt>
<totfact> 0.24310304E+02</totfact>
</mgrwt>
</event>
<event>
 5    1  0.8891499E-003  0.1091998E+03  0.7546771E-02  0.1416561E+00
          2   -1    0    0  502    0  0.00000000000E+00  0.00000000000E+00  0.38801821215E+03  0.38801821215E+03  0.00000000000E+00 0. -1.
         -2   -1    0    0    0  501 -0.00000000000E+00 -0.00000000000E+00 -0.10228585040E+04  0.10228585040E+04  0.00000000000E+00 0.  1.
         25    1    1    2    0    0  0.57902147651E+01  0.13596040502E+03 -0.67732830198E+02  0.19680318749E+03  0.12500000000E+03 0.  0.
          1    1    1    2  502    0 -0.43840970780E+01 -0.28127914723E+02  0.31958337664E+03  0.32084877204E+03  0.00000000000E+00 0. -1.
         -3    1    1    2    0  501 -0.14061176872E+01 -0.10783249029E+03 -0.88669083834E+03  0.89322475667E+03  0.00000000000E+00 0.  1.
<mgrwt>
<rscale>  0 0.55755244E+02</rscale>
<asrwt>0</asrwt>
<pdfrwt beam="1">  1        2 0.59695111E-01 0.28467523E+02</pdfrwt>
<pdfrwt beam="2">  1       -2 0.15736284E+00 0.10919978E+03</pdfrwt>
<totfact> 0.24591269E+01</totfact>
</mgrwt>
</event>
<event>
 5    1  0.8891499E-003  0.2452883E+03  0.7546771E-02  0.1170223E+00
          1   -1    0    0  501    0 -0.00000000000E+00  0.00000000000E+00  0.30902526446E+03  0.30902526446E+03  0.00000000000E+00 0. -1.
          2   -1    0    0  502    0  0.00000000000E+00 -0.00000000000E+00 -0.31196524072E+04  0.31196524072E+04  0.00000000000E+00 0. -1.
         25    1    1    2    0    0 -0.20573112359E+03  0.24526357231E+03 -0.77259789293E+03  0.84558383338E+03  0.12500000000E+03 0.  0.
          2    1    1    2  501    0  0.11287419323E+01 -0.12847246404E+03  0.25100123559E+03  0.28197175097E+03  0.00000000000E+00 0. -1.
          1    1    1    2  502    0  0.20460238166E+03 -0.11679110828E+03 -0.22890304855E+04  0.23011220874E+04  0.00000000000E+00 0. -1.
<mgrwt>
<rscale>  0 0.17752186E+03</rscale>
<asrwt>0</asrwt>
<pdfrwt beam="2">  1        2 0.47994654E+00 0.24528832E+03</pdfrwt>
<pdfrwt beam="1">  1        1 0.47542347E-01 0.12847742E+03</pdfrwt>
<totfact> 0.20785372E+01</totfact>
</mgrwt>
</event>
<event>
 5    1  0.8891499E-003  0.3333372E+02  0.7546771E-02  0.1567426E+00
         -2   -1    0    0    0  501  0.00000000000E+00  0.00000000000E+00  0.53796088205E+02  0.53796088205E+02  0.00000000000E+00 0.  1.
         -1   -1    0    0    0  502 -0.00000000000E+00 -0.00000000000E+00 -0.43329404723E+03  0.43329404723E+03  0.00000000000E+00 0.  1.
         25    1    1    2    0    0  0.23211087163E+02  0.77012245069E+01 -0.13818837530E+03  0.18793373964E+03  0.12500000000E+03 0.  0.
         -2    1    1    2    0  502 -0.40980141509E+01 -0.34117443709E+02 -0.25953692373E+03  0.26180184962E+03  0.00000000000E+00 0.  1.
         -1    1    1    2    0  501 -0.19113073012E+02  0.26416219203E+02  0.18227340000E+02  0.37354546181E+02  0.00000000000E+00 0.  1.
<mgrwt>
<rscale>  0 0.32967656E+02</rscale>
<asrwt>0</asrwt>
<pdfrwt beam="1">  1       -2 0.82763212E-02 0.32605616E+02</pdfrwt>
<pdfrwt beam="2">  1       -1 0.66660623E-01 0.33333716E+02</pdfrwt>
<totfact> 0.13829178E+03</totfact>
</mgrwt>
</event>
<event>
 5    1  0.8891499E-003  0.5547077E+02  0.7546771E-02  0.1503138E+00
          1   -1    0    0  501    0 -0.00000000000E+00  0.00000000000E+00  0.79962279809E+03  0.79962279809E+03  0.00000000000E+00 0. -1.
          2   -1    0    0  502    0  0.00000000000E+00 -0.00000000000E+00 -0.13687185510E+04  0.13687185510E+04  0.00000000000E+00 0. -1.
         25    1    1    2    0    0 -0.32646040843E+02 -0.58434041221E+02 -0.17755489413E+03  0.22722465004E+03  0.12500000000E+03 0.  0.
          2    1    1    2  501    0  0.29690587798E+02  0.31698220642E+01  0.77384331007E+03  0.77441916771E+03  0.00000000000E+00 0. -1.
          1    1    1    2  502    0  0.29554530456E+01  0.55264219157E+02 -0.11653841688E+04  0.11666975313E+04  0.00000000000E+00 0. -1.
<mgrwt>
<rscale>  0 0.40697904E+02</rscale>
<asrwt>0</asrwt>
<pdfrwt beam="2">  1        2 0.21057208E+00 0.55470773E+02</pdfrwt>
<pdfrwt beam="1">  1        1 0.12301889E+00 0.29859316E+02</pdfrwt>
<totfact> 0.63924915E+01</totfact>
</mgrwt>
</event>
<event>
 5    1  0.8891499E-003  0.8187273E+02  0.7546771E-02  0.1472324E+00
         -2   -1    0    0    0  501 -0.00000000000E+00  0.00000000000E+00  0.79131673455E+01  0.79131673455E+01  0.00000000000E+00 0.  1.
          2   -1    0    0  502    0  0.00000000000E+00 -0.00000000000E+00 -0.33172918701E+04  0.33172918701E+04  0.00000000000E+00 0. -1.
         25    1    1    2    0    0  0.58386870248E+02 -0.24675374360E+02 -0.14906849392E+04  0.14972589919E+04  0.12500000000E+03 0.  0.
          1    1    1    2  502    0  0.25088393606E+02 -0.41909495141E+00 -0.14024058802E+04  0.14026303348E+04  0.00000000000E+00 0. -1.
         -1    1    1    2    0  501 -0.83475263854E+02  0.25094469311E+02 -0.41628788329E+03  0.42531571078E+03  0.00000000000E+00 0.  1.
<mgrwt>
<rscale>  0 0.45324848E+02</rscale>
<asrwt>0</asrwt>
<pdfrwt beam="2">  1        2 0.51035242E+00 0.25091894E+02</pdfrwt>
<pdfrwt beam="1">  1       -2 0.12174108E-02 0.81872730E+02</pdfrwt>
<totfact> 0.28076214E+03</totfact>
</mgrwt>
</event>
<event>
 5    1  0.8891499E-003  0.2790677E+02  0.7546771E-02  0.1634653E+00
          2   -1    0    0  502    0  0.00000000000E+00  0.00000000000E+00  0.45021894203E+03  0.45021894203E+03  0.00000000000E+00 0. -1.
          1   -1    0    0  501    0 -0.00000000000E+00 -0.00000000000E+00 -0.25238334027E+03  0.25238334027E+03  0.00000000000E+00 0. -1.
         25    1    1    2    0    0  0.25355351188E+02  0.81366216198E+01 -0.65160553216E+01  0.12797092413E+03  0.12500000000E+03 0.  0.
          2    1    1    2  501    0 -0.21925347811E+02  0.17635720673E+02 -0.18363313976E+03  0.18577639661E+03  0.00000000000E+00 0. -1.
          1    1    1    2  502    0 -0.34300033765E+01 -0.25772342292E+02  0.38798479684E+03  0.38885496156E+03  0.00000000000E+00 0. -1.
<mgrwt>
<rscale>  0 0.26936306E+02</rscale>
<asrwt>0</asrwt>
<pdfrwt beam="1">  1        2 0.69264452E-01 0.25999588E+02</pdfrwt>
<pdfrwt beam="2">  1        1 0.38828206E-01 0.27906772E+02</pdfrwt>
<totfact> 0.10362867E+03</totfact>
</mgrwt>
</event>
<event>
 5    1  0.8891499E-003  0.7455709E+02  0.7546771E-02  0.1510311E+00
          1   -1    0    0  501    0 -0.00000000000E+00  0.00000000000E+00  0.66961310254E+02  0.66961310254E+02  0.00000000000E+00 0. -1.
          2   -1    0    0  502    0  0.00000000000E+00 -0.00000000000E+00 -0.26883773400E+04  0.26883773400E+04  0.00000000000E+00 0. -1.
         25    1    1    2    0    0  0.93770484503E+02 -0.14888386705E+02 -0.16824843653E+03  0.23010237768E+03  0.12500000000E+03 0.  0.
          2    1    1    2  501    0 -0.20011250995E+02  0.68665056252E+01  0.32326958610E+02  0.38634587080E+02  0.00000000000E+00 0. -1.
          1    1    1    2  502    0 -0.73759233508E+02  0.80218810796E+01 -0.24854945518E+04  0.24866016854E+04  0.00000000000E+00 0. -1.
<mgrwt>
<rscale>  0 0.39716117E+02</rscale>
<asrwt>0</asrwt>
<pdfrwt beam="2">  1        2 0.41359653E+00 0.74557095E+02</pdfrwt>
<pdfrwt beam="1">  1        1 0.10301740E-01 0.21156537E+02</pdfrwt>
<totfact> 0.26527008E+02</totfact>
</mgrwt>
</event>
<event>
 5    1  0.8891499E-003  0.4552510E+02  0.7546771E-02  0.1542096E+00
          2   -1    0    0  502    0  0.00000000000E+00  0.00000000000E+00  0.12395545741E+04  0.12395545741E+04  0.00000000000E+00 0. -1.
          1   -1    0    0  501    0 -0.00000000000E+00 -0.00000000000E+00 -0.67125803550E+02  0.67125803550E+02  0.00000000000E+00 0. -1.
         25    1    1    2    0    0  0.53943813345E+02  0.45170785723E+02  0.64146471542E+03  0.65730686594E+03  0.12500000000E+03 0.  0.
          2    1    1    2  501    0 -0.24470879635E+02 -0.13738239537E+02 -0.55043089678E+02  0.61784341843E+02  0.00000000000E+00 0. -1.
          1    1    1    2  502    0 -0.29472933710E+02 -0.31432546186E+02  0.58600714484E+03  0.58758916990E+03  0.00000000000E+00 0. -1.
<mgrwt>
<rscale>  0 0.35743476E+02</rscale>
<asrwt>0</asrwt>
<pdfrwt beam="1">  1        2 0.19070069E+00 0.45525096E+02</pdfrwt>
<pdfrwt beam="2">  1        1 0.10327048E-01 0.28063556E+02</pdfrwt>
<totfact> 0.15326046E+03</totfact>
</mgrwt>
</event>
<event>
 5    1  0.8891499E-003  0.4469429E+02  0.7546771E-02  0.1503535E+00
          1   -1    0    0  501    0 -0.00000000000E+00  0.00000000000E+00  0.10590496309E+04  0.10590496309E+04  0.00000000000E+00 0. -1.
          2   -1    0    0  502    0  0.00000000000E+00 -0.00000000000E+00 -0.16916268255E+03  0.16916268255E+03  0.00000000000E+00 0. -1.
         25    1    1    2    0    0 -0.49586189446E+02 -0.98040045499E+01  0.39926701646E+03  0.42141910151E+03  0.12500000000E+03 0.  0.
          2    1    1    2  501    0  0.37624653012E+02 -0.25165058267E+02  0.64574336167E+03  0.64732787968E+03  0.00000000000E+00 0. -1.
          1    1    1    2  502    0  0.11961536434E+02  0.34969062817E+02 -0.15512342980E+03  0.15946533223E+03  0.00000000000E+00 0. -1.
<mgrwt>
<rscale>  0 0.40642633E+02</rscale>
<asrwt>0</asrwt>
<pdfrwt beam="2">  1        2 0.26025029E-01 0.36958270E+02</pdfrwt>
<pdfrwt beam="1">  1        1 0.16293071E+00 0.44694289E+02</pdfrwt>
<totfact> 0.43267282E+02</totfact>
</mgrwt>
</event>
<event>
 5    1  0.8891499E-003  0.1102217E+03  0.7546771E-02  0.1298168E+00
          1   -1    0    0  502    0  0.00000000000E+00  0.00000000000E+00  0.13100112294E+04  0.13100112294E+04  0.00000000000E+00 0. -1.
         -1   -1    0    0    0  501 -0.00000000000E+00 -0.00000000000E+00 -0.40825836448E+02  0.40825836448E+02  0.00000000000E+00 0.  1.
         25    1    1    2    0    0 -0.29719711012E+02  0.29771874022E+02  0.54474982676E+03  0.56048817959E+03  0.12500000000E+03 0.  0.
          2    1    1    2  502    0 -0.52404169338E+02 -0.10328715552E+03  0.64289418104E+03  0.65324372288E+03  0.00000000000E+00 0. -1.
         -2    1    1    2    0  501  0.82123880350E+02  0.73515281493E+02  0.81541385176E+02  0.13710516341E+03  0.00000000000E+00 0.  1.
<mgrwt>
<rscale>  0 0.91962165E+02</rscale>
<asrwt>0</asrwt>
<pdfrwt beam="1">  1        1 0.20154016E+00 0.76727523E+02</pdfrwt>
<pdfrwt beam="2">  1       -1 0.62808989E-02 0.11022172E+03</pdfrwt>
<totfact> 0.12425003E+03</totfact>
</mgrwt>
</event>
<event>
 5    1  0.8891499E-003  0.4810204E+02  0.7546771E-02  0.1518032E+00
          2   -1    0    0  502    0  0.00000000000E+00  0.00000000000E+00  0.75547580208E+03  0.75547580208E+03  0.00000000000E+00 0. -1.
          1   -1    0    0  501    0 -0.00000000000E+00 -0.00000000000E+00 -0.70035667070E+03  0.70035667070E+03  0.00000000000E+00 0. -1.
         25    1    1    2    0    0 -0.75133209232E+02 -0.21262699720E+02  0.11534503931E+03  0.18715389289E+03  0.12500000000E+03 0.  0.
          2    1    1    2  501    0  0.28706813287E+02  0.12039838670E+02 -0.66315957304E+03  0.66388979369E+03  0.00000000000E+00 0. -1.
          1    1    1    2  502    0  0.46426395945E+02  0.92228610503E+01  0.60293366511E+03  0.60478878621E+03  0.00000000000E+00 0. -1.
<mgrwt>
<rscale>  0 0.38696085E+02</rscale>
<asrwt>0</asrwt>
<pdfrwt beam="1">  1        2 0.11622705E+00 0.48102035E+02</pdfrwt>
<pdfrwt beam="2">  1        1 0.10774718E+00 0.31129389E+02</pdfrwt>
<totfact> 0.17110946E+02</totfact>
</mgrwt>
</event>
<event>
 5    1  0.8891499E-003  0.4887428E+02  0.7546771E-02  0.1491262E+00
          2   -1    0    0  502    0  0.00000000000E+00  0.00000000000E+00  0.26566073842E+04  0.26566073842E+04  0.00000000000E+00 0. -1.
          1   -1    0    0  501    0 -0.00000000000E+00 -0.00000000000E+00 -0.53884447034E+03  0.53884447034E+03  0.00000000000E+00 0. -1.
         25    1    1    2    0    0  0.81390218435E+02  0.18160278498E+02  0.13900829754E+04  0.13981809046E+04  0.12500000000E+03 0.  0.
          2    1    1    2  501    0 -0.48836961215E+02 -0.10364888791E+01 -0.53341135814E+03  0.53564335157E+03  0.00000000000E+00 0. -1.
          1    1    1    2  502    0 -0.32553257220E+02 -0.17123789618E+02  0.12610912966E+04  0.12616275984E+04  0.00000000000E+00 0. -1.
<mgrwt>
<rscale>  0 0.42399402E+02</rscale>
<asrwt>0</asrwt>
<pdfrwt beam="1">  1        2 0.40870882E+00 0.36782315E+02</pdfrwt>
<pdfrwt beam="2">  1        1 0.82899150E-01 0.48874283E+02</pdfrwt>
<totfact> 0.25752872E+01</totfact>
</mgrwt>
</event>
<event>
 5    1  0.8891499E-003  0.2524036E+03  0.7546771E-02  0.1247688E+00
          2   -1    0    0  502    0  0.00000000000E+00  0.00000000000E+00  0.85541118507E+03  0.85541118507E+03  0.00000000000E+00 0. -1.
         -2   -1    0    0    0  501 -0.00000000000E+00 -0.00000000000E+00 -0.36777769653E+03  0.36777769653E+03  0.00000000000E+00 0.  1.
         25    1    1    2    0    0 -0.17263758096E+03 -0.24490523225E+03  0.58313367268E+03  0.66742204591E+03  0.12500000000E+03 0.  0.
          1    1    1    2  502    0  0.44259805967E+02  0.31758372412E+02  0.17792216712E+03  0.18607477582E+03  0.00000000000E+00 0. -1.
         -1    1    1    2    0  501  0.12837777499E+03  0.21314685984E+03 -0.27342235126E+03  0.36969205988E+03  0.00000000000E+00 0.  1.
<mgrwt>
<rscale>  0 0.11725905E+03</rscale>
<asrwt>0</asrwt>
<pdfrwt beam="1">  1        2 0.13160172E+00 0.54474991E+02</pdfrwt>
<pdfrwt beam="2">  1       -2 0.56581184E-01 0.25240363E+03</pdfrwt>
<totfact> 0.10507496E+02</totfact>
</mgrwt>
</event>
<event>
 5    1  0.8891499E-003  0.1524033E+03  0.7546771E-02  0.1200333E+00
          1   -1    0    0  501    0 -0.00000000000E+00  0.00000000000E+00  0.83116743538E+03  0.83116743538E+03  0.00000000000E+00 0. -1.
          2   -1    0    0  502    0  0.00000000000E+00 -0.00000000000E+00 -0.28387764576E+04  0.28387764576E+04  0.00000000000E+00 0. -1.
         25    1    1    2    0    0  0.44277661870E+02  0.16325570893E+03 -0.32744226136E+03  0.38917396157E+03  0.12500000000E+03 0.  0.
          2    1    1    2  501    0 -0.14197038169E+03 -0.41310452221E+02  0.79098362848E+03  0.80468456134E+03  0.00000000000E+00 0. -1.
          3    1    1    2  502    0  0.97692719816E+02 -0.12194525671E+03 -0.24711503893E+04  0.24760853700E+04  0.00000000000E+00 0. -1.
<mgrwt>
<rscale>  0 0.15011370E+03</rscale>
<asrwt>0</asrwt>
<pdfrwt beam="2">  1        2 0.43673484E+00 0.15240328E+03</pdfrwt>
<pdfrwt beam="1">  1        1 0.12787191E+00 0.14785852E+03</pdfrwt>
<totfact> 0.86590449E+00</totfact>
</mgrwt>
</event>
<event>
 5    1  0.8891499E-003  0.1402236E+03  0.7546771E-02  0.1262776E+00
          2   -1    0    0  502    0  0.00000000000E+00  0.00000000000E+00  0.15792151619E+04  0.15792151619E+04  0.00000000000E+00 0. -1.
          1   -1    0    0  501    0 -0.00000000000E+00 -0.00000000000E+00 -0.36294485205E+03  0.36294485205E+03  0.00000000000E+00 0. -1.
         25    1    1    2    0    0  0.58338586876E+02 -0.24255454182E+02  0.58791259923E+02  0.15189842007E+03  0.12500000000E+03 0.  0.
          2    1    1    2  501    0  0.66518943106E+02 -0.52021530683E+02 -0.30704566840E+03  0.31844630934E+03  0.00000000000E+00 0. -1.
          1    1    1    2  502    0 -0.12485752998E+03  0.76276984865E+02  0.14645247183E+04  0.14718152845E+04  0.00000000000E+00 0. -1.
<mgrwt>
<rscale>  0 0.10881740E+03</rscale>
<asrwt>0</asrwt>
<pdfrwt beam="1">  1        2 0.24295618E+00 0.14022364E+03</pdfrwt>
<pdfrwt beam="2">  1        1 0.55837670E-01 0.84445304E+02</pdfrwt>
<totfact> 0.12427572E+02</totfact>
</mgrwt>
</event>
<event>
 5    1  0.8891499E-003  0.1881314E+03  0.7546771E-02  0.1318300E+00
          1   -1    0    0  501    0 -0.00000000000E+00  0.00000000000E+00  0.13640338686E+04  0.13640338686E+04  0.00000000000E+00 0. -1.
          2   -1    0    0  502    0  0.00000000000E+00 -0.00000000000E+00 -0.59381115116E+03  0.59381115116E+03  0.00000000000E+00 0. -1.
         25    1    1    2    0    0 -0.20988259012E+03  0.69988294300E+02  0.17495016784E+03  0.30851519282E+03  0.12500000000E+03 0.  0.
          2    1    1    2  501    0  0.17294844770E+03 -0.63928531682E+02  0.11140491536E+04  0.11292048261E+04  0.00000000000E+00 0. -1.
          1    1    1    2  502    0  0.36934142413E+02 -0.60597626182E+01 -0.51877660400E+03  0.52012500080E+03  0.00000000000E+00 0. -1.
<mgrwt>
<rscale>  0 0.83912893E+02</rscale>
<asrwt>0</asrwt>
<pdfrwt beam="2">  1        2 0.91355562E-01 0.37427952E+02</pdfrwt>
<pdfrwt beam="1">  1        1 0.20985136E+00 0.18813141E+03</pdfrwt>
<totfact> 0.66632470E+01</totfact>
</mgrwt>
</event>
<event>
 5    1  0.8891499E-003  0.9552170E+02  0.7546771E-02  0.1384638E+00
          1   -1    0    0  501    0 -0.00000000000E+00  0.00000000000E+00  0.13771007487E+03  0.13771007487E+03  0.00000000000E+00 0. -1.
          2   -1    0    0  502    0  0.00000000000E+00 -0.00000000000E+00 -0.55786512317E+03  0.55786512317E+03  0.00000000000E+00 0. -1.
         25    1    1    2    0    0  0.66100804489E+02 -0.10081757298E+03  0.13050490384E+02  0.17415170018E+03  0.12500000000E+03 0.  0.
          2    1    1    2  501    0 -0.58637800669E+02  0.59592957279E+02  0.25648929218E+01  0.83643833606E+02  0.00000000000E+00 0. -1.
          1    1    1    2  502    0 -0.74630038198E+01  0.41224615702E+02 -0.43577043161E+03  0.43777966425E+03  0.00000000000E+00 0. -1.
<mgrwt>
<rscale>  0 0.63260197E+02</rscale>
<asrwt>0</asrwt>
<pdfrwt beam="2">  1        2 0.85825402E-01 0.41894694E+02</pdfrwt>
<pdfrwt beam="1">  1        1 0.21186166E-01 0.95521702E+02</pdfrwt>
<totfact> 0.17742952E+03</totfact>
</mgrwt>
</event>
<event>
 5    1  0.8891499E-003  0.1155741E+03  0.7546771E-02  0.1340630E+00
          2   -1    0    0  502    0  0.00000000000E+00  0.00000000000E+00  0.26821999665E+03  0.26821999665E+03  0.00000000000E+00 0. -1.
          1   -1    0    0  501    0 -0.00000000000E+00 -0.00000000000E+00 -0.39836138628E+03  0.39836138628E+03  0.00000000000E+00 0. -1.
         25    1    1    2    0    0  0.72336195878E+02  0.95512091104E+02  0.22095531707E+03  0.28071575823E+03  0.12500000000E+03 0.  0.
          2    1    1    2  501    0 -0.44313416630E+02 -0.54041144183E+02 -0.31863540737E+03  0.32620951394E+03  0.00000000000E+00 0. -1.
          1    1    1    2  502    0 -0.28022779248E+02 -0.41470946921E+02 -0.32461299328E+02  0.59656110746E+02  0.00000000000E+00 0. -1.
<mgrwt>
<rscale>  0 0.76056642E+02</rscale>
<asrwt>0</asrwt>
<pdfrwt beam="1">  1        2 0.41264615E-01 0.11557407E+03</pdfrwt>
<pdfrwt beam="2">  1        1 0.61286367E-01 0.50051130E+02</pdfrwt>
<totfact> 0.10370508E+03</totfact>
</mgrwt>
</event>
<event>
 5    1  0.8891499E-003  0.6542175E+02  0.7546771E-02  0.1392533E+00
          2   -1    0    0  502    0  0.00000000000E+00  0.00000000000E+00  0.97669358695E+03  0.97669358695E+03  0.00000000000E+00 0. -1.
          1   -1    0    0  501    0 -0.00000000000E+00 -0.00000000000E+00 -0.23332806080E+02  0.23332806080E+02  0.00000000000E+00 0. -1.
         25    1    1    2    0    0 -0.17540200058E+01 -0.84613072440E+01  0.44090218133E+03  0.45836056092E+03  0.12500000000E+03 0.  0.
          2    1    1    2  501    0  0.66219532097E+02  0.19605974610E+02  0.86377954778E+02  0.11059191536E+03  0.00000000000E+00 0. -1.
          1    1    1    2  502    0 -0.64465512091E+02 -0.11144667366E+02  0.42608064475E+03  0.43107391674E+03  0.00000000000E+00 0. -1.
<mgrwt>
<rscale>  0 0.61280986E+02</rscale>
<asrwt>0</asrwt>
<pdfrwt beam="1">  1        2 0.15026052E+00 0.65421754E+02</pdfrwt>
<pdfrwt beam="2">  1        1 0.35896632E-02 0.57402302E+02</pdfrwt>
<totfact> 0.89043831E+03</totfact>
</mgrwt>
</event>
<event>
 5    1  0.8891499E-003  0.2416435E+03  0.7546771E-02  0.1229715E+00
          1   -1    0    0  501    0 -0.00000000000E+00  0.00000000000E+00  0.57369696923E+03  0.57369696923E+03  0.00000000000E+00 0. -1.
          2   -1    0    0  502    0  0.00000000000E+00 -0.00000000000E+00 -0.58671887205E+03  0.58671887205E+03  0.00000000000E+00 0. -1.
         25    1    1    2    0    0  0.96915219689E+01 -0.23837727870E+03 -0.34702153880E+03  0.43927963871E+03  0.12500000000E+03 0.  0.
          2    1    1    2  501    0  0.58562011858E+02  0.23533136714E+03  0.49226267363E+03  0.54875577577E+03  0.00000000000E+00 0. -1.
          1    1    1    2  502    0 -0.68253533827E+02  0.30459115561E+01 -0.15826303765E+03  0.17238042680E+03  0.00000000000E+00 0. -1.
<mgrwt>
<rscale>  0 0.12848905E+03</rscale>
<asrwt>0</asrwt>
<pdfrwt beam="2">  1        2 0.90264443E-01 0.68321464E+02</pdfrwt>
<pdfrwt beam="1">  1        1 0.88261071E-01 0.24164349E+03</pdfrwt>
<totfact> 0.27433095E+02</totfact>
</mgrwt>
</event>
<event>
 5    1  0.8891499E-003  0.1121696E+03  0.7546771E-02  0.1317704E+00
          3   -1    0    0  501    0 -0.00000000000E+00  0.00000000000E+00  0.56199886781E+02  0.56199886781E+02  0.00000000000E+00 0. -1.
          2   -1    0    0  502    0  0.00000000000E+00 -0.00000000000E+00 -0.18623146178E+04  0.18623146178E+04  0.00000000000E+00 0. -1.
         25    1    1    2    0    0 -0.72616826307E+02  0.59598334782E+02 -0.12911312482E+04  0.13005652867E+04  0.12500000000E+03 0.  0.
          2    1    1    2  501    0 -0.37916668811E+02  0.50450798304E+02  0.15520305248E+02  0.64991050909E+02  0.00000000000E+00 0. -1.
          1    1    1    2  502    0  0.11053349512E+03 -0.11004913309E+03 -0.53050378814E+03  0.55295816702E+03  0.00000000000E+00 0. -1.
<mgrwt>
<rscale>  0 0.84137366E+02</rscale>
<asrwt>0</asrwt>
<pdfrwt beam="2">  1        2 0.28650996E+00 0.11216956E+03</pdfrwt>
<pdfrwt beam="1">  1        3 0.86461359E-02 0.63110671E+02</pdfrwt>
<totfact> 0.48329475E+02</totfact>
</mgrwt>
</event>
<event>
 5    1  0.8891499E-003  0.2120835E+03  0.7546771E-02  0.1279843E+00
          2   -1    0    0  502    0  0.00000000000E+00  0.00000000000E+00  0.59431775538E+03  0.59431775538E+03  0.00000000000E+00 0. -1.
          1   -1    0    0  501    0 -0.00000000000E+00 -0.00000000000E+00 -0.14795000789E+04  0.14795000789E+04  0.00000000000E+00 0. -1.
         25    1    1    2    0    0 -0.16689599399E+03 -0.11460458064E+03  0.59261748716E+02  0.24520488896E+03  0.12500000000E+03 0.  0.
          2    1    1    2  501    0  0.19777326705E+03  0.78700864971E+02 -0.13770595209E+04  0.13934134402E+04  0.00000000000E+00 0. -1.
          1    1    1    2  502    0 -0.30877273063E+02  0.35903715666E+02  0.43261544867E+03  0.43519950507E+03  0.00000000000E+00 0. -1.
<mgrwt>
<rscale>  0 0.10021569E+03</rscale>
<asrwt>0</asrwt>
<pdfrwt beam="1">  1        2 0.91433502E-01 0.47354860E+02</pdfrwt>
<pdfrwt beam="2">  1        1 0.22761539E+00 0.21208351E+03</pdfrwt>
<totfact> 0.54976566E+01</totfact>
</mgrwt>
</event>
<event>
 5    1  0.8891499E-003  0.4164181E+02  0.7546771E-02  0.1520370E+00
          2   -1    0    0  502    0  0.00000000000E+00  0.00000000000E+00  0.46213541516E+03  0.46213541516E+03  0.00000000000E+00 0. -1.
         -2   -1    0    0    0  501 -0.00000000000E+00 -0.00000000000E+00 -0.46572910363E+02  0.46572910363E+02  0.00000000000E+00 0.  1.
         25    1    1    2    0    0 -0.21545602236E+02  0.15389099845E+02  0.86669953535E+02  0.15439468325E+03  0.12500000000E+03 0.  0.
          1    1    1    2  502    0  0.90866879410E+01  0.34214220598E+02  0.28419189588E+03  0.28638822335E+03  0.00000000000E+00 0. -1.
         -1    1    1    2    0  501  0.12458914295E+02 -0.49603320443E+02  0.44700655376E+02  0.67925418920E+02  0.00000000000E+00 0.  1.
<mgrwt>
<rscale>  0 0.38394431E+02</rscale>
<asrwt>0</asrwt>
<pdfrwt beam="1">  1        2 0.71097753E-01 0.35400294E+02</pdfrwt>
<pdfrwt beam="2">  1       -2 0.71650635E-02 0.41641811E+02</pdfrwt>
<totfact> 0.66770775E+03</totfact>
</mgrwt>
</event>
<event>
 5    1  0.8891499E-003  0.4861287E+02  0.7546771E-02  0.1453013E+00
          1   -1    0    0  501    0 -0.00000000000E+00  0.00000000000E+00  0.36517317138E+03  0.36517317138E+03  0.00000000000E+00 0. -1.
          2   -1    0    0  502    0  0.00000000000E+00 -0.00000000000E+00 -0.37599991097E+03  0.37599991097E+03  0.00000000000E+00 0. -1.
         25    1    1    2    0    0  0.20484112032E+02 -0.19242723241E+01 -0.66863334377E+01  0.12685822293E+03  0.12500000000E+03 0.  0.
          2    1    1    2  501    0 -0.88599794066E+01  0.49126929471E+02  0.30110891263E+03  0.30521882593E+03  0.00000000000E+00 0. -1.
          1    1    1    2  502    0 -0.11624132625E+02 -0.47202657147E+02 -0.30524931879E+03  0.30909603349E+03  0.00000000000E+00 0. -1.
<mgrwt>
<rscale>  0 0.48605304E+02</rscale>
<asrwt>0</asrwt>
<pdfrwt beam="2">  1        2 0.57846140E-01 0.48612872E+02</pdfrwt>
<pdfrwt beam="1">  1        1 0.56180488E-01 0.48597737E+02</pdfrwt>
<totfact> 0.80715672E+02</totfact>
</mgrwt>
</event>
<event>
 5    1  0.8891499E-003  0.3821218E+02  0.7546771E-02  0.1537663E+00
          1   -1    0    0  501    0 -0.00000000000E+00  0.00000000000E+00  0.46325827643E+03  0.46325827643E+03  0.00000000000E+00 0. -1.
          2   -1    0    0  502    0  0.00000000000E+00 -0.00000000000E+00 -0.38621050655E+03  0.38621050655E+03  0.00000000000E+00 0. -1.
         25    1    1    2    0    0  0.69639373822E+01 -0.53975234098E+02 -0.17217205639E+03  0.21961338602E+03  0.12500000000E+03 0.  0.
          2    1    1    2  501    0 -0.26679701948E+02  0.21736144439E+02  0.43697853365E+03  0.43833150165E+03  0.00000000000E+00 0. -1.
          1    1    1    2  502    0  0.19715764565E+02  0.32239089659E+02 -0.18775870738E+03  0.19152389530E+03  0.00000000000E+00 0. -1.
<mgrwt>
<rscale>  0 0.36262961E+02</rscale>
<asrwt>0</asrwt>
<pdfrwt beam="2">  1        2 0.59417001E-01 0.38212179E+02</pdfrwt>
<pdfrwt beam="1">  1        1 0.71270504E-01 0.34413173E+02</pdfrwt>
<totfact> 0.59123229E+02</totfact>
</mgrwt>
</event>
<event>
 5    1  0.8891499E-003  0.4070918E+02  0.7546771E-02  0.1519709E+00
          1   -1    0    0  501    0 -0.00000000000E+00  0.00000000000E+00  0.57562675596E+02  0.57562675596E+02  0.00000000000E+00 0. -1.
          2   -1    0    0  502    0  0.00000000000E+00 -0.00000000000E+00 -0.10467500161E+04  0.10467500161E+04  0.00000000000E+00 0. -1.
         25    1    1    2    0    0 -0.17376754680E+02  0.23267846285E+02 -0.50551665056E+03  0.52155098339E+03  0.12500000000E+03 0.  0.
          2    1    1    2  501    0 -0.25930121727E+02 -0.25505651806E+02  0.41854695220E+02  0.55450202874E+02  0.00000000000E+00 0. -1.
          3    1    1    2  502    0  0.43306876407E+02  0.22378055217E+01 -0.52552538517E+03  0.52731150545E+03  0.00000000000E+00 0. -1.
<mgrwt>
<rscale>  0 0.38479438E+02</rscale>
<asrwt>0</asrwt>
<pdfrwt beam="2">  1        2 0.16103846E+00 0.40709182E+02</pdfrwt>
<pdfrwt beam="1">  1        1 0.88557965E-02 0.36371823E+02</pdfrwt>
<totfact> 0.24297883E+03</totfact>
</mgrwt>
</event>
<event>
 5    1  0.8891499E-003  0.3349736E+02  0.7546771E-02  0.1571820E+00
         -2   -1    0    0    0  501 -0.00000000000E+00  0.00000000000E+00  0.65057264236E+01  0.65057264236E+01  0.00000000000E+00 0.  1.
          2   -1    0    0  502    0  0.00000000000E+00 -0.00000000000E+00 -0.18848452372E+04  0.18848452372E+04  0.00000000000E+00 0. -1.
         25    1    1    2    0    0  0.82816016891E+01 -0.25301389932E+01 -0.87685093358E+03  0.88575817594E+03  0.12500000000E+03 0.  0.
          1    1    1    2  502    0 -0.15269178814E+02 -0.30230307748E+02 -0.83920574616E+03  0.83988886390E+03  0.00000000000E+00 0. -1.
         -1    1    1    2    0  501  0.69875771251E+01  0.32760446741E+02 -0.16228283107E+03  0.16570392381E+03  0.00000000000E+00 0.  1.
<mgrwt>
<rscale>  0 0.32517463E+02</rscale>
<asrwt>0</asrwt>
<pdfrwt beam="2">  1        2 0.28997664E+00 0.31566232E+02</pdfrwt>
<pdfrwt beam="1">  1       -2 0.10008794E-02 0.33497360E+02</pdfrwt>
<totfact> 0.16190465E+04</totfact>
</mgrwt>
</event>
<event>
 5    1  0.8891499E-003  0.5258467E+02  0.7546771E-02  0.1455346E+00
          1   -1    0    0  502    0  0.00000000000E+00  0.00000000000E+00  0.19591478465E+04  0.19591478465E+04  0.00000000000E+00 0. -1.
         -1   -1    0    0    0  501 -0.00000000000E+00 -0.00000000000E+00 -0.12157345188E+03  0.12157345188E+03  0.00000000000E+00 0.  1.
         25    1    1    2    0    0 -0.87824729945E+02 -0.26421670407E+02  0.15534739415E+03  0.21947460155E+03  0.12500000000E+03 0.  0.
          2    1    1    2  502    0  0.43706157139E+02  0.28465070640E+02  0.17658801773E+04  0.17666503019E+04  0.00000000000E+00 0. -1.
         -2    1    1    2    0  501  0.44118572806E+02 -0.20434002328E+01 -0.83653176824E+02  0.94596394982E+02  0.00000000000E+00 0.  1.
<mgrwt>
<rscale>  0 0.48191778E+02</rscale>
<asrwt>0</asrwt>
<pdfrwt beam="1">  1        1 0.30140734E+00 0.52584666E+02</pdfrwt>
<pdfrwt beam="2">  1       -1 0.18703609E-01 0.44165869E+02</pdfrwt>
<totfact> 0.92115709E+01</totfact>
</mgrwt>
</event>
<event>
 5    1  0.8891499E-003  0.7712260E+02  0.7546771E-02  0.1396371E+00
          2   -1    0    0  502    0  0.00000000000E+00  0.00000000000E+00  0.37917104296E+03  0.37917104296E+03  0.00000000000E+00 0. -1.
          1   -1    0    0  501    0 -0.00000000000E+00 -0.00000000000E+00 -0.17736421242E+03  0.17736421242E+03  0.00000000000E+00 0. -1.
         25    1    1    2    0    0  0.80808678242E+02 -0.20741522563E+02  0.54170118008E+02  0.15974872432E+03  0.12500000000E+03 0.  0.
          2    1    1    2  501    0 -0.74278607626E+01  0.46636393801E+02 -0.11422781236E+03  0.12360469028E+03  0.00000000000E+00 0. -1.
          1    1    1    2  502    0 -0.73380817479E+02 -0.25894871237E+02  0.26186452490E+03  0.27318184078E+03  0.00000000000E+00 0. -1.
<mgrwt>
<rscale>  0 0.60349435E+02</rscale>
<asrwt>0</asrwt>
<pdfrwt beam="1">  1        2 0.58334007E-01 0.77122605E+02</pdfrwt>
<pdfrwt beam="2">  1        1 0.27286802E-01 0.47224214E+02</pdfrwt>
<totfact> 0.18968260E+03</totfact>
</mgrwt>
</event>
<event>
 5    1  0.8891499E-003  0.3335901E+03  0.7546771E-02  0.1074945E+00
          2   -1    0    0  502    0  0.00000000000E+00  0.00000000000E+00  0.10299371157E+04  0.10299371157E+04  0.00000000000E+00 0. -1.
         -2   -1    0    0    0  501 -0.00000000000E+00 -0.00000000000E+00 -0.80121743144E+03  0.80121743144E+03  0.00000000000E+00 0.  1.
         25    1    1    2    0    0 -0.85728480688E+02 -0.22918775133E+03  0.16543013536E+03  0.32073123865E+03  0.12500000000E+03 0.  0.
          1    1    1    2  502    0 -0.25929855904E+03  0.20987292440E+03  0.70591997351E+03  0.78077230747E+03  0.00000000000E+00 0. -1.
         -3    1    1    2    0  501  0.34502703973E+03  0.19314826932E+02 -0.64263042460E+03  0.72965100103E+03  0.00000000000E+00 0.  1.
<mgrwt>
<rscale>  0 0.32153480E+03</rscale>
<asrwt>0</asrwt>
<pdfrwt beam="1">  1        2 0.15845186E+00 0.33359015E+03</pdfrwt>
<pdfrwt beam="2">  1       -2 0.12326422E+00 0.30991511E+03</pdfrwt>
<totfact> 0.13113628E+01</totfact>
</mgrwt>
</event>
<event>
 5    1  0.8891499E-003  0.4589198E+02  0.7546771E-02  0.1536864E+00
          2   -1    0    0  502    0  0.00000000000E+00  0.00000000000E+00  0.59734417005E+03  0.59734417005E+03  0.00000000000E+00 0. -1.
          1   -1    0    0  501    0 -0.00000000000E+00 -0.00000000000E+00 -0.96013637952E+02  0.96013637952E+02  0.00000000000E+00 0. -1.
         25    1    1    2    0    0  0.24556209805E+02  0.13967306765E+02  0.29705848223E+01  0.12818704097E+03  0.12500000000E+03 0.  0.
          2    1    1    2  501    0 -0.56254966649E+01  0.28249586365E+02 -0.25982248111E+02  0.38791269114E+02  0.00000000000E+00 0. -1.
          1    1    1    2  502    0 -0.18930713140E+02 -0.42216893131E+02  0.52434219539E+03  0.52637949792E+03  0.00000000000E+00 0. -1.
<mgrwt>
<rscale>  0 0.36357729E+02</rscale>
<asrwt>0</asrwt>
<pdfrwt beam="1">  1        2 0.91899101E-01 0.45891979E+02</pdfrwt>
<pdfrwt beam="2">  1        1 0.14771329E-01 0.28804259E+02</pdfrwt>
<totfact> 0.24284189E+03</totfact>
</mgrwt>
</event>
<event>
 5    1  0.8891499E-003  0.6653105E+02  0.7546771E-02  0.1421175E+00
         -2   -1    0    0    0  501 -0.00000000000E+00  0.00000000000E+00  0.44286565721E+03  0.44286565721E+03  0.00000000000E+00 0.  1.
          2   -1    0    0  502    0  0.00000000000E+00 -0.00000000000E+00 -0.26385016090E+03  0.26385016090E+03  0.00000000000E+00 0. -1.
         25    1    1    2    0    0 -0.43905221782E+02  0.82936997051E+02 -0.12314362923E+03  0.19898634978E+03  0.12500000000E+03 0.  0.
          1    1    1    2  502    0  0.41869948472E+02 -0.16742498790E+02 -0.94961752418E+02  0.10512439428E+03  0.00000000000E+00 0. -1.
         -1    1    1    2    0  501  0.20352733097E+01 -0.66194498262E+02  0.39712087796E+03  0.40260507405E+03  0.00000000000E+00 0.  1.
<mgrwt>
<rscale>  0 0.54773199E+02</rscale>
<asrwt>0</asrwt>
<pdfrwt beam="2">  1        2 0.40592333E-01 0.45093279E+02</pdfrwt>
<pdfrwt beam="1">  1       -2 0.68133178E-01 0.66531052E+02</pdfrwt>
<totfact> 0.25537547E+02</totfact>
</mgrwt>
</event>
<event>
 5    1  0.8891499E-003  0.3218239E+02  0.7546771E-02  0.1584203E+00
          1   -1    0    0  502    0  0.00000000000E+00  0.00000000000E+00  0.91280609759E+03  0.91280609759E+03  0.00000000000E+00 0. -1.
         -1   -1    0    0    0  501 -0.00000000000E+00 -0.00000000000E+00 -0.37067724370E+03  0.37067724370E+03  0.00000000000E+00 0.  1.
         25    1    1    2    0    0 -0.26343469853E+01  0.76214835343E+01 -0.16152103115E+03  0.20439929134E+03  0.12500000000E+03 0.  0.
          2    1    1    2  502    0 -0.25026899831E+02 -0.20307203297E+02  0.88983997852E+03  0.89042344735E+03  0.00000000000E+00 0. -1.
         -2    1    1    2    0  501  0.27661246816E+02  0.12685719763E+02 -0.18619009349E+03  0.18866060260E+03  0.00000000000E+00 0.  1.
<mgrwt>
<rscale>  0 0.31294667E+02</rscale>
<asrwt>0</asrwt>
<pdfrwt beam="1">  1        1 0.14043171E+00 0.32182389E+02</pdfrwt>
<pdfrwt beam="2">  1       -1 0.57027269E-01 0.30431432E+02</pdfrwt>
<totfact> 0.70463415E+01</totfact>
</mgrwt>
</event>
<event>
 5    1  0.8891499E-003  0.1135214E+03  0.7546771E-02  0.1358294E+00
          2   -1    0    0  502    0  0.00000000000E+00  0.00000000000E+00  0.15796505896E+04  0.15796505896E+04  0.00000000000E+00 0. -1.
          1   -1    0    0  501    0 -0.00000000000E+00 -0.00000000000E+00 -0.60121541580E+03  0.60121541580E+03  0.00000000000E+00 0. -1.
         25    1    1    2    0    0 -0.97190480339E+02 -0.51584957440E+02 -0.96188282123E+02  0.19231272168E+03  0.12500000000E+03 0.  0.
          2    1    1    2  501    0  0.73618955879E+02  0.88527364859E+02 -0.44939230049E+03  0.46390762521E+03  0.00000000000E+00 0. -1.
          1    1    1    2  502    0  0.23571524460E+02 -0.36942407420E+02  0.15240157564E+04  0.15246456585E+04  0.00000000000E+00 0. -1.
<mgrwt>
<rscale>  0 0.70531707E+02</rscale>
<asrwt>0</asrwt>
<pdfrwt beam="1">  1        2 0.24302317E+00 0.43821892E+02</pdfrwt>
<pdfrwt beam="2">  1        1 0.92494680E-01 0.11352138E+03</pdfrwt>
<totfact> 0.71724235E+01</totfact>
</mgrwt>
</event>
<event>
 5    1  0.8891499E-003  0.8653307E+02  0.7546771E-02  0.1314088E+00
          2   -1    0    0  502    0  0.00000000000E+00  0.00000000000E+00  0.17530056268E+04  0.17530056268E+04  0.00000000000E+00 0. -1.
          1   -1    0    0  501    0 -0.00000000000E+00 -0.00000000000E+00 -0.27124258131E+03  0.27124258131E+03  0.00000000000E+00 0. -1.
         25    1    1    2    0    0 -0.13109331585E+02 -0.17298103160E+02  0.19506727271E+03  0.23269576668E+03  0.12500000000E+03 0.  0.
          2    1    1    2  501    0  0.53107674408E+02 -0.65739564015E+02 -0.24392959649E+03  0.25815453395E+03  0.00000000000E+00 0. -1.
          1    1    1    2  502    0 -0.39998342823E+02  0.83037667175E+02  0.15306253693E+04  0.15333979075E+04  0.00000000000E+00 0. -1.
<mgrwt>
<rscale>  0 0.85516079E+02</rscale>
<asrwt>0</asrwt>
<pdfrwt beam="1">  1        2 0.26969317E+00 0.86533074E+02</pdfrwt>
<pdfrwt beam="2">  1        1 0.41729629E-01 0.84511037E+02</pdfrwt>
<totfact> 0.15107257E+02</totfact>
</mgrwt>
</event>
<event>
 5    1  0.8891499E-003  0.2435274E+03  0.7546771E-02  0.1135103E+00
          2   -1    0    0  502    0  0.00000000000E+00  0.00000000000E+00  0.80039863614E+03  0.80039863614E+03  0.00000000000E+00 0. -1.
          1   -1    0    0  501    0 -0.00000000000E+00 -0.00000000000E+00 -0.11194364515E+04  0.11194364515E+04  0.00000000000E+00 0. -1.
         25    1    1    2    0    0  0.14344386983E+03  0.14913648917E+03  0.18841906680E+03  0.30650380247E+03  0.12500000000E+03 0.  0.
          2    1    1    2  501    0  0.14843354654E+03 -0.12771144168E+03 -0.10116109886E+04  0.10303880445E+04  0.00000000000E+00 0. -1.
          1    1    1    2  502    0 -0.29187741636E+03 -0.21425047489E+02  0.50415410640E+03  0.58294324067E+03  0.00000000000E+00 0. -1.
<mgrwt>
<rscale>  0 0.21837086E+03</rscale>
<asrwt>0</asrwt>
<pdfrwt beam="1">  1        2 0.12313825E+00 0.24352741E+03</pdfrwt>
<pdfrwt beam="2">  1        1 0.17222099E+00 0.19581300E+03</pdfrwt>
<totfact> 0.65409067E+01</totfact>
</mgrwt>
</event>
<event>
 5    1  0.8891499E-003  0.2751922E+02  0.7546771E-02  0.1636834E+00
         -2   -1    0    0    0  501 -0.00000000000E+00  0.00000000000E+00  0.12179584123E+03  0.12179584123E+03  0.00000000000E+00 0.  1.
          2   -1    0    0  502    0  0.00000000000E+00 -0.00000000000E+00 -0.20470183923E+04  0.20470183923E+04  0.00000000000E+00 0. -1.
         25    1    1    2    0    0  0.34167041575E+02  0.33494755034E+01 -0.14947732090E+04  0.15003834684E+04  0.12500000000E+03 0.  0.
          1    1    1    2  502    0 -0.16537289465E+02 -0.22510058805E+02 -0.54765551744E+03  0.54836734993E+03  0.00000000000E+00 0. -1.
         -1    1    1    2    0  501 -0.17629752109E+02  0.19160583302E+02  0.11720617542E+03  0.12006341520E+03  0.00000000000E+00 0.  1.
<mgrwt>
<rscale>  0 0.26767958E+02</rscale>
<asrwt>0</asrwt>
<pdfrwt beam="2">  1        2 0.31492593E+00 0.27519218E+02</pdfrwt>
<pdfrwt beam="1">  1       -2 0.18737820E-01 0.26037206E+02</pdfrwt>
<totfact> 0.19391821E+02</totfact>
</mgrwt>
</event>
<event>
 5    1  0.8891499E-003  0.1447838E+03  0.7546771E-02  0.1407759E+00
          2   -1    0    0  502    0  0.00000000000E+00  0.00000000000E+00  0.17768797046E+04  0.17768797046E+04  0.00000000000E+00 0. -1.
          1   -1    0    0  501    0 -0.00000000000E+00 -0.00000000000E+00 -0.11021864841E+03  0.11021864841E+03  0.00000000000E+00 0. -1.
         25    1    1    2    0    0 -0.74171323083E+02  0.14532299329E+03  0.98350032894E+02  0.22785496816E+03  0.12500000000E+03 0.  0.
          2    1    1    2  501    0  0.19471604019E+02 -0.12227318771E+02 -0.39124229817E+02  0.45380128319E+02  0.00000000000E+00 0. -1.
          1    1    1    2  502    0  0.54699719063E+02 -0.13309567452E+03  0.16074352531E+04  0.16138632566E+04  0.00000000000E+00 0. -1.
<mgrwt>
<rscale>  0 0.57696859E+02</rscale>
<asrwt>0</asrwt>
<pdfrwt beam="1">  1        2 0.27336609E+00 0.14478379E+03</pdfrwt>
<pdfrwt beam="2">  1        1 0.16956716E-01 0.22992405E+02</pdfrwt>
<totfact> 0.39675548E+02</totfact>
</mgrwt>
</event>
<event>
 5    1  0.8891499E-003  0.1786662E+03  0.7546771E-02  0.1375110E+00
          1   -1    0    0  501    0 -0.00000000000E+00  0.00000000000E+00  0.33171719795E+03  0.33171719795E+03  0.00000000000E+00 0. -1.
          2   -1    0    0  502    0  0.00000000000E+00 -0.00000000000E+00 -0.15763768485E+04  0.15763768485E+04  0.00000000000E+00 0. -1.
         25    1    1    2    0    0  0.10436885591E+03 -0.14232999119E+03 -0.16901947715E+03  0.27448728228E+03  0.12500000000E+03 0.  0.
          2    1    1    2  501    0  0.20061659201E+02  0.13549730132E+02  0.27252626171E+03  0.27359939452E+03  0.00000000000E+00 0. -1.
          1    1    1    2  502    0 -0.12443051511E+03  0.12878026106E+03 -0.13481664351E+04  0.13600073696E+04  0.00000000000E+00 0. -1.
<mgrwt>
<rscale>  0 0.65766947E+02</rscale>
<asrwt>0</asrwt>
<pdfrwt beam="2">  1        2 0.24251952E+00 0.17866617E+03</pdfrwt>
<pdfrwt beam="1">  1        1 0.51033414E-01 0.24208787E+02</pdfrwt>
<totfact> 0.13642064E+02</totfact>
</mgrwt>
</event>
<event>
 5    1  0.8891499E-003  0.3458262E+02  0.7546771E-02  0.1600026E+00
          1   -1    0    0  501    0 -0.00000000000E+00  0.00000000000E+00  0.62368830904E+03  0.62368830904E+03  0.00000000000E+00 0. -1.
          2   -1    0    0  502    0  0.00000000000E+00 -0.00000000000E+00 -0.36815915595E+03  0.36815915595E+03  0.00000000000E+00 0. -1.
         25    1    1    2    0    0 -0.66668522287E+01  0.59330873320E+02  0.14953202912E+03  0.20383676602E+03  0.12500000000E+03 0.  0.
          2    1    1    2  501    0  0.40783082622E+01 -0.33738792680E+02  0.44587127885E+03  0.44716455141E+03  0.00000000000E+00 0. -1.
          1    1    1    2  502    0  0.25885439665E+01 -0.25592080640E+02 -0.33987415489E+03  0.34084614757E+03  0.00000000000E+00 0. -1.
<mgrwt>
<rscale>  0 0.29825439E+02</rscale>
<asrwt>0</asrwt>
<pdfrwt beam="2">  1        2 0.56639870E-01 0.25722658E+02</pdfrwt>
<pdfrwt beam="1">  1        1 0.95952048E-01 0.34582616E+02</pdfrwt>
<totfact> 0.42663468E+02</totfact>
</mgrwt>
</event>
<event>
 5    1  0.8891499E-003  0.1392428E+03  0.7546771E-02  0.1322036E+00
          1   -1    0    0  501    0 -0.00000000000E+00  0.00000000000E+00  0.12158043486E+03  0.12158043486E+03  0.00000000000E+00 0. -1.
          2   -1    0    0  502    0  0.00000000000E+00 -0.00000000000E+00 -0.19671196385E+04  0.19671196385E+04  0.00000000000E+00 0. -1.
         25    1    1    2    0    0 -0.15007543763E+03 -0.57780227126E+02 -0.40079179340E+03  0.44957786120E+03  0.12500000000E+03 0.  0.
          2    1    1    2  501    0  0.13227096626E+02  0.47087110477E+02  0.87765858427E+02  0.10047386707E+03  0.00000000000E+00 0. -1.
          1    1    1    2  502    0  0.13684834101E+03  0.10693116649E+02 -0.15325132687E+04  0.15386483451E+04  0.00000000000E+00 0. -1.
<mgrwt>
<rscale>  0 0.82524625E+02</rscale>
<asrwt>0</asrwt>
<pdfrwt beam="2">  1        2 0.30263380E+00 0.13924279E+03</pdfrwt>
<pdfrwt beam="1">  1        1 0.18704682E-01 0.48909632E+02</pdfrwt>
<totfact> 0.29472778E+02</totfact>
</mgrwt>
</event>
<event>
 5    1  0.8891499E-003  0.3930680E+02  0.7546771E-02  0.1535655E+00
         -2   -1    0    0    0  501 -0.00000000000E+00  0.00000000000E+00  0.81130853711E+02  0.81130853711E+02  0.00000000000E+00 0.  1.
          2   -1    0    0  502    0  0.00000000000E+00 -0.00000000000E+00 -0.15293544162E+04  0.15293544162E+04  0.00000000000E+00 0. -1.
         25    1    1    2    0    0 -0.24582034634E+02  0.49135102001E+02 -0.78556984505E+03  0.79734780123E+03  0.12500000000E+03 0.  0.
          1    1    1    2  502    0  0.32196546692E+02 -0.10600928443E+02 -0.73235037951E+03  0.73313441856E+03  0.00000000000E+00 0. -1.
         -1    1    1    2    0  501 -0.76145120580E+01 -0.38534173558E+02  0.69696662070E+02  0.80003050126E+02  0.00000000000E+00 0.  1.
<mgrwt>
<rscale>  0 0.36501743E+02</rscale>
<asrwt>0</asrwt>
<pdfrwt beam="2">  1        2 0.23528527E+00 0.33896863E+02</pdfrwt>
<pdfrwt beam="1">  1       -2 0.12481671E-01 0.39306801E+02</pdfrwt>
<totfact> 0.65095649E+02</totfact>
</mgrwt>
</event>
<event>
 5    1  0.8891499E-003  0.1020238E+03  0.7546771E-02  0.1382954E+00
          1   -1    0    0  501    0 -0.00000000000E+00  0.00000000000E+00  0.11941894373E+04  0.11941894373E+04  0.00000000000E+00 0. -1.
          2   -1    0    0  502    0  0.00000000000E+00 -0.00000000000E+00 -0.15184000954E+04  0.15184000954E+04  0.00000000000E+00 0. -1.
         25    1    1    2    0    0 -0.13386621156E+03  0.17998088774E+01 -0.49095193369E+01  0.18322801448E+03  0.12500000000E+03 0.  0.
          2    1    1    2  501    0  0.99614001751E+02  0.18398333569E+02  0.11024300912E+04  0.11070743219E+04  0.00000000000E+00 0. -1.
          1    1    1    2  502    0  0.34252209812E+02 -0.20198142446E+02 -0.14217312300E+04  0.14222871964E+04  0.00000000000E+00 0. -1.
<mgrwt>
<rscale>  0 0.63693629E+02</rscale>
<asrwt>0</asrwt>
<pdfrwt beam="2">  1        2 0.23360001E+00 0.39764039E+02</pdfrwt>
<pdfrwt beam="1">  1        1 0.18372145E+00 0.10202380E+03</pdfrwt>
<totfact> 0.26783659E+01</totfact>
</mgrwt>
</event>
<event>
 5    1  0.8891499E-003  0.5849965E+02  0.7546771E-02  0.1481498E+00
          1   -1    0    0  501    0 -0.00000000000E+00  0.00000000000E+00  0.32277035938E+04  0.32277035938E+04  0.00000000000E+00 0. -1.
          2   -1    0    0  502    0  0.00000000000E+00 -0.00000000000E+00 -0.21006969056E+03  0.21006969056E+03  0.00000000000E+00 0. -1.
         25    1    1    2    0    0  0.32826223750E+01  0.33142578143E+02  0.97094896945E+03  0.97952851280E+03  0.12500000000E+03 0.  0.
          2    1    1    2  501    0 -0.28727358861E+02 -0.54005843673E+02  0.22507312627E+04  0.22515623707E+04  0.00000000000E+00 0. -1.
          1    1    1    2  502    0  0.25444736486E+02  0.20863265531E+02 -0.20404632893E+03  0.20668240084E+03  0.00000000000E+00 0. -1.
<mgrwt>
<rscale>  0 0.43873747E+02</rscale>
<asrwt>0</asrwt>
<pdfrwt beam="2">  1        2 0.32318416E-01 0.32904566E+02</pdfrwt>
<pdfrwt beam="1">  1        1 0.49656975E+00 0.58499652E+02</pdfrwt>
<totfact> 0.13819231E+01</totfact>
</mgrwt>
</event>
<event>
 5    1  0.8891499E-003  0.1228355E+03  0.7546771E-02  0.1297802E+00
          2   -1    0    0  502    0  0.00000000000E+00  0.00000000000E+00  0.16482006378E+04  0.16482006378E+04  0.00000000000E+00 0. -1.
         -2   -1    0    0    0  501 -0.00000000000E+00 -0.00000000000E+00 -0.35555172896E+03  0.35555172896E+03  0.00000000000E+00 0.  1.
         25    1    1    2    0    0 -0.70688183111E+02 -0.32515478603E+01  0.25758098677E+02  0.14593105030E+03  0.12500000000E+03 0.  0.
          1    1    1    2  502    0  0.11502401061E+03 -0.49726945070E+02  0.15557639841E+04  0.15608026353E+04  0.00000000000E+00 0. -1.
         -1    1    1    2    0  501 -0.44335827495E+02  0.52978492930E+02 -0.28887317397E+03  0.29701868115E+03  0.00000000000E+00 0.  1.
<mgrwt>
<rscale>  0 0.92118285E+02</rscale>
<asrwt>0</asrwt>
<pdfrwt beam="1">  1        2 0.25356933E+00 0.12283550E+03</pdfrwt>
<pdfrwt beam="2">  1       -2 0.54700267E-01 0.69082460E+02</pdfrwt>
<totfact> 0.39794667E+01</totfact>
</mgrwt>
</event>
<event>
 5    1  0.8891499E-003  0.4952876E+02  0.7546771E-02  0.1520469E+00
         -2   -1    0    0    0  501 -0.00000000000E+00  0.00000000000E+00  0.80432491190E+02  0.80432491190E+02  0.00000000000E+00 0.  1.
          2   -1    0    0  502    0  0.00000000000E+00 -0.00000000000E+00 -0.11989604708E+04  0.11989604708E+04  0.00000000000E+00 0. -1.
         25    1    1    2    0    0 -0.54637172856E+02 -0.47202492482E+02 -0.22263825086E+02  0.14606154135E+03  0.12500000000E+03 0.  0.
          1    1    1    2  502    0  0.19959361456E+02  0.22052406549E+02 -0.10895674316E+04  0.10899733358E+04  0.00000000000E+00 0. -1.
         -1    1    1    2    0  501  0.34677811400E+02  0.25150085934E+02 -0.66967229597E+01  0.43358084879E+02  0.00000000000E+00 0.  1.
<mgrwt>
<rscale>  0 0.38381845E+02</rscale>
<asrwt>0</asrwt>
<pdfrwt beam="2">  1        2 0.18445545E+00 0.29743650E+02</pdfrwt>
<pdfrwt beam="1">  1       -2 0.12374230E-01 0.49528756E+02</pdfrwt>
<totfact> 0.98755610E+02</totfact>
</mgrwt>
</event>
<event>
 5    1  0.8891499E-003  0.1177158E+03  0.7546771E-02  0.1329018E+00
         -1   -1    0    0    0  501 -0.00000000000E+00  0.00000000000E+00  0.31944226748E+03  0.31944226748E+03  0.00000000000E+00 0.  1.
          1   -1    0    0  502    0  0.00000000000E+00 -0.00000000000E+00 -0.91757852742E+03  0.91757852742E+03  0.00000000000E+00 0. -1.
         25    1    1    2    0    0  0.14022934549E+03 -0.74042731246E+02 -0.14309200413E+03  0.24748114480E+03  0.12500000000E+03 0.  0.
          2    1    1    2  502    0 -0.85871246330E+02  0.75731663957E+02 -0.71492210575E+03  0.72403230118E+03  0.00000000000E+00 0. -1.
         -2    1    1    2    0  501 -0.54358099159E+02 -0.16889327107E+01  0.25987784993E+03  0.26550734891E+03  0.00000000000E+00 0.  1.
<mgrwt>
<rscale>  0 0.80011849E+02</rscale>
<asrwt>0</asrwt>
<pdfrwt beam="2">  1        1 0.14116593E+00 0.11771582E+03</pdfrwt>
<pdfrwt beam="1">  1       -1 0.49144965E-01 0.54384331E+02</pdfrwt>
<totfact> 0.84186518E+01</totfact>
</mgrwt>
</event>
<event>
 5    1  0.8891499E-003  0.3698592E+02  0.7546771E-02  0.1562225E+00
          1   -1    0    0  501    0 -0.00000000000E+00  0.00000000000E+00  0.68249515604E+03  0.68249515604E+03  0.00000000000E+00 0. -1.
          2   -1    0    0  502    0  0.00000000000E+00 -0.00000000000E+00 -0.12551220373E+04  0.12551220373E+04  0.00000000000E+00 0. -1.
         25    1    1    2    0    0 -0.20890669123E+02  0.56338324342E+02 -0.76218221629E+03  0.77469810744E+03  0.12500000000E+03 0.  0.
          2    1    1    2  501    0  0.25897630675E+02 -0.26389420806E+02  0.67525734169E+03  0.67626885652E+03  0.00000000000E+00 0. -1.
          1    1    1    2  502    0 -0.50069615520E+01 -0.29948903536E+02 -0.48570200663E+03  0.48665022936E+03  0.00000000000E+00 0. -1.
<mgrwt>
<rscale>  0 0.33512105E+02</rscale>
<asrwt>0</asrwt>
<pdfrwt beam="2">  1        2 0.19309570E+00 0.30364560E+02</pdfrwt>
<pdfrwt beam="1">  1        1 0.10499926E+00 0.36985920E+02</pdfrwt>
<totfact> 0.93930234E+01</totfact>
</mgrwt>
</event>
<event>
 5    1  0.8891499E-003  0.9045345E+02  0.7546771E-02  0.1387660E+00
          1   -1    0    0  501    0 -0.00000000000E+00  0.00000000000E+00  0.74853070971E+03  0.74853070971E+03  0.00000000000E+00 0. -1.
          2   -1    0    0  502    0  0.00000000000E+00 -0.00000000000E+00 -0.99595416434E+02  0.99595416434E+02  0.00000000000E+00 0. -1.
         25    1    1    2    0    0 -0.10140574518E+03 -0.38393793439E+02  0.26515913429E+03  0.31255651493E+03  0.12500000000E+03 0.  0.
          2    1    1    2  501    0  0.88376869796E+02 -0.27680413141E+01  0.44884975621E+03  0.45747594124E+03  0.00000000000E+00 0. -1.
          1    1    1    2  502    0  0.13028875386E+02  0.41161834753E+02 -0.65073597220E+02  0.78093669969E+02  0.00000000000E+00 0. -1.
<mgrwt>
<rscale>  0 0.62492350E+02</rscale>
<asrwt>0</asrwt>
<pdfrwt beam="2">  1        2 0.15322372E-01 0.43174625E+02</pdfrwt>
<pdfrwt beam="1">  1        1 0.11515857E+00 0.90453451E+02</pdfrwt>
<totfact> 0.12685284E+03</totfact>
</mgrwt>
</event>
<event>
 5    1  0.8891499E-003  0.7945702E+02  0.7546771E-02  0.1379212E+00
          2   -1    0    0  502    0  0.00000000000E+00  0.00000000000E+00  0.21199222361E+03  0.21199222361E+03  0.00000000000E+00 0. -1.
          1   -1    0    0  501    0 -0.00000000000E+00 -0.00000000000E+00 -0.23597722039E+04  0.23597722039E+04  0.00000000000E+00 0. -1.
         25    1    1    2    0    0  0.27325532221E+02  0.95950090168E+02 -0.33504668142E+03  0.37126053284E+03  0.12500000000E+03 0.  0.
          2    1    1    2  501    0  0.31192236161E+02 -0.42399603849E+02 -0.19981444475E+04  0.19988376410E+04  0.00000000000E+00 0. -1.
          1    1    1    2  502    0 -0.58517768381E+02 -0.53550486320E+02  0.18541114867E+03  0.20166625363E+03  0.00000000000E+00 0. -1.
<mgrwt>
<rscale>  0 0.64671480E+02</rscale>
<asrwt>0</asrwt>
<pdfrwt beam="1">  1        2 0.32614188E-01 0.79457018E+02</pdfrwt>
<pdfrwt beam="2">  1        1 0.36304188E+00 0.52637268E+02</pdfrwt>
<totfact> 0.52714491E+01</totfact>
</mgrwt>
</event>
<event>
 5    1  0.8891499E-003  0.6359570E+02  0.7546771E-02  0.1387948E+00
          1   -1    0    0  501    0 -0.00000000000E+00  0.00000000000E+00  0.22336575142E+04  0.22336575142E+04  0.00000000000E+00 0. -1.
          2   -1    0    0  502    0  0.00000000000E+00 -0.00000000000E+00 -0.98717851148E+02  0.98717851148E+02  0.00000000000E+00 0. -1.
         25    1    1    2    0    0 -0.28889229386E+02 -0.11269880063E+03  0.26579817601E+03  0.31592606352E+03  0.12500000000E+03 0.  0.
          2    1    1    2  501    0  0.35304158648E+02  0.51769504628E+02  0.19294577529E+04  0.19304749896E+04  0.00000000000E+00 0. -1.
          1    1    1    2  502    0 -0.64149292616E+01  0.60929296003E+02 -0.60316265887E+02  0.85974312207E+02  0.00000000000E+00 0. -1.
<mgrwt>
<rscale>  0 0.62420016E+02</rscale>
<asrwt>0</asrwt>
<pdfrwt beam="2">  1        2 0.15187363E-01 0.61266063E+02</pdfrwt>
<pdfrwt beam="1">  1        1 0.34363958E+00 0.63595704E+02</pdfrwt>
<totfact> 0.14050845E+02</totfact>
</mgrwt>
</event>
<event>
 5    1  0.8891499E-003  0.9768628E+02  0.7546771E-02  0.1308950E+00
          1   -1    0    0  501    0 -0.00000000000E+00  0.00000000000E+00  0.42273133854E+03  0.42273133854E+03  0.00000000000E+00 0. -1.
          2   -1    0    0  502    0  0.00000000000E+00 -0.00000000000E+00 -0.96550265040E+03  0.96550265040E+03  0.00000000000E+00 0. -1.
         25    1    1    2    0    0 -0.93128542573E+01 -0.16960403866E+03 -0.25041348301E+03  0.32738993824E+03  0.12500000000E+03 0.  0.
          2    1    1    2  501    0  0.10087053528E+02  0.77775130835E+02  0.37707366317E+03  0.38514317738E+03  0.00000000000E+00 0. -1.
          1    1    1    2  502    0 -0.77419927046E+00  0.91828907822E+02 -0.66943149202E+03  0.67570087332E+03  0.00000000000E+00 0. -1.
<mgrwt>
<rscale>  0 0.87528256E+02</rscale>
<asrwt>0</asrwt>
<pdfrwt beam="2">  1        2 0.14853887E+00 0.97686282E+02</pdfrwt>
<pdfrwt beam="1">  1        1 0.65035592E-01 0.78426524E+02</pdfrwt>
<totfact> 0.22797101E+02</totfact>
</mgrwt>
</event>
<event>
 5    1  0.8891499E-003  0.1527950E+03  0.7546771E-02  0.1284106E+00
         -1   -1    0    0    0  501 -0.00000000000E+00  0.00000000000E+00  0.52779261381E+03  0.52779261381E+03  0.00000000000E+00 0.  1.
          1   -1    0    0  502    0  0.00000000000E+00 -0.00000000000E+00 -0.32621371059E+03  0.32621371059E+03  0.00000000000E+00 0. -1.
         25    1    1    2    0    0  0.11149379031E+03 -0.39983367685E+02 -0.36601243379E+02  0.17605165715E+03  0.12500000000E+03 0.  0.
          2    1    1    2  502    0  0.89783923523E+01 -0.62483131978E+02 -0.20125658538E+03  0.21092407750E+03  0.00000000000E+00 0. -1.
         -2    1    1    2    0  501 -0.12047218266E+03  0.10246649966E+03  0.43943673198E+03  0.46703058975E+03  0.00000000000E+00 0.  1.
<mgrwt>
<rscale>  0 0.98209822E+02</rscale>
<asrwt>0</asrwt>
<pdfrwt beam="2">  1        1 0.50186725E-01 0.63124902E+02</pdfrwt>
<pdfrwt beam="1">  1       -1 0.81198864E-01 0.15279500E+03</pdfrwt>
<totfact> 0.12893624E+02</totfact>
</mgrwt>
</event>
<event>
 5    1  0.8891499E-003  0.4463789E+02  0.7546771E-02  0.1580408E+00
          2   -1    0    0  502    0  0.00000000000E+00  0.00000000000E+00  0.12627189780E+03  0.12627189780E+03  0.00000000000E+00 0. -1.
          1   -1    0    0  501    0 -0.00000000000E+00 -0.00000000000E+00 -0.11165340377E+04  0.11165340377E+04  0.00000000000E+00 0. -1.
         25    1    1    2    0    0 -0.48984036459E+02  0.28907819156E+02 -0.31492072489E+03  0.34356245546E+03  0.12500000000E+03 0.  0.
          2    1    1    2  501    0  0.27320239445E+02 -0.34829752505E+02 -0.78553665512E+03  0.78678290759E+03  0.00000000000E+00 0. -1.
          1    1    1    2  502    0  0.21663797014E+02  0.59219333483E+01  0.11019524014E+03  0.11246057241E+03  0.00000000000E+00 0. -1.
<mgrwt>
<rscale>  0 0.31662362E+02</rscale>
<asrwt>0</asrwt>
<pdfrwt beam="1">  1        2 0.19426447E-01 0.22458615E+02</pdfrwt>
<pdfrwt beam="2">  1        1 0.17177446E+00 0.44637890E+02</pdfrwt>
<totfact> 0.52537705E+02</totfact>
</mgrwt>
</event>
<event>
 5    1  0.8891499E-003  0.1013070E+03  0.7546771E-02  0.1330726E+00
         -1   -1    0    0    0  501 -0.00000000000E+00  0.00000000000E+00  0.46113454844E+03  0.46113454844E+03  0.00000000000E+00 0.  1.
          1   -1    0    0  502    0  0.00000000000E+00 -0.00000000000E+00 -0.12581055478E+03  0.12581055478E+03  0.00000000000E+00 0. -1.
         25    1    1    2    0    0 -0.88611398372E+02 -0.16465809198E+02  0.32756407836E+03  0.36200321576E+03  0.12500000000E+03 0.  0.
          2    1    1    2  502    0 -0.29024452891E+02 -0.55069860069E+02 -0.45724721243E+02  0.77238969999E+02  0.00000000000E+00 0. -1.
         -2    1    1    2    0  501  0.11763585126E+03  0.71535669267E+02  0.53484636541E+02  0.14770291746E+03  0.00000000000E+00 0.  1.
<mgrwt>
<rscale>  0 0.79412840E+02</rscale>
<asrwt>0</asrwt>
<pdfrwt beam="2">  1        1 0.19355470E-01 0.62250368E+02</pdfrwt>
<pdfrwt beam="1">  1       -1 0.70943776E-01 0.10130702E+03</pdfrwt>
<totfact> 0.54457569E+02</totfact>
</mgrwt>
</event>
<event>
 5    1  0.8891499E-003  0.8007880E+02  0.7546771E-02  0.1429141E+00
          2   -1    0    0  502    0  0.00000000000E+00  0.00000000000E+00  0.44197842781E+03  0.44197842781E+03  0.00000000000E+00 0. -1.
         -2   -1    0    0    0  501 -0.00000000000E+00 -0.00000000000E+00 -0.25191043053E+03  0.25191043053E+03  0.00000000000E+00 0.  1.
         25    1    1    2    0    0 -0.40491321516E+02  0.32561338349E+02  0.13242389327E+03  0.18936967915E+03  0.12500000000E+03 0.  0.
          1    1    1    2  502    0  0.62829528828E+02 -0.59834740647E+02  0.27291821024E+03  0.28637753991E+03  0.00000000000E+00 0. -1.
         -1    1    1    2    0  501 -0.22338207312E+02  0.27273402298E+02 -0.21527410622E+03  0.21814163928E+03  0.00000000000E+00 0.  1.
<mgrwt>
<rscale>  0 0.53132722E+02</rscale>
<asrwt>0</asrwt>
<pdfrwt beam="1">  1        2 0.67996681E-01 0.80078801E+02</pdfrwt>
<pdfrwt beam="2">  1       -2 0.38755451E-01 0.35253851E+02</pdfrwt>
<totfact> 0.44930248E+02</totfact>
</mgrwt>
</event>
<event>
 5    1  0.8891499E-003  0.1511720E+03  0.7546771E-02  0.1246312E+00
          1   -1    0    0  501    0 -0.00000000000E+00  0.00000000000E+00  0.13153892178E+03  0.13153892178E+03  0.00000000000E+00 0. -1.
          2   -1    0    0  502    0  0.00000000000E+00 -0.00000000000E+00 -0.11319002021E+04  0.11319002021E+04  0.00000000000E+00 0. -1.
         25    1    1    2    0    0 -0.72676821495E+02  0.13698165222E+03 -0.48648090602E+03  0.52567534215E+03  0.12500000000E+03 0.  0.
          2    1    1    2  501    0 -0.18249225311E+02 -0.15237190230E+03  0.53817846945E+02  0.16262408028E+03  0.00000000000E+00 0. -1.
          1    1    1    2  502    0  0.90926046806E+02  0.15390250085E+02 -0.56769822129E+03  0.57513970150E+03  0.00000000000E+00 0. -1.
<mgrwt>
<rscale>  0 0.11807195E+03</rscale>
<asrwt>0</asrwt>
<pdfrwt beam="2">  1        2 0.17413849E+00 0.92219335E+02</pdfrwt>
<pdfrwt beam="1">  1        1 0.20236758E-01 0.15117205E+03</pdfrwt>
<totfact> 0.78308035E+02</totfact>
</mgrwt>
</event>
<event>
 5    1  0.8891499E-003  0.7656060E+02  0.7546771E-02  0.1343702E+00
          1   -1    0    0  501    0 -0.00000000000E+00  0.00000000000E+00  0.14283954777E+03  0.14283954777E+03  0.00000000000E+00 0. -1.
          2   -1    0    0  502    0  0.00000000000E+00 -0.00000000000E+00 -0.73056941389E+03  0.73056941389E+03  0.00000000000E+00 0. -1.
         25    1    1    2    0    0  0.35956284005E+02 -0.19667774732E+02 -0.81833399316E+02  0.15492379083E+03  0.12500000000E+03 0.  0.
          2    1    1    2  501    0  0.10340706277E+02  0.80644114519E+02  0.87921425720E+02  0.11975216288E+03  0.00000000000E+00 0. -1.
          1    1    1    2  502    0 -0.46296990282E+02 -0.60976339787E+02 -0.59381789253E+03  0.59873300795E+03  0.00000000000E+00 0. -1.
<mgrwt>
<rscale>  0 0.75054489E+02</rscale>
<asrwt>0</asrwt>
<pdfrwt beam="2">  1        2 0.11239530E+00 0.76560599E+02</pdfrwt>
<pdfrwt beam="1">  1        1 0.21975315E-01 0.73578006E+02</pdfrwt>
<totfact> 0.12263094E+03</totfact>
</mgrwt>
</event>
<event>
 5    1  0.8891499E-003  0.4545302E+02  0.7546771E-02  0.1552060E+00
          2   -1    0    0  502    0  0.00000000000E+00  0.00000000000E+00  0.58439088756E+02  0.58439088756E+02  0.00000000000E+00 0. -1.
          1   -1    0    0  501    0 -0.00000000000E+00 -0.00000000000E+00 -0.19075899522E+04  0.19075899522E+04  0.00000000000E+00 0. -1.
         25    1    1    2    0    0 -0.64907728478E+02 -0.23515324343E+02 -0.60260191066E+03  0.61928995344E+03  0.12500000000E+03 0.  0.
          2    1    1    2  501    0  0.20332271508E+02  0.16774706017E+02 -0.12863388387E+04  0.12866088761E+04  0.00000000000E+00 0. -1.
          1    1    1    2  502    0  0.44575456970E+02  0.67406183263E+01  0.39789885960E+02  0.60130211410E+02  0.00000000000E+00 0. -1.
<mgrwt>
<rscale>  0 0.34613464E+02</rscale>
<asrwt>0</asrwt>
<pdfrwt beam="1">  1        2 0.89906292E-02 0.45453016E+02</pdfrwt>
<pdfrwt beam="2">  1        1 0.29347537E+00 0.26358908E+02</pdfrwt>
<totfact> 0.45517833E+02</totfact>
</mgrwt>
</event>
<event>
 5    1  0.8891499E-003  0.1374426E+03  0.7546771E-02  0.1356316E+00
          2   -1    0    0  502    0  0.00000000000E+00  0.00000000000E+00  0.86207511874E+03  0.86207511874E+03  0.00000000000E+00 0. -1.
          1   -1    0    0  501    0 -0.00000000000E+00 -0.00000000000E+00 -0.15975859398E+04  0.15975859398E+04  0.00000000000E+00 0. -1.
         25    1    1    2    0    0  0.11679818768E+03 -0.96051739486E+02  0.85700866789E+02  0.21409668814E+03  0.12500000000E+03 0.  0.
          2    1    1    2  501    0 -0.34519738152E+02 -0.12764626047E+02 -0.15266311529E+04  0.15270747280E+04  0.00000000000E+00 0. -1.
          1    1    1    2  502    0 -0.82278449524E+02  0.10881636553E+03  0.70541946500E+03  0.71848964242E+03  0.00000000000E+00 0. -1.
<mgrwt>
<rscale>  0 0.71122871E+02</rscale>
<asrwt>0</asrwt>
<pdfrwt beam="1">  1        2 0.13262694E+00 0.13744260E+03</pdfrwt>
<pdfrwt beam="2">  1        1 0.24578245E+00 0.36804185E+02</pdfrwt>
<totfact> 0.34444447E+01</totfact>
</mgrwt>
</event>
<event>
 5    1  0.8891499E-003  0.1516780E+03  0.7546771E-02  0.1274635E+00
         -2   -1    0    0    0  501 -0.00000000000E+00  0.00000000000E+00  0.10309410829E+03  0.10309410829E+03  0.00000000000E+00 0.  1.
          2   -1    0    0  502    0  0.00000000000E+00 -0.00000000000E+00 -0.18322297725E+04  0.18322297725E+04  0.00000000000E+00 0. -1.
         25    1    1    2    0    0  0.14500560437E+03 -0.41272878014E+02 -0.31198654956E+03  0.36836216264E+03  0.12500000000E+03 0.  0.
          1    1    1    2  502    0 -0.30159576965E+02 -0.62718459388E+02 -0.14101561430E+04  0.14118723571E+04  0.00000000000E+00 0. -1.
         -1    1    1    2    0  501 -0.11484602741E+03  0.10399133740E+03 -0.69929717330E+01  0.15508936108E+03  0.00000000000E+00 0.  1.
<mgrwt>
<rscale>  0 0.10274116E+03</rscale>
<asrwt>0</asrwt>
<pdfrwt beam="2">  1        2 0.28188149E+00 0.69593141E+02</pdfrwt>
<pdfrwt beam="1">  1       -2 0.15860633E-01 0.15167795E+03</pdfrwt>
<totfact> 0.31815678E+02</totfact>
</mgrwt>
</event>
<event>
 5    1  0.8891499E-003  0.4845336E+02  0.7546771E-02  0.1585490E+00
          2   -1    0    0  502    0  0.00000000000E+00  0.00000000000E+00  0.22009640411E+04  0.22009640411E+04  0.00000000000E+00 0. -1.
          1   -1    0    0  501    0 -0.00000000000E+00 -0.00000000000E+00 -0.25998141625E+03  0.25998141625E+03  0.00000000000E+00 0. -1.
         25    1    1    2    0    0 -0.49067975466E+01  0.34902206514E+02  0.74606735567E+03  0.75728709211E+03  0.12500000000E+03 0.  0.
          2    1    1    2  501    0  0.23493091901E+02 -0.42431563328E+02 -0.25198950066E+03  0.25661463594E+03  0.00000000000E+00 0. -1.
          1    1    1    2  502    0 -0.18586294355E+02  0.75293568134E+01  0.14469047699E+04  0.14470437294E+04  0.00000000000E+00 0. -1.
<mgrwt>
<rscale>  0 0.31171428E+02</rscale>
<asrwt>0</asrwt>
<pdfrwt beam="1">  1        2 0.33860984E+00 0.20053467E+02</pdfrwt>
<pdfrwt beam="2">  1        1 0.39997142E-01 0.48453364E+02</pdfrwt>
<totfact> 0.11467832E+02</totfact>
</mgrwt>
</event>
<event>
 5    1  0.8891499E-003  0.1653610E+03  0.7546771E-02  0.1256467E+00
         -2   -1    0    0    0  501 -0.00000000000E+00  0.00000000000E+00  0.15855639646E+03  0.15855639646E+03  0.00000000000E+00 0.  1.
          2   -1    0    0  502    0  0.00000000000E+00 -0.00000000000E+00 -0.73163953369E+03  0.73163953369E+03  0.00000000000E+00 0. -1.
         25    1    1    2    0    0 -0.19181578930E+03  0.69044736280E+02 -0.20221207860E+03  0.31316959840E+03  0.12500000000E+03 0.  0.
          1    1    1    2  502    0  0.33652096695E+02 -0.68356920352E+02 -0.40759386998E+03  0.41465394610E+03  0.00000000000E+00 0. -1.
         -1    1    1    2    0  501  0.15816369260E+03 -0.68781592816E+00  0.36722811346E+02  0.16237238565E+03  0.00000000000E+00 0.  1.
<mgrwt>
<rscale>  0 0.11224566E+03</rscale>
<asrwt>0</asrwt>
<pdfrwt beam="2">  1        2 0.11255993E+00 0.76191418E+02</pdfrwt>
<pdfrwt beam="1">  1       -2 0.24393292E-01 0.16536098E+03</pdfrwt>
<totfact> 0.61070549E+02</totfact>
</mgrwt>
</event>
<event>
 5    1  0.8891499E-003  0.1218924E+03  0.7546771E-02  0.1281260E+00
          2   -1    0    0  502    0  0.00000000000E+00  0.00000000000E+00  0.48280147942E+03  0.48280147942E+03  0.00000000000E+00 0. -1.
          1   -1    0    0  501    0 -0.00000000000E+00 -0.00000000000E+00 -0.16220023609E+03  0.16220023609E+03  0.00000000000E+00 0. -1.
         25    1    1    2    0    0 -0.20375572101E+02 -0.81826974753E+02  0.11669591819E+03  0.19066660708E+03  0.12500000000E+03 0.  0.
          2    1    1    2  501    0  0.60052829073E+02 -0.54790496431E+02 -0.93957354620E+02  0.12424300892E+03  0.00000000000E+00 0. -1.
          3    1    1    2  502    0 -0.39677256972E+02  0.13661747118E+03  0.29786267977E+03  0.33009209950E+03  0.00000000000E+00 0. -1.
<mgrwt>
<rscale>  0 0.99543149E+02</rscale>
<asrwt>0</asrwt>
<pdfrwt beam="1">  1        2 0.74277150E-01 0.12189237E+03</pdfrwt>
<pdfrwt beam="2">  1        1 0.24953883E-01 0.81291702E+02</pdfrwt>
<totfact> 0.16563464E+03</totfact>
</mgrwt>
</event>
<event>
 5    1  0.8891499E-003  0.1509333E+03  0.7546771E-02  0.1200583E+00
          1   -1    0    0  501    0 -0.00000000000E+00  0.00000000000E+00  0.15282648995E+04  0.15282648995E+04  0.00000000000E+00 0. -1.
          2   -1    0    0  502    0  0.00000000000E+00 -0.00000000000E+00 -0.76981570176E+03  0.76981570176E+03  0.00000000000E+00 0. -1.
         25    1    1    2    0    0  0.77173532628E+02  0.26402216730E+03  0.57798578811E+03  0.65219324608E+03  0.12500000000E+03 0.  0.
          2    1    1    2  501    0  0.17206634903E+02 -0.14789686044E+03  0.89934966666E+03  0.91159166984E+03  0.00000000000E+00 0. -1.
          1    1    1    2  502    0 -0.94380167530E+02 -0.11612530686E+03 -0.71888625705E+03  0.73429568533E+03  0.00000000000E+00 0. -1.
<mgrwt>
<rscale>  0 0.14991039E+03</rscale>
<asrwt>0</asrwt>
<pdfrwt beam="2">  1        2 0.11843319E+00 0.15093328E+03</pdfrwt>
<pdfrwt beam="1">  1        1 0.23511768E+00 0.14889442E+03</pdfrwt>
<totfact> 0.37876955E+01</totfact>
</mgrwt>
</event>
<event>
 5    1  0.8891499E-003  0.6201297E+02  0.7546771E-02  0.1517257E+00
          2   -1    0    0  502    0  0.00000000000E+00  0.00000000000E+00  0.16696720864E+04  0.16696720864E+04  0.00000000000E+00 0. -1.
         -2   -1    0    0    0  501 -0.00000000000E+00 -0.00000000000E+00 -0.10580718672E+03  0.10580718672E+03  0.00000000000E+00 0.  1.
         25    1    1    2    0    0 -0.36523140637E+02 -0.19417262944E+02  0.69264130584E+02  0.14877328284E+03  0.12500000000E+03 0.  0.
          1    1    1    2  502    0 -0.23692225611E+02 -0.52746565856E+01  0.15445037585E+04  0.15446944693E+04  0.00000000000E+00 0. -1.
         -1    1    1    2    0  501  0.60215366247E+02  0.24691919530E+02 -0.49902989378E+02  0.82011520966E+02  0.00000000000E+00 0.  1.
<mgrwt>
<rscale>  0 0.38796859E+02</rscale>
<asrwt>0</asrwt>
<pdfrwt beam="1">  1        2 0.25687261E+00 0.24272280E+02</pdfrwt>
<pdfrwt beam="2">  1       -2 0.16278030E-01 0.62012974E+02</pdfrwt>
<totfact> 0.39090625E+02</totfact>
</mgrwt>
</event>
<event>
 5    1  0.8891499E-003  0.6503940E+02  0.7546771E-02  0.1406843E+00
          1   -1    0    0  502    0  0.00000000000E+00  0.00000000000E+00  0.36049338622E+02  0.36049338622E+02  0.00000000000E+00 0. -1.
         -1   -1    0    0    0  501 -0.00000000000E+00 -0.00000000000E+00 -0.73311725202E+03  0.73311725202E+03  0.00000000000E+00 0.  1.
         25    1    1    2    0    0  0.65183688852E+02  0.32015676813E+02 -0.36005660751E+03  0.38799442968E+03  0.12500000000E+03 0.  0.
          2    1    1    2  502    0 -0.63545877155E+02  0.19510148818E+02 -0.35643009806E+02  0.75426444688E+02  0.00000000000E+00 0. -1.
         -2    1    1    2    0  501 -0.16378116973E+01 -0.51525825631E+02 -0.30136829608E+03  0.30574571627E+03  0.00000000000E+00 0.  1.
<mgrwt>
<rscale>  0 0.57904245E+02</rscale>
<asrwt>0</asrwt>
<pdfrwt beam="1">  1        1 0.55460526E-02 0.65039405E+02</pdfrwt>
<pdfrwt beam="2">  1       -1 0.11278726E+00 0.51551849E+02</pdfrwt>
<totfact> 0.10647345E+03</totfact>
</mgrwt>
</event>
<event>
 5    1  0.8891499E-003  0.2648140E+03  0.7546771E-02  0.1295700E+00
          1   -1    0    0  501    0 -0.00000000000E+00  0.00000000000E+00  0.21667110881E+04  0.21667110881E+04  0.00000000000E+00 0. -1.
          2   -1    0    0  502    0  0.00000000000E+00 -0.00000000000E+00 -0.18646371954E+03  0.18646371954E+03  0.00000000000E+00 0. -1.
         25    1    1    2    0    0 -0.16797123670E+03  0.18689237797E+03  0.44694262963E+03  0.52775544666E+03  0.12500000000E+03 0.  0.
          2    1    1    2  501    0  0.15738984524E+03 -0.21780607372E+03  0.16666268641E+04  0.16881516973E+04  0.00000000000E+00 0. -1.
          1    1    1    2  502    0  0.10581391465E+02  0.30913695749E+02 -0.13332212514E+03  0.13726766365E+03  0.00000000000E+00 0. -1.
<mgrwt>
<rscale>  0 0.93019689E+02</rscale>
<asrwt>0</asrwt>
<pdfrwt beam="2">  1        2 0.28686728E-01 0.32674492E+02</pdfrwt>
<pdfrwt beam="1">  1        1 0.33334015E+00 0.26481399E+03</pdfrwt>
<totfact> 0.62837485E+01</totfact>
</mgrwt>
</event>
<event>
 5    1  0.8891499E-003  0.5847161E+02  0.7546771E-02  0.1413377E+00
          2   -1    0    0  502    0  0.00000000000E+00  0.00000000000E+00  0.17162563183E+04  0.17162563183E+04  0.00000000000E+00 0. -1.
          1   -1    0    0  501    0 -0.00000000000E+00 -0.00000000000E+00 -0.21392102380E+02  0.21392102380E+02  0.00000000000E+00 0. -1.
         25    1    1    2    0    0 -0.74267040122E+01  0.13582093276E+02  0.78463661754E+03  0.79468185507E+03  0.12500000000E+03 0.  0.
          2    1    1    2  501    0  0.37447860102E+02  0.44906427036E+02  0.41373845017E+02  0.71629075569E+02  0.00000000000E+00 0. -1.
          1    1    1    2  502    0 -0.30021156090E+02 -0.58488520312E+02  0.86885375340E+03  0.87133749008E+03  0.00000000000E+00 0. -1.
<mgrwt>
<rscale>  0 0.56447080E+02</rscale>
<asrwt>0</asrwt>
<pdfrwt beam="1">  1        2 0.26403933E+00 0.54492645E+02</pdfrwt>
<pdfrwt beam="2">  1        1 0.32910940E-02 0.58471612E+02</pdfrwt>
<totfact> 0.41941556E+03</totfact>
</mgrwt>
</event>
<event>
 5    1  0.8891499E-003  0.4021422E+02  0.7546771E-02  0.1556783E+00
          2   -1    0    0  502    0  0.00000000000E+00  0.00000000000E+00  0.40510868863E+03  0.40510868863E+03  0.00000000000E+00 0. -1.
          1   -1    0    0  501    0 -0.00000000000E+00 -0.00000000000E+00 -0.15787497762E+03  0.15787497762E+03  0.00000000000E+00 0. -1.
         25    1    1    2    0    0 -0.27009928416E+02  0.97070426787E+00 -0.89505349453E+02  0.15609832184E+03  0.12500000000E+03 0.  0.
          2    1    1    2  501    0 -0.22693634390E+01 -0.28818411249E+02 -0.27804519160E+02  0.40109127678E+02  0.00000000000E+00 0. -1.
          1    1    1    2  502    0  0.29279291855E+02  0.27847706981E+02  0.36454357963E+03  0.36677621674E+03  0.00000000000E+00 0. -1.
<mgrwt>
<rscale>  0 0.34095418E+02</rscale>
<asrwt>0</asrwt>
<pdfrwt beam="1">  1        2 0.62324413E-01 0.40214217E+02</pdfrwt>
<pdfrwt beam="2">  1        1 0.24288458E-01 0.28907626E+02</pdfrwt>
<totfact> 0.20017906E+03</totfact>
</mgrwt>
</event>
<event>
 5    1  0.8891499E-003  0.4636117E+02  0.7546771E-02  0.1518571E+00
          1   -1    0    0  501    0 -0.00000000000E+00  0.00000000000E+00  0.14905711564E+03  0.14905711564E+03  0.00000000000E+00 0. -1.
          2   -1    0    0  502    0  0.00000000000E+00 -0.00000000000E+00 -0.21326704034E+03  0.21326704034E+03  0.00000000000E+00 0. -1.
         25    1    1    2    0    0 -0.36186241888E+02  0.53292017547E+02 -0.79039054566E+02  0.16131229148E+03  0.12500000000E+03 0.  0.
          2    1    1    2  501    0  0.40604865950E+02 -0.21414834877E+02  0.99962239211E+02  0.10999908890E+03  0.00000000000E+00 0. -1.
          1    1    1    2  502    0 -0.44186240619E+01 -0.31877182670E+02 -0.85133109351E+02  0.91012775594E+02  0.00000000000E+00 0. -1.
<mgrwt>
<rscale>  0 0.38626335E+02</rscale>
<asrwt>0</asrwt>
<pdfrwt beam="2">  1        2 0.32810314E-01 0.32181967E+02</pdfrwt>
<pdfrwt beam="1">  1        1 0.22931864E-01 0.46361172E+02</pdfrwt>
<totfact> 0.41683450E+03</totfact>
</mgrwt>
</event>
<event>
 5    1  0.8891499E-003  0.3409708E+03  0.7546771E-02  0.1239093E+00
          1   -1    0    0  501    0 -0.00000000000E+00  0.00000000000E+00  0.62482887026E+03  0.62482887026E+03  0.00000000000E+00 0. -1.
          2   -1    0    0  502    0  0.00000000000E+00 -0.00000000000E+00 -0.75892087277E+03  0.75892087277E+03  0.00000000000E+00 0. -1.
         25    1    1    2    0    0  0.32740092752E+03  0.65867504218E+01 -0.41280636434E+03  0.54154302420E+03  0.12500000000E+03 0.  0.
          2    1    1    2  501    0 -0.33919156821E+03 -0.48958365269E+02  0.50576325364E+03  0.61093723917E+03  0.00000000000E+00 0. -1.
          1    1    1    2  502    0  0.11790640682E+02  0.42371614847E+02 -0.22704889180E+03  0.23126947966E+03  0.00000000000E+00 0. -1.
<mgrwt>
<rscale>  0 0.12245983E+03</rscale>
<asrwt>0</asrwt>
<pdfrwt beam="2">  1        2 0.11675706E+00 0.43981507E+02</pdfrwt>
<pdfrwt beam="1">  1        1 0.96127518E-01 0.34097079E+03</pdfrwt>
<totfact> 0.18249092E+02</totfact>
</mgrwt>
</event>
<event>
 5    1  0.8891499E-003  0.1473372E+03  0.7546771E-02  0.1292281E+00
          1   -1    0    0  501    0 -0.00000000000E+00  0.00000000000E+00  0.25170136916E+03  0.25170136916E+03  0.00000000000E+00 0. -1.
          2   -1    0    0  502    0  0.00000000000E+00 -0.00000000000E+00 -0.53464144520E+03  0.53464144520E+03  0.00000000000E+00 0. -1.
         25    1    1    2    0    0  0.16994329363E+03  0.88758800013E+02 -0.17345594444E+03  0.28717731855E+03  0.12500000000E+03 0.  0.
          2    1    1    2  501    0 -0.41883808487E+02 -0.43830840277E+02  0.17433143580E+03  0.18457206041E+03  0.00000000000E+00 0. -1.
          1    1    1    2  502    0 -0.12805948514E+03 -0.44927959736E+02 -0.28381556740E+03  0.31459343540E+03  0.00000000000E+00 0. -1.
<mgrwt>
<rscale>  0 0.94510966E+02</rscale>
<asrwt>0</asrwt>
<pdfrwt beam="2">  1        2 0.82252529E-01 0.14733718E+03</pdfrwt>
<pdfrwt beam="1">  1        1 0.38723288E-01 0.60625044E+02</pdfrwt>
<totfact> 0.85991978E+02</totfact>
</mgrwt>
</event>
<event>
 5    1  0.8891499E-003  0.2807365E+03  0.7546771E-02  0.1339654E+00
          2   -1    0    0  502    0  0.00000000000E+00  0.00000000000E+00  0.86082625437E+03  0.86082625437E+03  0.00000000000E+00 0. -1.
          1   -1    0    0  501    0 -0.00000000000E+00 -0.00000000000E+00 -0.19686846174E+04  0.19686846174E+04  0.00000000000E+00 0. -1.
         25    1    1    2    0    0  0.87295542621E+02  0.24790994644E+03 -0.11229895769E+04  0.11600907047E+04  0.12500000000E+03 0.  0.
          2    1    1    2  501    0 -0.36337795437E+01  0.20459909774E+02 -0.80355160160E+03  0.80382024650E+03  0.00000000000E+00 0. -1.
          1    1    1    2  502    0 -0.83661763077E+02 -0.26836985621E+03  0.81868281542E+03  0.86559992062E+03  0.00000000000E+00 0. -1.
<mgrwt>
<rscale>  0 0.76378857E+02</rscale>
<asrwt>0</asrwt>
<pdfrwt beam="1">  1        2 0.13243481E+00 0.28073646E+03</pdfrwt>
<pdfrwt beam="2">  1        1 0.30287455E+00 0.20780093E+02</pdfrwt>
<totfact> 0.21739233E+01</totfact>
</mgrwt>
</event>
<event>
 5    1  0.8891499E-003  0.7152833E+02  0.7546771E-02  0.1384688E+00
          1   -1    0    0  502    0  0.00000000000E+00  0.00000000000E+00  0.15754498102E+04  0.15754498102E+04  0.00000000000E+00 0. -1.
         -1   -1    0    0    0  501 -0.00000000000E+00 -0.00000000000E+00 -0.10195049408E+03  0.10195049408E+03  0.00000000000E+00 0.  1.
         25    1    1    2    0    0  0.51795319038E+01  0.11834815631E+03  0.10132505701E+04  0.10277815096E+04  0.12500000000E+03 0.  0.
          2    1    1    2  502    0 -0.24798790738E+02 -0.50126450285E+02  0.53997857164E+03  0.54286692557E+03  0.00000000000E+00 0. -1.
         -2    1    1    2    0  501  0.19619258835E+02 -0.68221706026E+02 -0.79729825560E+02  0.10675186918E+03  0.00000000000E+00 0.  1.
<mgrwt>
<rscale>  0 0.63247488E+02</rscale>
<asrwt>0</asrwt>
<pdfrwt beam="1">  1        1 0.24237688E+00 0.55925317E+02</pdfrwt>
<pdfrwt beam="2">  1       -1 0.15684693E-01 0.71528335E+02</pdfrwt>
<totfact> 0.21192795E+02</totfact>
</mgrwt>
</event>
<event>
 5    1  0.8891499E-003  0.6766391E+02  0.7546771E-02  0.1447105E+00
          2   -1    0    0  502    0  0.00000000000E+00  0.00000000000E+00  0.19036661144E+04  0.19036661144E+04  0.00000000000E+00 0. -1.
          1   -1    0    0  501    0 -0.00000000000E+00 -0.00000000000E+00 -0.18632961820E+03  0.18632961820E+03  0.00000000000E+00 0. -1.
         25    1    1    2    0    0 -0.25673126188E+02 -0.97436638994E+02  0.72722223527E+03  0.74473497803E+03  0.12500000000E+03 0.  0.
          2    1    1    2  501    0  0.10171832122E+02  0.35020539500E+02 -0.17480456278E+03  0.17856802492E+03  0.00000000000E+00 0. -1.
          1    1    1    2  502    0  0.15501294066E+02  0.62416099494E+02  0.11649188237E+04  0.11666927296E+04  0.00000000000E+00 0. -1.
<mgrwt>
<rscale>  0 0.49674517E+02</rscale>
<asrwt>0</asrwt>
<pdfrwt beam="1">  1        2 0.29287170E+00 0.67663911E+02</pdfrwt>
<pdfrwt beam="2">  1        1 0.28666096E-01 0.36467854E+02</pdfrwt>
<totfact> 0.20175762E+02</totfact>
</mgrwt>
</event>
<event>
 5    1  0.8891499E-003  0.8914957E+02  0.7546771E-02  0.1445941E+00
          1   -1    0    0  501    0 -0.00000000000E+00  0.00000000000E+00  0.71705887100E+03  0.71705887100E+03  0.00000000000E+00 0. -1.
          2   -1    0    0  502    0  0.00000000000E+00 -0.00000000000E+00 -0.79156297471E+03  0.79156297471E+03  0.00000000000E+00 0. -1.
         25    1    1    2    0    0 -0.63892356737E+02 -0.14723459172E+02 -0.26223673436E+03  0.29781221994E+03  0.12500000000E+03 0.  0.
          2    1    1    2  501    0  0.81754445428E+02  0.36179941496E+02  0.69602895533E+03  0.70174716542E+03  0.00000000000E+00 0. -1.
          1    1    1    2  502    0 -0.17862088691E+02 -0.21456482324E+02 -0.50829632468E+03  0.50906246034E+03  0.00000000000E+00 0. -1.
<mgrwt>
<rscale>  0 0.49888976E+02</rscale>
<asrwt>0</asrwt>
<pdfrwt beam="2">  1        2 0.12177892E+00 0.27918360E+02</pdfrwt>
<pdfrwt beam="1">  1        1 0.11031675E+00 0.89149574E+02</pdfrwt>
<totfact> 0.15297287E+02</totfact>
</mgrwt>
</event>
<event>
 5    1  0.8891499E-003  0.7085856E+02  0.7546771E-02  0.1409766E+00
          2   -1    0    0  502    0  0.00000000000E+00  0.00000000000E+00  0.52724685021E+03  0.52724685021E+03  0.00000000000E+00 0. -1.
          1   -1    0    0  501    0 -0.00000000000E+00 -0.00000000000E+00 -0.21797827588E+04  0.21797827588E+04  0.00000000000E+00 0. -1.
         25    1    1    2    0    0  0.24983215332E+02  0.11532221991E+02  0.53865820074E+02  0.13886568966E+03  0.12500000000E+03 0.  0.
          2    1    1    2  501    0 -0.70889131622E+02 -0.59106152723E+01 -0.21354478387E+04  0.21366323213E+04  0.00000000000E+00 0. -1.
          1    1    1    2  502    0  0.45905916290E+02 -0.56216067186E+01  0.42904611005E+03  0.43153159810E+03  0.00000000000E+00 0. -1.
<mgrwt>
<rscale>  0 0.57246190E+02</rscale>
<asrwt>0</asrwt>
<pdfrwt beam="1">  1        2 0.81114902E-01 0.46248844E+02</pdfrwt>
<pdfrwt beam="2">  1        1 0.33535118E+00 0.70858556E+02</pdfrwt>
<totfact> 0.25322171E+01</totfact>
</mgrwt>
</event>
<event>
 5    1  0.8891499E-003  0.7484360E+02  0.7546771E-02  0.1504680E+00
          2   -1    0    0  502    0  0.00000000000E+00  0.00000000000E+00  0.20216780688E+04  0.20216780688E+04  0.00000000000E+00 0. -1.
          1   -1    0    0  501    0 -0.00000000000E+00 -0.00000000000E+00 -0.91291646412E+02  0.91291646412E+02  0.00000000000E+00 0. -1.
         25    1    1    2    0    0  0.38332174877E+02  0.42542750449E+02  0.58020256269E+02  0.14923334542E+03  0.12500000000E+03 0.  0.
          2    1    1    2  501    0  0.21743736411E+02  0.25970848763E+01 -0.42280919758E+02  0.47615240192E+02  0.00000000000E+00 0. -1.
          1    1    1    2  502    0 -0.60075911288E+02 -0.45139835325E+02  0.19146470858E+04  0.19161211296E+04  0.00000000000E+00 0. -1.
<mgrwt>
<rscale>  0 0.40483904E+02</rscale>
<asrwt>0</asrwt>
<pdfrwt beam="1">  1        2 0.31102736E+00 0.74843596E+02</pdfrwt>
<pdfrwt beam="2">  1        1 0.14044870E-01 0.21898286E+02</pdfrwt>
<totfact> 0.39976313E+02</totfact>
</mgrwt>
</event>
<event>
 5    1  0.8891499E-003  0.8928642E+02  0.7546771E-02  0.1310394E+00
          1   -1    0    0  501    0 -0.00000000000E+00  0.00000000000E+00  0.12116743407E+04  0.12116743407E+04  0.00000000000E+00 0. -1.
          2   -1    0    0  502    0  0.00000000000E+00 -0.00000000000E+00 -0.11002569372E+04  0.11002569372E+04  0.00000000000E+00 0. -1.
         25    1    1    2    0    0  0.61824274567E+02 -0.14382700288E+02 -0.22093683774E+03  0.26166235737E+03  0.12500000000E+03 0.  0.
          2    1    1    2  501    0 -0.83875785687E+01  0.88891582110E+02  0.11871835088E+04  0.11905363280E+04  0.00000000000E+00 0. -1.
          1    1    1    2  502    0 -0.53436695998E+02 -0.74508881822E+02 -0.85482926756E+03  0.85973259251E+03  0.00000000000E+00 0. -1.
<mgrwt>
<rscale>  0 0.86956549E+02</rscale>
<asrwt>0</asrwt>
<pdfrwt beam="2">  1        2 0.16927030E+00 0.84687475E+02</pdfrwt>
<pdfrwt beam="1">  1        1 0.18641144E+00 0.89286420E+02</pdfrwt>
<totfact> 0.41026173E+01</totfact>
</mgrwt>
</event>
<event>
 5    1  0.8891499E-003  0.3529535E+02  0.7546771E-02  0.1563944E+00
          2   -1    0    0  502    0  0.00000000000E+00  0.00000000000E+00  0.59590834023E+03  0.59590834023E+03  0.00000000000E+00 0. -1.
         -2   -1    0    0    0  501 -0.00000000000E+00 -0.00000000000E+00 -0.69313177106E+02  0.69313177106E+02  0.00000000000E+00 0.  1.
         25    1    1    2    0    0 -0.99132576854E+00 -0.13443881218E+02  0.34232557279E+03  0.36468276413E+03  0.12500000000E+03 0.  0.
          1    1    1    2  502    0  0.30858009371E+02 -0.62037647224E+01  0.23576150685E+03  0.23785329838E+03  0.00000000000E+00 0. -1.
         -1    1    1    2    0  501 -0.29866683602E+02  0.19647645940E+02 -0.51491916513E+02  0.62685454825E+02  0.00000000000E+00 0.  1.
<mgrwt>
<rscale>  0 0.33330719E+02</rscale>
<asrwt>0</asrwt>
<pdfrwt beam="1">  1        2 0.91678203E-01 0.31475442E+02</pdfrwt>
<pdfrwt beam="2">  1       -2 0.10663566E-01 0.35295354E+02</pdfrwt>
<totfact> 0.27828171E+03</totfact>
</mgrwt>
</event>
<event>
 5    1  0.8891499E-003  0.8101005E+02  0.7546771E-02  0.1482828E+00
         -2   -1    0    0    0  501  0.00000000000E+00  0.00000000000E+00  0.64161121256E+02  0.64161121256E+02  0.00000000000E+00 0.  1.
         -1   -1    0    0    0  502 -0.00000000000E+00 -0.00000000000E+00 -0.31678563571E+03  0.31678563571E+03  0.00000000000E+00 0.  1.
         25    1    1    2    0    0 -0.44881618813E+02  0.78352666390E+02 -0.93332442406E+02  0.18024828666E+03  0.12500000000E+03 0.  0.
         -2    1    1    2    0  502  0.23031806606E+02 -0.48632667166E+01 -0.10281067499E+03  0.10547108784E+03  0.00000000000E+00 0.  1.
         -1    1    1    2    0  501  0.21849812206E+02 -0.73489399674E+02 -0.56481397061E+02  0.95227382469E+02  0.00000000000E+00 0.  1.
<mgrwt>
<rscale>  0 0.43668626E+02</rscale>
<asrwt>0</asrwt>
<pdfrwt beam="1">  1       -2 0.98709420E-02 0.81010054E+02</pdfrwt>
<pdfrwt beam="2">  1       -1 0.48736251E-01 0.23539658E+02</pdfrwt>
<totfact> 0.20101219E+03</totfact>
</mgrwt>
</event>
<event>
 5    1  0.8891499E-003  0.3630975E+02  0.7546771E-02  0.1595461E+00
          2   -1    0    0  502    0  0.00000000000E+00  0.00000000000E+00  0.30858367136E+04  0.30858367136E+04  0.00000000000E+00 0. -1.
          1   -1    0    0  501    0 -0.00000000000E+00 -0.00000000000E+00 -0.46982365628E+02  0.46982365628E+02  0.00000000000E+00 0. -1.
         25    1    1    2    0    0 -0.55681438114E+02  0.16902575828E+02  0.85796082857E+03  0.86896944882E+03  0.12500000000E+03 0.  0.
          2    1    1    2  501    0  0.19930629127E+02 -0.15393789854E+02 -0.37497932678E+02  0.45169610344E+02  0.00000000000E+00 0. -1.
          3    1    1    2  502    0  0.35750808987E+02 -0.15087859742E+01  0.22183914521E+04  0.22186800201E+04  0.00000000000E+00 0. -1.
<mgrwt>
<rscale>  0 0.30239040E+02</rscale>
<asrwt>0</asrwt>
<pdfrwt beam="1">  1        2 0.47474395E+00 0.36309754E+02</pdfrwt>
<pdfrwt beam="2">  1        1 0.72280587E-02 0.25183303E+02</pdfrwt>
<totfact> 0.28931085E+02</totfact>
</mgrwt>
</event>
<event>
 5    1  0.8891499E-003  0.3872134E+02  0.7546771E-02  0.1523533E+00
         -2   -1    0    0    0  501 -0.00000000000E+00  0.00000000000E+00  0.17142231290E+02  0.17142231290E+02  0.00000000000E+00 0.  1.
          2   -1    0    0  502    0  0.00000000000E+00 -0.00000000000E+00 -0.14395498236E+04  0.14395498236E+04  0.00000000000E+00 0. -1.
         25    1    1    2    0    0 -0.24771425428E+02 -0.75464805634E+01 -0.44491083904E+03  0.46286199626E+03  0.12500000000E+03 0.  0.
          3    1    1    2  502    0 -0.84868465512E+00  0.38712034963E+02 -0.93285740336E+03  0.93366068618E+03  0.00000000000E+00 0. -1.
         -1    1    1    2    0  501  0.25620110083E+02 -0.31165554400E+02 -0.44639349951E+02  0.60169372490E+02  0.00000000000E+00 0.  1.
<mgrwt>
<rscale>  0 0.37991703E+02</rscale>
<asrwt>0</asrwt>
<pdfrwt beam="2">  1        2 0.22146922E+00 0.38721337E+02</pdfrwt>
<pdfrwt beam="1">  1       -2 0.26372661E-02 0.37275818E+02</pdfrwt>
<totfact> 0.68891877E+03</totfact>
</mgrwt>
</event>
<event>
 5    1  0.8891499E-003  0.1318711E+03  0.7546771E-02  0.1424028E+00
         -1   -1    0    0    0  501 -0.00000000000E+00  0.00000000000E+00  0.27418713937E+03  0.27418713937E+03  0.00000000000E+00 0.  1.
          1   -1    0    0  502    0  0.00000000000E+00 -0.00000000000E+00 -0.12476071323E+04  0.12476071323E+04  0.00000000000E+00 0. -1.
         25    1    1    2    0    0  0.28245991110E+02 -0.12873444493E+03 -0.99780612393E+02  0.20724759090E+03  0.12500000000E+03 0.  0.
          2    1    1    2  502    0 -0.49567858332E+02  0.12234643095E+03 -0.10895370284E+04  0.10975046961E+04  0.00000000000E+00 0. -1.
         -2    1    1    2    0  501  0.21321867222E+02  0.63880139761E+01  0.21589764786E+03  0.21704198464E+03  0.00000000000E+00 0.  1.
<mgrwt>
<rscale>  0 0.54177634E+02</rscale>
<asrwt>0</asrwt>
<pdfrwt beam="2">  1        1 0.19193956E+00 0.13187105E+03</pdfrwt>
<pdfrwt beam="1">  1       -1 0.42182636E-01 0.22258229E+02</pdfrwt>
<totfact> 0.62908906E+01</totfact>
</mgrwt>
</event>
<event>
 5    1  0.8891499E-003  0.1067390E+03  0.7546771E-02  0.1371402E+00
          1   -1    0    0  501    0 -0.00000000000E+00  0.00000000000E+00  0.30027985336E+03  0.30027985336E+03  0.00000000000E+00 0. -1.
          2   -1    0    0  502    0  0.00000000000E+00 -0.00000000000E+00 -0.18939177888E+03  0.18939177888E+03  0.00000000000E+00 0. -1.
         25    1    1    2    0    0  0.90124905915E+02  0.54431635758E+02  0.83036124022E+02  0.18331748288E+03  0.12500000000E+03 0.  0.
          2    1    1    2  501    0 -0.26073539599E+02  0.32644344270E+02  0.14266814988E+03  0.14865962354E+03  0.00000000000E+00 0. -1.
          1    1    1    2  502    0 -0.64051366316E+02 -0.87075980028E+02 -0.11481619943E+03  0.15769452583E+03  0.00000000000E+00 0. -1.
<mgrwt>
<rscale>  0 0.66779072E+02</rscale>
<asrwt>0</asrwt>
<pdfrwt beam="2">  1        2 0.29137197E-01 0.10673896E+03</pdfrwt>
<pdfrwt beam="1">  1        1 0.46196900E-01 0.41778974E+02</pdfrwt>
<totfact> 0.21055582E+03</totfact>
</mgrwt>
</event>
<event>
 5    1  0.8891499E-003  0.8410826E+02  0.7546771E-02  0.1373682E+00
          2   -1    0    0  502    0  0.00000000000E+00  0.00000000000E+00  0.37225253709E+03  0.37225253709E+03  0.00000000000E+00 0. -1.
          1   -1    0    0  501    0 -0.00000000000E+00 -0.00000000000E+00 -0.53207770673E+03  0.53207770673E+03  0.00000000000E+00 0. -1.
         25    1    1    2    0    0  0.98518307350E+02  0.52126757421E+02  0.19261321383E+03  0.25524087812E+03  0.12500000000E+03 0.  0.
          2    1    1    2  501    0 -0.51215198905E+02  0.91857133174E+01 -0.48918173297E+03  0.49194119750E+03  0.00000000000E+00 0. -1.
          1    1    1    2  502    0 -0.47303108446E+02 -0.61312470739E+02  0.13674334949E+03  0.15714816820E+03  0.00000000000E+00 0. -1.
<mgrwt>
<rscale>  0 0.66154041E+02</rscale>
<asrwt>0</asrwt>
<pdfrwt beam="1">  1        2 0.57269622E-01 0.84108258E+02</pdfrwt>
<pdfrwt beam="2">  1        1 0.81858108E-01 0.52032432E+02</pdfrwt>
<totfact> 0.51277671E+02</totfact>
</mgrwt>
</event>
<event>
 5    1  0.8891499E-003  0.8016415E+02  0.7546771E-02  0.1359531E+00
          2   -1    0    0  502    0  0.00000000000E+00  0.00000000000E+00  0.20615747259E+04  0.20615747259E+04  0.00000000000E+00 0. -1.
          1   -1    0    0  501    0 -0.00000000000E+00 -0.00000000000E+00 -0.42135939358E+02  0.42135939358E+02  0.00000000000E+00 0. -1.
         25    1    1    2    0    0  0.85852297795E+02  0.81055230446E+02  0.61395410717E+03  0.63757761341E+03  0.12500000000E+03 0.  0.
          2    1    1    2  501    0 -0.75319086322E+02 -0.20551269278E+02  0.21762830120E+02  0.81048998811E+02  0.00000000000E+00 0. -1.
          1    1    1    2  502    0 -0.10533211473E+02 -0.60503961168E+02  0.13837218493E+04  0.13850840530E+04  0.00000000000E+00 0. -1.
<mgrwt>
<rscale>  0 0.70165517E+02</rscale>
<asrwt>0</asrwt>
<pdfrwt beam="1">  1        2 0.31716526E+00 0.61413988E+02</pdfrwt>
<pdfrwt beam="2">  1        1 0.64824538E-02 0.80164145E+02</pdfrwt>
<totfact> 0.11665632E+03</totfact>
</mgrwt>
</event>
<event>
 5    1  0.8891499E-003  0.4099725E+02  0.7546771E-02  0.1560600E+00
          1   -1    0    0  502    0  0.00000000000E+00  0.00000000000E+00  0.12873125867E+04  0.12873125867E+04  0.00000000000E+00 0. -1.
         -1   -1    0    0    0  501 -0.00000000000E+00 -0.00000000000E+00 -0.65211114885E+02  0.65211114885E+02  0.00000000000E+00 0.  1.
         25    1    1    2    0    0  0.66391657772E+02 -0.28252619543E+01  0.28454330677E+03  0.31781398294E+03  0.12500000000E+03 0.  0.
          2    1    1    2  502    0 -0.39392393317E+02  0.89108337203E+01  0.98174249039E+03  0.98257288842E+03  0.00000000000E+00 0. -1.
         -2    1    1    2    0  501 -0.26999264455E+02 -0.60855717660E+01 -0.44184325319E+02  0.52136830252E+02  0.00000000000E+00 0.  1.
<mgrwt>
<rscale>  0 0.33684786E+02</rscale>
<asrwt>0</asrwt>
<pdfrwt beam="1">  1        1 0.19804807E+00 0.40997253E+02</pdfrwt>
<pdfrwt beam="2">  1       -1 0.10032480E-01 0.27676605E+02</pdfrwt>
<totfact> 0.60366810E+02</totfact>
</mgrwt>
</event>
<event>
 5    1  0.8891499E-003  0.5655930E+02  0.7546771E-02  0.1477179E+00
          3   -1    0    0  501    0 -0.00000000000E+00  0.00000000000E+00  0.47270107663E+02  0.47270107663E+02  0.00000000000E+00 0. -1.
          2   -1    0    0  502    0  0.00000000000E+00 -0.00000000000E+00 -0.54827752764E+03  0.54827752764E+03  0.00000000000E+00 0. -1.
         25    1    1    2    0    0  0.48109252776E+02  0.52065527349E+02 -0.14537479275E+03  0.20441171617E+03  0.12500000000E+03 0.  0.
          2    1    1    2  501    0 -0.51861777416E+02 -0.17178266097E+02 -0.27557052960E+02  0.61189279704E+02  0.00000000000E+00 0. -1.
          1    1    1    2  502    0  0.37525246402E+01 -0.34887261252E+02 -0.32807557427E+03  0.32994663943E+03  0.00000000000E+00 0. -1.
<mgrwt>
<rscale>  0 0.44548633E+02</rscale>
<asrwt>0</asrwt>
<pdfrwt beam="2">  1        2 0.84350393E-01 0.35088494E+02</pdfrwt>
<pdfrwt beam="1">  1        3 0.72723239E-02 0.56559301E+02</pdfrwt>
<totfact> 0.37887596E+03</totfact>
</mgrwt>
</event>
<event>
 5    1  0.8891499E-003  0.3965521E+02  0.7546771E-02  0.1522129E+00
         -2   -1    0    0    0  501 -0.00000000000E+00  0.00000000000E+00  0.18058159025E+03  0.18058159025E+03  0.00000000000E+00 0.  1.
          2   -1    0    0  502    0  0.00000000000E+00 -0.00000000000E+00 -0.82613975777E+02  0.82613975777E+02  0.00000000000E+00 0. -1.
         25    1    1    2    0    0 -0.21045856423E+02  0.43014967776E+02  0.32851376887E+02  0.13783115935E+03  0.12500000000E+03 0.  0.
          3    1    1    2  502    0 -0.15297899639E+02 -0.37634672695E+02 -0.99180910273E+01  0.41818211964E+02  0.00000000000E+00 0. -1.
         -3    1    1    2    0  501  0.36343756062E+02 -0.53802950801E+01  0.75034328616E+02  0.83546194711E+02  0.00000000000E+00 0.  1.
<mgrwt>
<rscale>  0 0.38169704E+02</rscale>
<asrwt>0</asrwt>
<pdfrwt beam="2">  1        2 0.12709842E-01 0.39655211E+02</pdfrwt>
<pdfrwt beam="1">  1       -2 0.27781783E-01 0.36739845E+02</pdfrwt>
<totfact> 0.47697182E+03</totfact>
</mgrwt>
</event>
<event>
 5    1  0.8891499E-003  0.8576511E+02  0.7546771E-02  0.1316827E+00
         -2   -1    0    0    0  501 -0.00000000000E+00  0.00000000000E+00  0.11152706752E+03  0.11152706752E+03  0.00000000000E+00 0.  1.
          2   -1    0    0  502    0  0.00000000000E+00 -0.00000000000E+00 -0.29612116859E+04  0.29612116859E+04  0.00000000000E+00 0. -1.
         25    1    1    2    0    0  0.12365253053E+03  0.33034255672E+02 -0.28279420779E+03  0.33463229718E+03  0.12500000000E+03 0.  0.
          1    1    1    2  502    0 -0.74873709671E+02  0.36261124404E+02 -0.26307073339E+04  0.26320224198E+04  0.00000000000E+00 0. -1.
         -1    1    1    2    0  501 -0.48778820857E+02 -0.69295380076E+02  0.63816923396E+02  0.10608403639E+03  0.00000000000E+00 0.  1.
<mgrwt>
<rscale>  0 0.84468858E+02</rscale>
<asrwt>0</asrwt>
<pdfrwt beam="2">  1        2 0.45557100E+00 0.83192196E+02</pdfrwt>
<pdfrwt beam="1">  1       -2 0.17158011E-01 0.85765112E+02</pdfrwt>
<totfact> 0.69064627E+01</totfact>
</mgrwt>
</event>
<event>
 5    1  0.8891499E-003  0.6957987E+02  0.7546771E-02  0.1463892E+00
          1   -1    0    0  501    0 -0.00000000000E+00  0.00000000000E+00  0.36346316052E+03  0.36346316052E+03  0.00000000000E+00 0. -1.
          2   -1    0    0  502    0  0.00000000000E+00 -0.00000000000E+00 -0.17157265445E+04  0.17157265445E+04  0.00000000000E+00 0. -1.
         25    1    1    2    0    0  0.29261534049E+02 -0.95663842277E+02 -0.16694534168E+03  0.23130835524E+03  0.12500000000E+03 0.  0.
          2    1    1    2  501    0 -0.16389626024E+02  0.67058555447E+02  0.32752106853E+03  0.33471707460E+03  0.00000000000E+00 0. -1.
          1    1    1    2  502    0 -0.12871908025E+02  0.28605286830E+02 -0.15128391109E+04  0.15131642752E+04  0.00000000000E+00 0. -1.
<mgrwt>
<rscale>  0 0.46718070E+02</rscale>
<asrwt>0</asrwt>
<pdfrwt beam="2">  1        2 0.26395793E+00 0.31367953E+02</pdfrwt>
<pdfrwt beam="1">  1        1 0.55917409E-01 0.69579871E+02</pdfrwt>
<totfact> 0.12232899E+02</totfact>
</mgrwt>
</event>
<event>
 5    1  0.8891499E-003  0.4911976E+02  0.7546771E-02  0.1468967E+00
          1   -1    0    0  501    0 -0.00000000000E+00  0.00000000000E+00  0.17660253077E+03  0.17660253077E+03  0.00000000000E+00 0. -1.
          2   -1    0    0  502    0  0.00000000000E+00 -0.00000000000E+00 -0.94838292404E+03  0.94838292404E+03  0.00000000000E+00 0. -1.
         25    1    1    2    0    0  0.33337129875E+01  0.55662926174E+02 -0.37629992684E+03  0.40041991700E+03  0.12500000000E+03 0.  0.
          2    1    1    2  501    0  0.34341778944E+02 -0.35271469092E+02  0.16001718245E+03  0.16741843684E+03  0.00000000000E+00 0. -1.
          3    1    1    2  502    0 -0.37675491931E+02 -0.20391457082E+02 -0.55549764888E+03  0.55714710098E+03  0.00000000000E+00 0. -1.
<mgrwt>
<rscale>  0 0.45872474E+02</rscale>
<asrwt>0</asrwt>
<pdfrwt beam="2">  1        2 0.14590506E+00 0.42839867E+02</pdfrwt>
<pdfrwt beam="1">  1        1 0.27169620E-01 0.49119757E+02</pdfrwt>
<totfact> 0.69639071E+02</totfact>
</mgrwt>
</event>
<event>
 5    1  0.8891499E-003  0.6346227E+02  0.7546771E-02  0.1408421E+00
          1   -1    0    0  501    0 -0.00000000000E+00  0.00000000000E+00  0.56888088220E+03  0.56888088220E+03  0.00000000000E+00 0. -1.
          2   -1    0    0  502    0  0.00000000000E+00 -0.00000000000E+00 -0.24660056033E+04  0.24660056033E+04  0.00000000000E+00 0. -1.
         25    1    1    2    0    0 -0.92059504530E+02  0.26729270731E+02 -0.35930994468E+03  0.39232390015E+03  0.12500000000E+03 0.  0.
          2    1    1    2  501    0  0.61437346452E+02  0.15525717184E+02  0.55022940903E+03  0.55386640807E+03  0.00000000000E+00 0. -1.
          1    1    1    2  502    0  0.30622158078E+02 -0.42254987916E+02 -0.20880441854E+04  0.20886961773E+04  0.00000000000E+00 0. -1.
<mgrwt>
<rscale>  0 0.57547664E+02</rscale>
<asrwt>0</asrwt>
<pdfrwt beam="2">  1        2 0.37938547E+00 0.52184294E+02</pdfrwt>
<pdfrwt beam="1">  1        1 0.87520138E-01 0.63462268E+02</pdfrwt>
<totfact> 0.28269363E+01</totfact>
</mgrwt>
</event>
<event>
 5    1  0.8891499E-003  0.1143688E+03  0.7546771E-02  0.1365817E+00
          2   -1    0    0  502    0  0.00000000000E+00  0.00000000000E+00  0.66065413671E+03  0.66065413671E+03  0.00000000000E+00 0. -1.
          1   -1    0    0  501    0 -0.00000000000E+00 -0.00000000000E+00 -0.49584617005E+03  0.49584617005E+03  0.00000000000E+00 0. -1.
         25    1    1    2    0    0  0.91028875960E+02  0.11547838622E+03 -0.16766759723E+03  0.25565394013E+03  0.12500000000E+03 0.  0.
          2    1    1    2  501    0 -0.37984953940E+02 -0.15003521704E+02 -0.27744440024E+03  0.28043423046E+03  0.00000000000E+00 0. -1.
          1    1    1    2  502    0 -0.53043922019E+02 -0.10047486451E+03  0.60991996413E+03  0.62041213617E+03  0.00000000000E+00 0. -1.
<mgrwt>
<rscale>  0 0.68343981E+02</rscale>
<asrwt>0</asrwt>
<pdfrwt beam="1">  1        2 0.10163910E+00 0.11436876E+03</pdfrwt>
<pdfrwt beam="2">  1        1 0.76284026E-01 0.40840695E+02</pdfrwt>
<totfact> 0.30041051E+02</totfact>
</mgrwt>
</event>
<event>
 5    1  0.8891499E-003  0.8766439E+02  0.7546771E-02  0.1445817E+00
          1   -1    0    0  501    0 -0.00000000000E+00  0.00000000000E+00  0.18134046753E+03  0.18134046753E+03  0.00000000000E+00 0. -1.
          2   -1    0    0  502    0  0.00000000000E+00 -0.00000000000E+00 -0.90337588541E+03  0.90337588541E+03  0.00000000000E+00 0. -1.
         25    1    1    2    0    0  0.96020205099E+02 -0.55099294248E+02 -0.25337247211E+03  0.30344426447E+03  0.12500000000E+03 0.  0.
          2    1    1    2  501    0 -0.67613826745E+02  0.54304962440E+02  0.14392092479E+03  0.16802943523E+03  0.00000000000E+00 0. -1.
          1    1    1    2  502    0 -0.28406378354E+02  0.79433180788E+00 -0.61258387055E+03  0.61324265324E+03  0.00000000000E+00 0. -1.
<mgrwt>
<rscale>  0 0.49911935E+02</rscale>
<asrwt>0</asrwt>
<pdfrwt beam="2">  1        2 0.13898090E+00 0.28417482E+02</pdfrwt>
<pdfrwt beam="1">  1        1 0.27898534E-01 0.87664391E+02</pdfrwt>
<totfact> 0.74127032E+02</totfact>
</mgrwt>
</event>
<event>
 5    1  0.8891499E-003  0.1159371E+03  0.7546771E-02  0.1337196E+00
          1   -1    0    0  501    0 -0.00000000000E+00  0.00000000000E+00  0.85006419881E+03  0.85006419881E+03  0.00000000000E+00 0. -1.
          2   -1    0    0  502    0  0.00000000000E+00 -0.00000000000E+00 -0.47220810461E+04  0.47220810461E+04  0.00000000000E+00 0. -1.
         25    1    1    2    0    0 -0.30706633724E+02  0.14605915592E+03  0.32522728219E+02  0.19738009584E+03  0.12500000000E+03 0.  0.
          2    1    1    2  501    0 -0.25305717239E+02 -0.44742750100E+02  0.73349099566E+03  0.73528996574E+03  0.00000000000E+00 0. -1.
          1    1    1    2  502    0  0.56012350964E+02 -0.10131640583E+03 -0.46380305711E+04  0.46394751833E+04  0.00000000000E+00 0. -1.
<mgrwt>
<rscale>  0 0.77198074E+02</rscale>
<asrwt>0</asrwt>
<pdfrwt beam="2">  1        2 0.72647400E+00 0.11593710E+03</pdfrwt>
<pdfrwt beam="1">  1        1 0.13077911E+00 0.51403239E+02</pdfrwt>
<totfact> 0.40091527E-01</totfact>
</mgrwt>
</event>
<event>
 5    1  0.8891499E-003  0.1334029E+03  0.7546771E-02  0.1343343E+00
          2   -1    0    0  502    0  0.00000000000E+00  0.00000000000E+00  0.33803943565E+04  0.33803943565E+04  0.00000000000E+00 0. -1.
         -2   -1    0    0    0  501 -0.00000000000E+00 -0.00000000000E+00 -0.24058931017E+02  0.24058931017E+02  0.00000000000E+00 0.  1.
         25    1    1    2    0    0 -0.35403669585E+02  0.13523822791E+03  0.13359586438E+04  0.13490564466E+04  0.12500000000E+03 0.  0.
          1    1    1    2  502    0 -0.35803536567E+02 -0.22633811900E+02  0.17805067609E+04  0.17810105301E+04  0.00000000000E+00 0. -1.
         -1    1    1    2    0  501  0.71207206152E+02 -0.11260441601E+03  0.23987002076E+03  0.27438631083E+03  0.00000000000E+00 0.  1.
<mgrwt>
<rscale>  0 0.75170808E+02</rscale>
<asrwt>0</asrwt>
<pdfrwt beam="1">  1        2 0.52006029E+00 0.42357794E+02</pdfrwt>
<pdfrwt beam="2">  1       -2 0.37013767E-02 0.13340285E+03</pdfrwt>
<totfact> 0.49200953E+02</totfact>
</mgrwt>
</event>
<event>
 5    1  0.8891499E-003  0.3795764E+02  0.7546771E-02  0.1550370E+00
          1   -1    0    0  501    0 -0.00000000000E+00  0.00000000000E+00  0.79023938145E+03  0.79023938145E+03  0.00000000000E+00 0. -1.
          2   -1    0    0  502    0  0.00000000000E+00 -0.00000000000E+00 -0.31400280890E+03  0.31400280890E+03  0.00000000000E+00 0. -1.
         25    1    1    2    0    0  0.44757489518E+01 -0.32940852596E+02  0.78755938171E+01  0.12958455570E+03  0.12500000000E+03 0.  0.
          2    1    1    2  501    0 -0.33108865755E+02  0.18860623340E+02  0.71999806766E+03  0.72100564321E+03  0.00000000000E+00 0. -1.
          1    1    1    2  502    0  0.28633116804E+02  0.14080229256E+02 -0.25163708893E+03  0.25365199144E+03  0.00000000000E+00 0. -1.
<mgrwt>
<rscale>  0 0.34801508E+02</rscale>
<asrwt>0</asrwt>
<pdfrwt beam="2">  1        2 0.48308125E-01 0.31907808E+02</pdfrwt>
<pdfrwt beam="1">  1        1 0.12157529E+00 0.37957636E+02</pdfrwt>
<totfact> 0.36248434E+02</totfact>
</mgrwt>
</event>
<event>
 5    1  0.8891499E-003  0.9011927E+02  0.7546771E-02  0.1435776E+00
          2   -1    0    0  502    0  0.00000000000E+00  0.00000000000E+00  0.12560939690E+04  0.12560939690E+04  0.00000000000E+00 0. -1.
         -2   -1    0    0    0  501 -0.00000000000E+00 -0.00000000000E+00 -0.74369418812E+02  0.74369418812E+02  0.00000000000E+00 0.  1.
         25    1    1    2    0    0 -0.47589558494E+02 -0.45057380292E+02  0.48045982247E+03  0.50076099549E+03  0.12500000000E+03 0.  0.
          1    1    1    2  502    0 -0.66755922808E+01 -0.29037362098E+02  0.73218900403E+03  0.73279497102E+03  0.00000000000E+00 0. -1.
         -1    1    1    2    0  501  0.54265150775E+02  0.74094742390E+02 -0.30924276309E+02  0.96907421304E+02  0.00000000000E+00 0.  1.
<mgrwt>
<rscale>  0 0.51817838E+02</rscale>
<asrwt>0</asrwt>
<pdfrwt beam="1">  1        2 0.19324521E+00 0.29794831E+02</pdfrwt>
<pdfrwt beam="2">  1       -2 0.11441450E-01 0.90119268E+02</pdfrwt>
<totfact> 0.10875275E+03</totfact>
</mgrwt>
</event>
<event>
 5    1  0.8891499E-003  0.6858209E+02  0.7546771E-02  0.1421085E+00
          1   -1    0    0  502    0  0.00000000000E+00  0.00000000000E+00  0.57346588238E+02  0.57346588238E+02  0.00000000000E+00 0. -1.
         -1   -1    0    0    0  501 -0.00000000000E+00 -0.00000000000E+00 -0.70553888164E+03  0.70553888164E+03  0.00000000000E+00 0.  1.
         25    1    1    2    0    0 -0.15562659991E+02 -0.10561037000E+03 -0.31104852508E+03  0.35181235281E+03  0.12500000000E+03 0.  0.
          2    1    1    2  502    0  0.17738443478E+01  0.43738819805E+02  0.20157141362E+02  0.48192750799E+02  0.00000000000E+00 0. -1.
         -2    1    1    2    0  501  0.13788815643E+02  0.61871550193E+02 -0.35730090968E+03  0.36288036626E+03  0.00000000000E+00 0.  1.
<mgrwt>
<rscale>  0 0.54792020E+02</rscale>
<asrwt>0</asrwt>
<pdfrwt beam="1">  1        1 0.88225525E-02 0.43774774E+02</pdfrwt>
<pdfrwt beam="2">  1       -1 0.10854444E+00 0.68582090E+02</pdfrwt>
<totfact> 0.60113424E+02</totfact>
</mgrwt>
</event>
<event>
 5    1  0.8891499E-003  0.1275177E+03  0.7546771E-02  0.1257581E+00
          2   -1    0    0  502    0  0.00000000000E+00  0.00000000000E+00  0.12875672804E+04  0.12875672804E+04  0.00000000000E+00 0. -1.
         -2   -1    0    0    0  501 -0.00000000000E+00 -0.00000000000E+00 -0.10969173173E+03  0.10969173173E+03  0.00000000000E+00 0.  1.
         25    1    1    2    0    0  0.19072421838E+03  0.53697243040E+02  0.32914636357E+03  0.40400674504E+03  0.12500000000E+03 0.  0.
          3    1    1    2  502    0 -0.95925240984E+02  0.18652492633E+02  0.86710271019E+03  0.87259193060E+03  0.00000000000E+00 0. -1.
         -1    1    1    2    0  501 -0.94798977393E+02 -0.72349735673E+02 -0.18373525120E+02  0.12066033645E+03  0.00000000000E+00 0.  1.
<mgrwt>
<rscale>  0 0.11163008E+03</rscale>
<asrwt>0</asrwt>
<pdfrwt beam="1">  1        2 0.19808726E+00 0.97721888E+02</pdfrwt>
<pdfrwt beam="2">  1       -2 0.16875652E-01 0.12751775E+03</pdfrwt>
<totfact> 0.52360908E+02</totfact>
</mgrwt>
</event>
<event>
 5    1  0.8891499E-003  0.2241876E+03  0.7546771E-02  0.1318147E+00
          1   -1    0    0  501    0 -0.00000000000E+00  0.00000000000E+00  0.11384763231E+04  0.11384763231E+04  0.00000000000E+00 0. -1.
          2   -1    0    0  502    0  0.00000000000E+00 -0.00000000000E+00 -0.11272387771E+04  0.11272387771E+04  0.00000000000E+00 0. -1.
         25    1    1    2    0    0 -0.12813076161E+03 -0.20800483827E+03  0.24903059497E+03  0.37057353123E+03  0.12500000000E+03 0.  0.
          2    1    1    2  501    0  0.99104859581E+02  0.19589296362E+03  0.81389500084E+03  0.84298333244E+03  0.00000000000E+00 0. -1.
          1    1    1    2  502    0  0.29025902032E+02  0.12111874648E+02 -0.10516880498E+04  0.10521582365E+04  0.00000000000E+00 0. -1.
<mgrwt>
<rscale>  0 0.83970523E+02</rscale>
<asrwt>0</asrwt>
<pdfrwt beam="2">  1        2 0.17342135E+00 0.31451558E+02</pdfrwt>
<pdfrwt beam="1">  1        1 0.17515020E+00 0.22418758E+03</pdfrwt>
<totfact> 0.44254619E+01</totfact>
</mgrwt>
</event>
<event>
 5    1  0.8891499E-003  0.6647458E+02  0.7546771E-02  0.1384467E+00
          2   -1    0    0  502    0  0.00000000000E+00  0.00000000000E+00  0.36623363000E+03  0.36623363000E+03  0.00000000000E+00 0. -1.
          1   -1    0    0  501    0 -0.00000000000E+00 -0.00000000000E+00 -0.13680908761E+03  0.13680908761E+03  0.00000000000E+00 0. -1.
         25    1    1    2    0    0  0.56640009037E+02  0.25224258114E+02  0.19394682651E+01  0.13954610478E+03  0.12500000000E+03 0.  0.
          2    1    1    2  501    0 -0.52566475550E+02  0.41125394319E+02 -0.46641940711E+02  0.81424830629E+02  0.00000000000E+00 0. -1.
          1    1    1    2  502    0 -0.40735334865E+01 -0.66349652433E+02  0.27412701483E+03  0.28207178220E+03  0.00000000000E+00 0. -1.
<mgrwt>
<rscale>  0 0.63303922E+02</rscale>
<asrwt>0</asrwt>
<pdfrwt beam="1">  1        2 0.56343635E-01 0.66474582E+02</pdfrwt>
<pdfrwt beam="2">  1        1 0.21047552E-01 0.60284495E+02</pdfrwt>
<totfact> 0.27218077E+03</totfact>
</mgrwt>
</event>
<event>
 5    1  0.8891499E-003  0.1409918E+03  0.7546771E-02  0.1221218E+00
          2   -1    0    0  502    0  0.00000000000E+00  0.00000000000E+00  0.14775500460E+04  0.14775500460E+04  0.00000000000E+00 0. -1.
          1   -1    0    0  501    0 -0.00000000000E+00 -0.00000000000E+00 -0.23261206246E+03  0.23261206246E+03  0.00000000000E+00 0. -1.
         25    1    1    2    0    0  0.37238373132E+01 -0.16492085276E+02 -0.93586631985E+02  0.15706467944E+03  0.12500000000E+03 0.  0.
          2    1    1    2  501    0  0.45232584937E+02 -0.11965318011E+03 -0.64066351180E+02  0.14306420798E+03  0.00000000000E+00 0. -1.
          1    1    1    2  502    0 -0.48956422250E+02  0.13614526539E+03  0.14025909667E+04  0.14100332210E+04  0.00000000000E+00 0. -1.
<mgrwt>
<rscale>  0 0.13429561E+03</rscale>
<asrwt>0</asrwt>
<pdfrwt beam="1">  1        2 0.22731539E+00 0.14099181E+03</pdfrwt>
<pdfrwt beam="2">  1        1 0.35786472E-01 0.12791744E+03</pdfrwt>
<totfact> 0.24240594E+02</totfact>
</mgrwt>
</event>
<event>
 5    1  0.8891499E-003  0.1015133E+03  0.7546771E-02  0.1311569E+00
          2   -1    0    0  502    0  0.00000000000E+00  0.00000000000E+00  0.24257704833E+03  0.24257704833E+03  0.00000000000E+00 0. -1.
         -2   -1    0    0    0  501 -0.00000000000E+00 -0.00000000000E+00 -0.70989000522E+03  0.70989000522E+03  0.00000000000E+00 0.  1.
         25    1    1    2    0    0 -0.57926167288E+02  0.35370224304E+02 -0.25790620667E+03  0.29452861502E+03  0.12500000000E+03 0.  0.
          1    1    1    2  502    0  0.24332207464E+02 -0.10096689440E+03  0.20884478246E+03  0.23324346346E+03  0.00000000000E+00 0. -1.
         -1    1    1    2    0  501  0.33593959824E+02  0.65596670092E+02 -0.41825153268E+03  0.42469497507E+03  0.00000000000E+00 0.  1.
<mgrwt>
<rscale>  0 0.86495002E+02</rscale>
<asrwt>0</asrwt>
<pdfrwt beam="1">  1        2 0.37319546E-01 0.10151332E+03</pdfrwt>
<pdfrwt beam="2">  1       -2 0.10921385E+00 0.73698557E+02</pdfrwt>
<totfact> 0.99822461E+01</totfact>
</mgrwt>
</event>
<event>
 5    1  0.8891499E-003  0.4773207E+02  0.7546771E-02  0.1500056E+00
          1   -1    0    0  502    0  0.00000000000E+00  0.00000000000E+00  0.41909942187E+03  0.41909942187E+03  0.00000000000E+00 0. -1.
         -1   -1    0    0    0  501 -0.00000000000E+00 -0.00000000000E+00 -0.43852125086E+03  0.43852125086E+03  0.00000000000E+00 0.  1.
         25    1    1    2    0    0  0.72764637922E+02  0.31947951949E+02  0.95500656145E+02  0.17624057277E+03  0.12500000000E+03 0.  0.
          2    1    1    2  502    0 -0.25993842752E+02 -0.24091706196E+02  0.28069825323E+03  0.28292684485E+03  0.00000000000E+00 0. -1.
         -2    1    1    2    0  501 -0.46770795170E+02 -0.78562457526E+01 -0.39562073837E+03  0.39845325511E+03  0.00000000000E+00 0.  1.
<mgrwt>
<rscale>  0 0.41130153E+02</rscale>
<asrwt>0</asrwt>
<pdfrwt beam="1">  1        1 0.64476834E-01 0.35441362E+02</pdfrwt>
<pdfrwt beam="2">  1       -1 0.67464808E-01 0.47732066E+02</pdfrwt>
<totfact> 0.14213030E+02</totfact>
</mgrwt>
</event>
<event>
 5    1  0.8891499E-003  0.5853416E+02  0.7546771E-02  0.1473438E+00
          1   -1    0    0  501    0 -0.00000000000E+00  0.00000000000E+00  0.21742146605E+02  0.21742146605E+02  0.00000000000E+00 0. -1.
          2   -1    0    0  502    0  0.00000000000E+00 -0.00000000000E+00 -0.12420226574E+04  0.12420226574E+04  0.00000000000E+00 0. -1.
         25    1    1    2    0    0  0.67250810188E+02  0.46621019346E+02 -0.46949378037E+03  0.49269219673E+03  0.12500000000E+03 0.  0.
          2    1    1    2  501    0 -0.53334514185E+02 -0.14704472341E+02 -0.69199571834E+02  0.88596685334E+02  0.00000000000E+00 0. -1.
          1    1    1    2  502    0 -0.13916296003E+02 -0.31916547006E+02 -0.68158715862E+03  0.68247592196E+03  0.00000000000E+00 0. -1.
<mgrwt>
<rscale>  0 0.45145019E+02</rscale>
<asrwt>0</asrwt>
<pdfrwt beam="2">  1        2 0.19108041E+00 0.34818519E+02</pdfrwt>
<pdfrwt beam="1">  1        1 0.33449456E-02 0.58534159E+02</pdfrwt>
<totfact> 0.73224613E+03</totfact>
</mgrwt>
</event>
<event>
 5    1  0.8891499E-003  0.1275889E+03  0.7546771E-02  0.1326146E+00
          2   -1    0    0  502    0  0.00000000000E+00  0.00000000000E+00  0.90022999338E+03  0.90022999338E+03  0.00000000000E+00 0. -1.
          1   -1    0    0  501    0 -0.00000000000E+00 -0.00000000000E+00 -0.19375577976E+04  0.19375577976E+04  0.00000000000E+00 0. -1.
         25    1    1    2    0    0 -0.15172869958E+03 -0.38722356106E+02  0.27937451617E+03  0.34379665417E+03  0.12500000000E+03 0.  0.
          2    1    1    2  501    0  0.12726949341E+03 -0.65583382454E+01 -0.19020855898E+04  0.19063499486E+04  0.00000000000E+00 0. -1.
          1    1    1    2  502    0  0.24459206166E+02  0.45280694351E+02  0.58538326935E+03  0.58764118822E+03  0.00000000000E+00 0. -1.
<mgrwt>
<rscale>  0 0.81032707E+02</rscale>
<asrwt>0</asrwt>
<pdfrwt beam="1">  1        2 0.13849692E+00 0.51464493E+02</pdfrwt>
<pdfrwt beam="2">  1        1 0.29808581E+00 0.12758893E+03</pdfrwt>
<totfact> 0.18127650E+01</totfact>
</mgrwt>
</event>
<event>
 5    1  0.8891499E-003  0.9779902E+02  0.7546771E-02  0.1409260E+00
          1   -1    0    0  501    0 -0.00000000000E+00  0.00000000000E+00  0.53258953927E+03  0.53258953927E+03  0.00000000000E+00 0. -1.
          2   -1    0    0  502    0  0.00000000000E+00 -0.00000000000E+00 -0.29812207456E+04  0.29812207456E+04  0.00000000000E+00 0. -1.
         25    1    1    2    0    0  0.79272948220E+02 -0.21441731203E+02  0.14034594239E+03  0.20509980912E+03  0.12500000000E+03 0.  0.
          2    1    1    2  501    0  0.18389465064E+02  0.28170196385E+02  0.35826599474E+03  0.35984198667E+03  0.00000000000E+00 0. -1.
          1    1    1    2  502    0 -0.97662413284E+02 -0.67284651820E+01 -0.29472431435E+04  0.29488684891E+04  0.00000000000E+00 0. -1.
<mgrwt>
<rscale>  0 0.57359213E+02</rscale>
<asrwt>0</asrwt>
<pdfrwt beam="2">  1        2 0.45864933E+00 0.97799017E+02</pdfrwt>
<pdfrwt beam="1">  1        1 0.81936854E-01 0.33641231E+02</pdfrwt>
<totfact> 0.15021104E+01</totfact>
</mgrwt>
</event>
<event>
 5    1  0.8891499E-003  0.6843736E+02  0.7546771E-02  0.1396261E+00
          1   -1    0    0  501    0 -0.00000000000E+00  0.00000000000E+00  0.44057755182E+02  0.44057755182E+02  0.00000000000E+00 0. -1.
          2   -1    0    0  502    0  0.00000000000E+00 -0.00000000000E+00 -0.12315060722E+04  0.12315060722E+04  0.00000000000E+00 0. -1.
         25    1    1    2    0    0  0.59133453431E+02 -0.24608535348E+02 -0.12113460233E+03  0.18547489643E+03  0.12500000000E+03 0.  0.
          2    1    1    2  501    0 -0.77501807814E+02 -0.25388277413E+02 -0.13835361559E+03  0.16060142525E+03  0.00000000000E+00 0. -1.
          1    1    1    2  502    0  0.18368354382E+02  0.49996812761E+02 -0.92796009913E+03  0.92948750573E+03  0.00000000000E+00 0. -1.
<mgrwt>
<rscale>  0 0.60376014E+02</rscale>
<asrwt>0</asrwt>
<pdfrwt beam="2">  1        2 0.18946246E+00 0.53264226E+02</pdfrwt>
<pdfrwt beam="1">  1        1 0.67781167E-02 0.68437361E+02</pdfrwt>
<totfact> 0.28465712E+03</totfact>
</mgrwt>
</event>
<event>
 5    1  0.8891499E-003  0.1456537E+03  0.7546771E-02  0.1383027E+00
          2   -1    0    0  502    0  0.00000000000E+00  0.00000000000E+00  0.59282157445E+03  0.59282157445E+03  0.00000000000E+00 0. -1.
         -2   -1    0    0    0  501 -0.00000000000E+00 -0.00000000000E+00 -0.23207273848E+03  0.23207273848E+03  0.00000000000E+00 0.  1.
         25    1    1    2    0    0  0.12314693124E+03  0.51017776839E+02  0.10813888139E+03  0.21233699135E+03  0.12500000000E+03 0.  0.
          1    1    1    2  502    0 -0.14514519809E+03 -0.33960902506E+02  0.41854811632E+03  0.44430057067E+03  0.00000000000E+00 0. -1.
         -1    1    1    2    0  501  0.21998266849E+02 -0.17056874333E+02 -0.16593816174E+03  0.16825675091E+03  0.00000000000E+00 0.  1.
<mgrwt>
<rscale>  0 0.63674658E+02</rscale>
<asrwt>0</asrwt>
<pdfrwt beam="1">  1        2 0.91203318E-01 0.14565367E+03</pdfrwt>
<pdfrwt beam="2">  1       -2 0.35703498E-01 0.27836320E+02</pdfrwt>
<totfact> 0.37182591E+02</totfact>
</mgrwt>
</event>
<event>
 5    1  0.8891499E-003  0.6839933E+02  0.7546771E-02  0.1385844E+00
          2   -1    0    0  502    0  0.00000000000E+00  0.00000000000E+00  0.60208998853E+03  0.60208998853E+03  0.00000000000E+00 0. -1.
          1   -1    0    0  501    0 -0.00000000000E+00 -0.00000000000E+00 -0.87481271812E+02  0.87481271812E+02  0.00000000000E+00 0. -1.
         25    1    1    2    0    0  0.18834587238E+02  0.84533859869E+02  0.18898220726E+03  0.24256955663E+03  0.12500000000E+03 0.  0.
          2    1    1    2  501    0  0.36923753571E+02 -0.44649468330E+02 -0.42938246929E+02  0.72115405076E+02  0.00000000000E+00 0. -1.
          1    1    1    2  502    0 -0.55758340809E+02 -0.39884391539E+02  0.36856475638E+03  0.37488629864E+03  0.00000000000E+00 0. -1.
<mgrwt>
<rscale>  0 0.62952323E+02</rscale>
<asrwt>0</asrwt>
<pdfrwt beam="1">  1        2 0.92629226E-01 0.68399326E+02</pdfrwt>
<pdfrwt beam="2">  1        1 0.13458658E-01 0.57939094E+02</pdfrwt>
<totfact> 0.28031035E+03</totfact>
</mgrwt>
</event>
<event>
 5    1  0.8891499E-003  0.7501488E+02  0.7546771E-02  0.1356639E+00
          1   -1    0    0  501    0 -0.00000000000E+00  0.00000000000E+00  0.25312409663E+04  0.25312409663E+04  0.00000000000E+00 0. -1.
          2   -1    0    0  502    0  0.00000000000E+00 -0.00000000000E+00 -0.13786279528E+03  0.13786279528E+03  0.00000000000E+00 0. -1.
         25    1    1    2    0    0  0.16582713052E+01 -0.12021920066E+02  0.34877550993E+03  0.37069749493E+03  0.12500000000E+03 0.  0.
          2    1    1    2  501    0  0.24106169876E+01  0.79147542800E+02  0.21618191639E+04  0.21632688788E+04  0.00000000000E+00 0. -1.
          1    1    1    2  502    0 -0.40688882928E+01 -0.67125622734E+02 -0.11721650278E+03  0.13513738788E+03  0.00000000000E+00 0. -1.
<mgrwt>
<rscale>  0 0.71025792E+02</rscale>
<asrwt>0</asrwt>
<pdfrwt beam="2">  1        2 0.21209663E-01 0.67248830E+02</pdfrwt>
<pdfrwt beam="1">  1        1 0.38942165E+00 0.75014885E+02</pdfrwt>
<totfact> 0.61437538E+01</totfact>
</mgrwt>
</event>
<event>
 5    1  0.8891499E-003  0.8156168E+02  0.7546771E-02  0.1349443E+00
          2   -1    0    0  502    0  0.00000000000E+00  0.00000000000E+00  0.83480786235E+03  0.83480786235E+03  0.00000000000E+00 0. -1.
          1   -1    0    0  501    0 -0.00000000000E+00 -0.00000000000E+00 -0.98173311147E+03  0.98173311147E+03  0.00000000000E+00 0. -1.
         25    1    1    2    0    0 -0.12957926984E+03 -0.32730512003E+02  0.41380732654E+03  0.45246389589E+03  0.12500000000E+03 0.  0.
          2    1    1    2  501    0  0.80624347188E+02 -0.11158571310E+02 -0.95797695034E+03  0.96142843543E+03  0.00000000000E+00 0. -1.
          1    1    1    2  502    0  0.48954922650E+02  0.43889083313E+02  0.39724437468E+03  0.40264864250E+03  0.00000000000E+00 0. -1.
<mgrwt>
<rscale>  0 0.73229364E+02</rscale>
<asrwt>0</asrwt>
<pdfrwt beam="1">  1        2 0.12843198E+00 0.65748278E+02</pdfrwt>
<pdfrwt beam="2">  1        1 0.15103586E+00 0.81561676E+02</pdfrwt>
<totfact> 0.86717052E+01</totfact>
</mgrwt>
</event>
<event>
 5    1  0.8891499E-003  0.8228218E+02  0.7546771E-02  0.1467068E+00
         -2   -1    0    0    0  501 -0.00000000000E+00  0.00000000000E+00  0.15949980273E+02  0.15949980273E+02  0.00000000000E+00 0.  1.
          2   -1    0    0  502    0  0.00000000000E+00 -0.00000000000E+00 -0.26051344452E+04  0.26051344452E+04  0.00000000000E+00 0. -1.
         25    1    1    2    0    0 -0.52216887379E+02 -0.27189602041E+02 -0.56419013902E+03  0.58086262641E+03  0.12500000000E+03 0.  0.
          1    1    1    2  502    0  0.75269878143E+02  0.39050397391E+02 -0.20067020047E+04  0.20084928239E+04  0.00000000000E+00 0. -1.
         -1    1    1    2    0  501 -0.23052990764E+02 -0.11860795350E+02 -0.18292321246E+02  0.31728975182E+02  0.00000000000E+00 0.  1.
<mgrwt>
<rscale>  0 0.46186432E+02</rscale>
<asrwt>0</asrwt>
<pdfrwt beam="2">  1        2 0.40079031E+00 0.82282182E+02</pdfrwt>
<pdfrwt beam="1">  1       -2 0.24538407E-02 0.25925255E+02</pdfrwt>
<totfact> 0.17275271E+03</totfact>
</mgrwt>
</event>
<event>
 5    1  0.8891499E-003  0.8896435E+02  0.7546771E-02  0.1412241E+00
          1   -1    0    0  501    0 -0.00000000000E+00  0.00000000000E+00  0.20068084677E+03  0.20068084677E+03  0.00000000000E+00 0. -1.
          2   -1    0    0  502    0  0.00000000000E+00 -0.00000000000E+00 -0.70827720163E+03  0.70827720163E+03  0.00000000000E+00 0. -1.
         25    1    1    2    0    0 -0.62470174882E+02  0.83911796073E+01 -0.29461969393E+03  0.32618813390E+03  0.12500000000E+03 0.  0.
          2    1    1    2  501    0 -0.35760771960E+02  0.51701517842E+01  0.17686293181E+03  0.18051609327E+03  0.00000000000E+00 0. -1.
          3    1    1    2  502    0  0.98230946842E+02 -0.13561331391E+02 -0.38983959273E+03  0.40225382122E+03  0.00000000000E+00 0. -1.
<mgrwt>
<rscale>  0 0.56696662E+02</rscale>
<asrwt>0</asrwt>
<pdfrwt beam="2">  1        2 0.10896572E+00 0.88964350E+02</pdfrwt>
<pdfrwt beam="1">  1        1 0.30873977E-01 0.36132579E+02</pdfrwt>
<totfact> 0.81992258E+02</totfact>
</mgrwt>
</event>
<event>
 5    1  0.8891499E-003  0.6947840E+02  0.7546771E-02  0.1370736E+00
          2   -1    0    0  502    0  0.00000000000E+00  0.00000000000E+00  0.10329659995E+04  0.10329659995E+04  0.00000000000E+00 0. -1.
          1   -1    0    0  501    0 -0.00000000000E+00 -0.00000000000E+00 -0.37834129381E+03  0.37834129381E+03  0.00000000000E+00 0. -1.
         25    1    1    2    0    0  0.96357620197E+02 -0.33896907700E+02  0.15348987181E+03  0.22275082956E+03  0.12500000000E+03 0.  0.
          2    1    1    2  501    0 -0.65432520649E+02 -0.22750284707E+02 -0.33896994301E+03  0.34597631780E+03  0.00000000000E+00 0. -1.
          1    1    1    2  502    0 -0.30925099548E+02  0.56647192407E+02  0.84010477692E+03  0.84258014598E+03  0.00000000000E+00 0. -1.
<mgrwt>
<rscale>  0 0.66963106E+02</rscale>
<asrwt>0</asrwt>
<pdfrwt beam="1">  1        2 0.15891785E+00 0.64538873E+02</pdfrwt>
<pdfrwt beam="2">  1        1 0.58206353E-01 0.69478398E+02</pdfrwt>
<totfact> 0.24425515E+02</totfact>
</mgrwt>
</event>
<event>
 5    1  0.8891499E-003  0.6680306E+02  0.7546771E-02  0.1502819E+00
         -2   -1    0    0    0  501 -0.00000000000E+00  0.00000000000E+00  0.15431159088E+03  0.15431159088E+03  0.00000000000E+00 0.  1.
          2   -1    0    0  502    0  0.00000000000E+00 -0.00000000000E+00 -0.77115169277E+03  0.77115169277E+03  0.00000000000E+00 0. -1.
         25    1    1    2    0    0 -0.42763643073E+02 -0.24446670672E+02 -0.15872253521E+02  0.13528967924E+03  0.12500000000E+03 0.  0.
          1    1    1    2  502    0 -0.24406355978E+02  0.46652058339E+01 -0.68235644221E+03  0.68280872035E+03  0.00000000000E+00 0. -1.
         -1    1    1    2    0  501  0.67169999050E+02  0.19781464838E+02  0.81388593842E+02  0.10736488407E+03  0.00000000000E+00 0.  1.
<mgrwt>
<rscale>  0 0.40742332E+02</rscale>
<asrwt>0</asrwt>
<pdfrwt beam="2">  1        2 0.11863872E+00 0.24848226E+02</pdfrwt>
<pdfrwt beam="1">  1       -2 0.23740245E-01 0.66803063E+02</pdfrwt>
<totfact> 0.60900365E+02</totfact>
</mgrwt>
</event>
<event>
 5    1  0.8891499E-003  0.1951886E+03  0.7546771E-02  0.1235723E+00
          2   -1    0    0  502    0  0.00000000000E+00  0.00000000000E+00  0.17794926920E+04  0.17794926920E+04  0.00000000000E+00 0. -1.
          1   -1    0    0  501    0 -0.00000000000E+00 -0.00000000000E+00 -0.68786216954E+03  0.68786216954E+03  0.00000000000E+00 0. -1.
         25    1    1    2    0    0  0.16717555443E+03 -0.21754230766E+02  0.46562751805E+02  0.21497442269E+03  0.12500000000E+03 0.  0.
          2    1    1    2  501    0 -0.17269395218E+03  0.10107987009E+03 -0.58607873175E+03  0.61929687636E+03  0.00000000000E+00 0. -1.
          1    1    1    2  502    0  0.55183977483E+01 -0.79325639325E+02  0.16311465024E+04  0.16330835625E+04  0.00000000000E+00 0. -1.
<mgrwt>
<rscale>  0 0.12458282E+03</rscale>
<asrwt>0</asrwt>
<pdfrwt beam="1">  1        2 0.27376811E+00 0.79517355E+02</pdfrwt>
<pdfrwt beam="2">  1        1 0.10582495E+00 0.19518858E+03</pdfrwt>
<totfact> 0.43878468E+01</totfact>
</mgrwt>
</event>
<event>
 5    1  0.8891499E-003  0.5299678E+02  0.7546771E-02  0.1521828E+00
         -2   -1    0    0    0  501  0.00000000000E+00  0.00000000000E+00  0.30821318870E+03  0.30821318870E+03  0.00000000000E+00 0.  1.
         -1   -1    0    0    0  502 -0.00000000000E+00 -0.00000000000E+00 -0.82189317039E+03  0.82189317039E+03  0.00000000000E+00 0.  1.
         25    1    1    2    0    0 -0.79620350561E+02 -0.24320163329E+01 -0.50476730771E+03  0.52608017437E+03  0.12500000000E+03 0.  0.
         -2    1    1    2    0  502  0.26868898883E+02  0.60707345961E+01 -0.30349163052E+03  0.30473916936E+03  0.00000000000E+00 0.  1.
         -3    1    1    2    0  501  0.52751451678E+02 -0.36387182632E+01  0.29457895655E+03  0.29928701536E+03  0.00000000000E+00 0.  1.
<mgrwt>
<rscale>  0 0.38208093E+02</rscale>
<asrwt>0</asrwt>
<pdfrwt beam="1">  1       -2 0.47417414E-01 0.52996780E+02</pdfrwt>
<pdfrwt beam="2">  1       -1 0.12644510E+00 0.27546171E+02</pdfrwt>
<totfact> 0.21098705E+01</totfact>
</mgrwt>
</event>
<event>
 5    1  0.8891499E-003  0.2237199E+03  0.7546771E-02  0.1216015E+00
          1   -1    0    0  501    0 -0.00000000000E+00  0.00000000000E+00  0.14542218601E+04  0.14542218601E+04  0.00000000000E+00 0. -1.
          2   -1    0    0  502    0  0.00000000000E+00 -0.00000000000E+00 -0.59753111518E+03  0.59753111518E+03  0.00000000000E+00 0. -1.
         25    1    1    2    0    0  0.17098196898E+03  0.39886839038E+02 -0.86252867308E+02  0.23214295330E+03  0.12500000000E+03 0.  0.
          2    1    1    2  501    0 -0.22570216323E+03  0.25355635710E+02  0.13676860415E+04  0.13864160569E+04  0.00000000000E+00 0. -1.
          1    1    1    2  502    0  0.54720194242E+02 -0.65242474748E+02 -0.42474242926E+03  0.43319396508E+03  0.00000000000E+00 0. -1.
<mgrwt>
<rscale>  0 0.13802254E+03</rscale>
<asrwt>0</asrwt>
<pdfrwt beam="2">  1        2 0.91927865E-01 0.85152100E+02</pdfrwt>
<pdfrwt beam="1">  1        1 0.22372644E+00 0.22371993E+03</pdfrwt>
<totfact> 0.55833224E+01</totfact>
</mgrwt>
</event>
<event>
 5    1  0.8891499E-003  0.8373757E+02  0.7546771E-02  0.1407415E+00
          1   -1    0    0  502    0  0.00000000000E+00  0.00000000000E+00  0.12431278279E+04  0.12431278279E+04  0.00000000000E+00 0. -1.
         -1   -1    0    0    0  501 -0.00000000000E+00 -0.00000000000E+00 -0.54351322235E+02  0.54351322235E+02  0.00000000000E+00 0.  1.
         25    1    1    2    0    0  0.12125441897E+03  0.78038867112E+01  0.14547960421E+03  0.22705252698E+03  0.12500000000E+03 0.  0.
          2    1    1    2  502    0 -0.81506005412E+02 -0.10805868221E+02  0.10218677043E+04  0.10251700351E+04  0.00000000000E+00 0. -1.
         -2    1    1    2    0  501 -0.39748413553E+02  0.30019815097E+01  0.21429197116E+02  0.45256588051E+02  0.00000000000E+00 0.  1.
<mgrwt>
<rscale>  0 0.57774688E+02</rscale>
<asrwt>0</asrwt>
<pdfrwt beam="1">  1        1 0.19125041E+00 0.83737568E+02</pdfrwt>
<pdfrwt beam="2">  1       -1 0.83617428E-02 0.39861614E+02</pdfrwt>
<totfact> 0.81879319E+02</totfact>
</mgrwt>
</event>
<event>
 5    1  0.8891499E-003  0.1020128E+03  0.7546771E-02  0.1312434E+00
          1   -1    0    0  501    0 -0.00000000000E+00  0.00000000000E+00  0.90073909530E+02  0.90073909530E+02  0.00000000000E+00 0. -1.
          2   -1    0    0  502    0  0.00000000000E+00 -0.00000000000E+00 -0.16728986981E+04  0.16728986981E+04  0.00000000000E+00 0. -1.
         25    1    1    2    0    0 -0.91092749382E+02  0.20165304089E+02 -0.91997085405E+02  0.18108835468E+03  0.12500000000E+03 0.  0.
          2    1    1    2  501    0  0.21354490872E+01 -0.72734669948E+02  0.13503615214E+02  0.74008377763E+02  0.00000000000E+00 0. -1.
          1    1    1    2  502    0  0.88957300294E+02  0.52569365859E+02 -0.15043313184E+04  0.15078758752E+04  0.00000000000E+00 0. -1.
<mgrwt>
<rscale>  0 0.86157227E+02</rscale>
<asrwt>0</asrwt>
<pdfrwt beam="2">  1        2 0.25736902E+00 0.10201284E+03</pdfrwt>
<pdfrwt beam="1">  1        1 0.13857525E-01 0.72766011E+02</pdfrwt>
<totfact> 0.63705056E+02</totfact>
</mgrwt>
</event>
<event>
 5    1  0.8891499E-003  0.2048767E+03  0.7546771E-02  0.1321005E+00
          2   -1    0    0  502    0  0.00000000000E+00  0.00000000000E+00  0.48917432273E+02  0.48917432273E+02  0.00000000000E+00 0. -1.
          1   -1    0    0  501    0 -0.00000000000E+00 -0.00000000000E+00 -0.25846911703E+04  0.25846911703E+04  0.00000000000E+00 0. -1.
         25    1    1    2    0    0 -0.71101509357E+02 -0.18050592249E+03 -0.97935478568E+03  0.10061802070E+04  0.12500000000E+03 0.  0.
          2    1    1    2  501    0  0.24428165855E+02 -0.22994019038E+02 -0.12828614469E+04  0.12833000243E+04  0.00000000000E+00 0. -1.
          1    1    1    2  502    0  0.46673343502E+02  0.20349994153E+03 -0.27355750541E+03  0.34412837134E+03  0.00000000000E+00 0. -1.
<mgrwt>
<rscale>  0 0.82904643E+02</rscale>
<asrwt>0</asrwt>
<pdfrwt beam="1">  1        2 0.75257557E-02 0.20487673E+03</pdfrwt>
<pdfrwt beam="2">  1        1 0.39764496E+00 0.33547879E+02</pdfrwt>
<totfact> 0.23560669E+02</totfact>
</mgrwt>
</event>
<event>
 5    1  0.8891499E-003  0.1343401E+03  0.7546771E-02  0.1281208E+00
          1   -1    0    0  501    0 -0.00000000000E+00  0.00000000000E+00  0.81338510662E+02  0.81338510662E+02  0.00000000000E+00 0. -1.
          2   -1    0    0  502    0  0.00000000000E+00 -0.00000000000E+00 -0.99447232479E+03  0.99447232479E+03  0.00000000000E+00 0. -1.
         25    1    1    2    0    0 -0.94164367472E+02 -0.58287463641E+02 -0.39283924286E+03  0.42686300759E+03  0.12500000000E+03 0.  0.
          2    1    1    2  501    0  0.12912149535E+02 -0.72657207095E+02  0.28363157695E+02  0.79058598918E+02  0.00000000000E+00 0. -1.
          1    1    1    2  502    0  0.81252217937E+02  0.13094467074E+03 -0.54865772896E+03  0.56988922894E+03  0.00000000000E+00 0. -1.
<mgrwt>
<rscale>  0 0.99567625E+02</rscale>
<asrwt>0</asrwt>
<pdfrwt beam="2">  1        2 0.15299574E+00 0.13434012E+03</pdfrwt>
<pdfrwt beam="1">  1        1 0.12513617E-01 0.73795619E+02</pdfrwt>
<totfact> 0.16520209E+03</totfact>
</mgrwt>
</event>
<event>
 5    1  0.8891499E-003  0.6374102E+02  0.7546771E-02  0.1406730E+00
          1   -1    0    0  501    0 -0.00000000000E+00  0.00000000000E+00  0.46405073502E+03  0.46405073502E+03  0.00000000000E+00 0. -1.
          2   -1    0    0  502    0  0.00000000000E+00 -0.00000000000E+00 -0.10494296380E+04  0.10494296380E+04  0.00000000000E+00 0. -1.
         25    1    1    2    0    0 -0.86409727317E+01  0.12007817129E+02  0.32760515807E+03  0.35095440399E+03  0.12500000000E+03 0.  0.
          2    1    1    2  501    0 -0.52037164596E+02  0.80006371930E+01  0.11818391128E+03  0.12938049923E+03  0.00000000000E+00 0. -1.
          3    1    1    2  502    0  0.60678137328E+02 -0.20008454322E+02 -0.10311679723E+04  0.10331454698E+04  0.00000000000E+00 0. -1.
<mgrwt>
<rscale>  0 0.57929927E+02</rscale>
<asrwt>0</asrwt>
<pdfrwt beam="2">  1        2 0.16145071E+00 0.63741019E+02</pdfrwt>
<pdfrwt beam="1">  1        1 0.71392422E-01 0.52648615E+02</pdfrwt>
<totfact> 0.18678983E+02</totfact>
</mgrwt>
</event>
<event>
 5    1  0.8891499E-003  0.4566052E+02  0.7546771E-02  0.1502517E+00
          1   -1    0    0  502    0  0.00000000000E+00  0.00000000000E+00  0.25540305543E+04  0.25540305543E+04  0.00000000000E+00 0. -1.
         -1   -1    0    0    0  501 -0.00000000000E+00 -0.00000000000E+00 -0.48620035619E+01  0.48620035619E+01  0.00000000000E+00 0.  1.
         25    1    1    2    0    0 -0.94334662774E+01  0.19617431098E+02  0.17079239457E+04  0.17126304441E+04  0.12500000000E+03 0.  0.
          2    1    1    2  502    0 -0.34016018041E+02  0.13038136168E+02  0.27203052330E+03  0.27445890054E+03  0.00000000000E+00 0.  1.
         -2    1    1    2    0  501  0.43449484319E+02 -0.32655567266E+02  0.56921408171E+03  0.57180321316E+03  0.00000000000E+00 0. -1.
<mgrwt>
<rscale>  0 0.40784477E+02</rscale>
<asrwt>0</asrwt>
<pdfrwt beam="1">  1        1 0.39292671E+00 0.36429143E+02</pdfrwt>
<pdfrwt beam="2">  1       -1 0.74800259E-03 0.45660519E+02</pdfrwt>
<totfact> 0.42132620E+03</totfact>
</mgrwt>
</event>
<event>
 5    1  0.8891499E-003  0.6215978E+02  0.7546771E-02  0.1410777E+00
          2   -1    0    0  502    0  0.00000000000E+00  0.00000000000E+00  0.37853523718E+02  0.37853523718E+02  0.00000000000E+00 0. -1.
          1   -1    0    0  501    0 -0.00000000000E+00 -0.00000000000E+00 -0.93652059017E+03  0.93652059017E+03  0.00000000000E+00 0. -1.
         25    1    1    2    0    0 -0.15471213634E+01  0.15279324252E+02 -0.21499633242E+03  0.24916716133E+03  0.12500000000E+03 0.  0.
          2    1    1    2  501    0  0.25930143044E+02 -0.61555255493E+02 -0.66695924872E+03  0.67029550293E+03  0.00000000000E+00 0. -1.
          1    1    1    2  502    0 -0.24383021681E+02  0.46275931242E+02 -0.16711485320E+02  0.54911449627E+02  0.00000000000E+00 0. -1.
<mgrwt>
<rscale>  0 0.57020826E+02</rscale>
<asrwt>0</asrwt>
<pdfrwt beam="1">  1        2 0.58236200E-02 0.52306726E+02</pdfrwt>
<pdfrwt beam="2">  1        1 0.14408007E+00 0.62159780E+02</pdfrwt>
<totfact> 0.29686239E+03</totfact>
</mgrwt>
</event>
<event>
 5    1  0.8891499E-003  0.1666698E+03  0.7546771E-02  0.1233487E+00
          1   -1    0    0  501    0 -0.00000000000E+00  0.00000000000E+00  0.10233244049E+03  0.10233244049E+03  0.00000000000E+00 0. -1.
          2   -1    0    0  502    0  0.00000000000E+00 -0.00000000000E+00 -0.18536860028E+04  0.18536860028E+04  0.00000000000E+00 0. -1.
         25    1    1    2    0    0  0.14513403574E+03 -0.87802745566E+02 -0.79089849399E+03  0.81848557609E+03  0.12500000000E+03 0.  0.
          2    1    1    2  501    0 -0.74384795744E+02  0.15162404247E+03  0.34572291693E+01  0.16892276498E+03  0.00000000000E+00 0. -1.
          1    1    1    2  502    0 -0.70749239998E+02 -0.63821296907E+02 -0.96391229753E+03  0.96861010228E+03  0.00000000000E+00 0. -1.
<mgrwt>
<rscale>  0 0.12601820E+03</rscale>
<asrwt>0</asrwt>
<pdfrwt beam="2">  1        2 0.28518246E+00 0.95281755E+02</pdfrwt>
<pdfrwt beam="1">  1        1 0.15743453E-01 0.16666975E+03</pdfrwt>
<totfact> 0.45778199E+02</totfact>
</mgrwt>
</event>
<event>
 5    1  0.8891499E-003  0.2085761E+03  0.7546771E-02  0.1272065E+00
         -1   -1    0    0    0  501 -0.00000000000E+00  0.00000000000E+00  0.34313458712E+03  0.34313458712E+03  0.00000000000E+00 0.  1.
          1   -1    0    0  502    0  0.00000000000E+00 -0.00000000000E+00 -0.13529622578E+04  0.13529622578E+04  0.00000000000E+00 0. -1.
         25    1    1    2    0    0  0.20069886110E+03 -0.19434070013E+02 -0.47405475885E+03  0.53010435794E+03  0.12500000000E+03 0.  0.
          2    1    1    2  502    0 -0.36950344144E+01 -0.51743452744E+02 -0.81515621627E+03  0.81680517573E+03  0.00000000000E+00 0. -1.
         -2    1    1    2    0  501 -0.19700382668E+03  0.71177522757E+02  0.27938330449E+03  0.34918731120E+03  0.00000000000E+00 0.  1.
<mgrwt>
<rscale>  0 0.10401889E+03</rscale>
<asrwt>0</asrwt>
<pdfrwt beam="2">  1        1 0.20814804E+00 0.51875217E+02</pdfrwt>
<pdfrwt beam="1">  1       -1 0.52789936E-01 0.20857608E+03</pdfrwt>
<totfact> 0.39138939E+01</totfact>
</mgrwt>
</event>
<event>
 5    1  0.8891499E-003  0.7844711E+02  0.7546771E-02  0.1344818E+00
         -2   -1    0    0    0  501 -0.00000000000E+00  0.00000000000E+00  0.79232738532E+03  0.79232738532E+03  0.00000000000E+00 0.  1.
          2   -1    0    0  502    0  0.00000000000E+00 -0.00000000000E+00 -0.37584235836E+04  0.37584235836E+04  0.00000000000E+00 0. -1.
         25    1    1    2    0    0  0.13557459383E+01 -0.91364977299E+02 -0.30629556676E+03  0.34320747564E+03  0.12500000000E+03 0.  0.
          1    1    1    2  502    0  0.58486023889E+02  0.40469929929E+02 -0.34313089435E+04  0.34320459636E+04  0.00000000000E+00 0. -1.
         -1    1    1    2    0  501 -0.59841769827E+02  0.50895047370E+02  0.77150831194E+03  0.77549752976E+03  0.00000000000E+00 0.  1.
<mgrwt>
<rscale>  0 0.74695151E+02</rscale>
<asrwt>0</asrwt>
<pdfrwt beam="2">  1        2 0.57821902E+00 0.71122642E+02</pdfrwt>
<pdfrwt beam="1">  1       -2 0.12189652E+00 0.78447107E+02</pdfrwt>
<totfact> 0.49965256E-01</totfact>
</mgrwt>
</event>
<event>
 5    1  0.8891499E-003  0.6469725E+02  0.7546771E-02  0.1448981E+00
          2   -1    0    0  502    0  0.00000000000E+00  0.00000000000E+00  0.14629194875E+04  0.14629194875E+04  0.00000000000E+00 0. -1.
         -2   -1    0    0    0  501 -0.00000000000E+00 -0.00000000000E+00 -0.13274722605E+03  0.13274722605E+03  0.00000000000E+00 0.  1.
         25    1    1    2    0    0 -0.57350431600E+02 -0.72203255437E+02  0.32245491707E+03  0.35791696752E+03  0.12500000000E+03 0.  0.
          1    1    1    2  502    0  0.21900505238E+02  0.59625388108E+02  0.11187329049E+04  0.11205347525E+04  0.00000000000E+00 0. -1.
         -1    1    1    2    0  501  0.35449926363E+02  0.12577867328E+02 -0.11101556053E+03  0.11721499352E+03  0.00000000000E+00 0.  1.
<mgrwt>
<rscale>  0 0.49331505E+02</rscale>
<asrwt>0</asrwt>
<pdfrwt beam="1">  1        2 0.22506453E+00 0.64697255E+02</pdfrwt>
<pdfrwt beam="2">  1       -2 0.20422651E-01 0.37615157E+02</pdfrwt>
<totfact> 0.30206797E+02</totfact>
</mgrwt>
</event>
<event>
 5    1  0.8891499E-003  0.3966803E+02  0.7546771E-02  0.1596188E+00
         -2   -1    0    0    0  501 -0.00000000000E+00  0.00000000000E+00  0.18381476523E+03  0.18381476523E+03  0.00000000000E+00 0.  1.
          2   -1    0    0  502    0  0.00000000000E+00 -0.00000000000E+00 -0.17777520609E+03  0.17777520609E+03  0.00000000000E+00 0. -1.
         25    1    1    2    0    0 -0.15914789163E+02 -0.95999696513E+01  0.10520196852E+03  0.16443203493E+03  0.12500000000E+03 0.  0.
          1    1    1    2  502    0  0.26932061492E+02  0.29732796711E+02 -0.14254295785E+03  0.14808061983E+03  0.00000000000E+00 0. -1.
         -1    1    1    2    0  501 -0.11017272329E+02 -0.20132827059E+02  0.43380548469E+02  0.49077316557E+02  0.00000000000E+00 0.  1.
<mgrwt>
<rscale>  0 0.30172648E+02</rscale>
<asrwt>0</asrwt>
<pdfrwt beam="2">  1        2 0.27350032E-01 0.39668032E+02</pdfrwt>
<pdfrwt beam="1">  1       -2 0.28279195E-01 0.22950186E+02</pdfrwt>
<totfact> 0.19590102E+03</totfact>
</mgrwt>
</event>
<event>
 5    1  0.8891499E-003  0.1684323E+03  0.7546771E-02  0.1194804E+00
          1   -1    0    0  501    0 -0.00000000000E+00  0.00000000000E+00  0.27208375347E+03  0.27208375347E+03  0.00000000000E+00 0. -1.
          2   -1    0    0  502    0  0.00000000000E+00 -0.00000000000E+00 -0.13143875017E+04  0.13143875017E+04  0.00000000000E+00 0. -1.
         25    1    1    2    0    0  0.60515393800E+02 -0.29266649776E+03 -0.15112829953E+03  0.35746406074E+03  0.12500000000E+03 0.  0.
          2    1    1    2  501    0 -0.52126388846E+02  0.13219618698E+03  0.13160398854E+03  0.19368170297E+03  0.00000000000E+00 0. -1.
          1    1    1    2  502    0 -0.83890049531E+01  0.16047031078E+03 -0.10227794373E+04  0.10353254915E+04  0.00000000000E+00 0. -1.
<mgrwt>
<rscale>  0 0.15470804E+03</rscale>
<asrwt>0</asrwt>
<pdfrwt beam="2">  1        2 0.20221347E+00 0.16843231E+03</pdfrwt>
<pdfrwt beam="1">  1        1 0.41859038E-01 0.14210205E+03</pdfrwt>
<totfact> 0.24094578E+02</totfact>
</mgrwt>
</event>
<event>
 5    1  0.8891499E-003  0.1041259E+03  0.7546771E-02  0.1338021E+00
          1   -1    0    0  501    0 -0.00000000000E+00  0.00000000000E+00  0.25708988143E+03  0.25708988143E+03  0.00000000000E+00 0. -1.
          2   -1    0    0  502    0  0.00000000000E+00 -0.00000000000E+00 -0.33503524810E+03  0.33503524810E+03  0.00000000000E+00 0. -1.
         25    1    1    2    0    0 -0.72236456846E+01  0.10993800548E+03 -0.11015721637E+02  0.16698770083E+03  0.12500000000E+03 0.  0.
          2    1    1    2  501    0  0.54530933060E+02 -0.15982833820E+02  0.16281985364E+03  0.17245108981E+03  0.00000000000E+00 0. -1.
          1    1    1    2  502    0 -0.47307287375E+02 -0.93955171663E+02 -0.22974949867E+03  0.25268633889E+03  0.00000000000E+00 0. -1.
<mgrwt>
<rscale>  0 0.76921711E+02</rscale>
<asrwt>0</asrwt>
<pdfrwt beam="2">  1        2 0.51543884E-01 0.10412593E+03</pdfrwt>
<pdfrwt beam="1">  1        1 0.39552290E-01 0.56824939E+02</pdfrwt>
<totfact> 0.13881313E+03</totfact>
</mgrwt>
</event>
<event>
 5    1  0.8891499E-003  0.7564232E+02  0.7546771E-02  0.1471514E+00
          2   -1    0    0  502    0  0.00000000000E+00  0.00000000000E+00  0.14228119390E+04  0.14228119390E+04  0.00000000000E+00 0. -1.
          1   -1    0    0  501    0 -0.00000000000E+00 -0.00000000000E+00 -0.42088101633E+02  0.42088101633E+02  0.00000000000E+00 0. -1.
         25    1    1    2    0    0  0.19942843481E+02  0.72192189321E+02  0.97773772741E+02  0.17548259128E+03  0.12500000000E+03 0.  0.
          2    1    1    2  501    0 -0.23753779634E+02  0.13488290421E+02  0.11018491589E+03  0.11352044624E+03  0.00000000000E+00 0. -1.
          1    1    1    2  502    0  0.38109361536E+01 -0.85680479743E+02  0.11727651488E+04  0.11758970031E+04  0.00000000000E+00 0. -1.
<mgrwt>
<rscale>  0 0.45456160E+02</rscale>
<asrwt>0</asrwt>
<pdfrwt beam="1">  1        2 0.21889411E+00 0.27316223E+02</pdfrwt>
<pdfrwt beam="2">  1        1 0.64750937E-02 0.75642320E+02</pdfrwt>
<totfact> 0.25765865E+03</totfact>
</mgrwt>
</event>
<event>
 5    1  0.8891499E-003  0.4699616E+02  0.7546771E-02  0.1471568E+00
          2   -1    0    0  502    0  0.00000000000E+00  0.00000000000E+00  0.11919801267E+03  0.11919801267E+03  0.00000000000E+00 0. -1.
         -2   -1    0    0    0  501 -0.00000000000E+00 -0.00000000000E+00 -0.11056682846E+03  0.11056682846E+03  0.00000000000E+00 0.  1.
         25    1    1    2    0    0  0.29682752908E+02  0.47746668819E+00 -0.29024965936E+01  0.12850960385E+03  0.12500000000E+03 0.  0.
          1    1    1    2  502    0 -0.26190374162E+02  0.46388753464E+02  0.10205896466E+02  0.54240321435E+02  0.00000000000E+00 0. -1.
         -1    1    1    2    0  501 -0.34923787465E+01 -0.46866220152E+02  0.13277843336E+01  0.47014915845E+02  0.00000000000E+00 0.  1.
<mgrwt>
<rscale>  0 0.45447436E+02</rscale>
<asrwt>0</asrwt>
<pdfrwt beam="1">  1        2 0.18338156E-01 0.43949747E+02</pdfrwt>
<pdfrwt beam="2">  1       -2 0.17010281E-01 0.46996163E+02</pdfrwt>
<totfact> 0.72742653E+03</totfact>
</mgrwt>
</event>
<event>
 5    1  0.8891499E-003  0.4670112E+02  0.7546771E-02  0.1565442E+00
         -1   -1    0    0    0  501 -0.00000000000E+00  0.00000000000E+00  0.42197188618E+03  0.42197188618E+03  0.00000000000E+00 0.  1.
          1   -1    0    0  502    0  0.00000000000E+00 -0.00000000000E+00 -0.16744981764E+03  0.16744981764E+03  0.00000000000E+00 0. -1.
         25    1    1    2    0    0 -0.11382134082E+01 -0.44891743565E+02  0.11228324125E+03  0.17392265648E+03  0.12500000000E+03 0.  0.
          2    1    1    2  502    0  0.23337549996E+02  0.32654420769E+01 -0.13359635242E+03  0.13565872523E+03  0.00000000000E+00 0. -1.
         -2    1    1    2    0  501 -0.22199336587E+02  0.41626301488E+02  0.27583517971E+03  0.27984032212E+03  0.00000000000E+00 0.  1.
<mgrwt>
<rscale>  0 0.33173892E+02</rscale>
<asrwt>0</asrwt>
<pdfrwt beam="2">  1        1 0.25761511E-01 0.23564897E+02</pdfrwt>
<pdfrwt beam="1">  1       -1 0.64918751E-01 0.46701122E+02</pdfrwt>
<totfact> 0.44524848E+02</totfact>
</mgrwt>
</event>
<event>
 5    1  0.8891499E-003  0.3059295E+03  0.7546771E-02  0.1179514E+00
          2   -1    0    0  502    0  0.00000000000E+00  0.00000000000E+00  0.22010623033E+04  0.22010623033E+04  0.00000000000E+00 0. -1.
          1   -1    0    0  501    0 -0.00000000000E+00 -0.00000000000E+00 -0.20308638575E+03  0.20308638575E+03  0.00000000000E+00 0. -1.
         25    1    1    2    0    0  0.79989320034E+02  0.27100992456E+03  0.44276264096E+03  0.53991520331E+03  0.12500000000E+03 0.  0.
          2    1    1    2  501    0  0.92487355474E+02 -0.64172925250E+01 -0.12441965942E+03  0.15516231571E+03  0.00000000000E+00 0. -1.
          3    1    1    2  502    0 -0.17247667551E+03 -0.26459263204E+03  0.16796329360E+04  0.17090711701E+04  0.00000000000E+00 0. -1.
<mgrwt>
<rscale>  0 0.16841211E+03</rscale>
<asrwt>0</asrwt>
<pdfrwt beam="1">  1        2 0.33862495E+00 0.30592951E+03</pdfrwt>
<pdfrwt beam="2">  1        1 0.31244061E-01 0.92709722E+02</pdfrwt>
<totfact> 0.11119688E+02</totfact>
</mgrwt>
</event>
<event>
 5    1  0.8891499E-003  0.8243959E+02  0.7546771E-02  0.1439870E+00
         -2   -1    0    0    0  501  0.00000000000E+00  0.00000000000E+00  0.76052245126E+02  0.76052245126E+02  0.00000000000E+00 0.  1.
         -1   -1    0    0    0  502 -0.00000000000E+00 -0.00000000000E+00 -0.11188128292E+04  0.11188128292E+04  0.00000000000E+00 0.  1.
         25    1    1    2    0    0 -0.27052214391E+02 -0.61353947585E+02 -0.81716820807E+02  0.16370329255E+03  0.12500000000E+03 0.  0.
         -2    1    1    2    0  502  0.58565382319E+02  0.59209175148E+02 -0.98685996042E+03  0.99036771550E+03  0.00000000000E+00 0.  1.
         -1    1    1    2    0  501 -0.31513167928E+02  0.21447724365E+01  0.25816197201E+02  0.40794066230E+02  0.00000000000E+00 0.  1.
<mgrwt>
<rscale>  0 0.51028840E+02</rscale>
<asrwt>0</asrwt>
<pdfrwt beam="1">  1       -2 0.11700347E-01 0.31586070E+02</pdfrwt>
<pdfrwt beam="2">  1       -1 0.17212503E+00 0.82439586E+02</pdfrwt>
<totfact> 0.94599368E+01</totfact>
</mgrwt>
</event>
<event>
 5    1  0.8891499E-003  0.4751027E+02  0.7546771E-02  0.1468566E+00
         -1   -1    0    0    0  501 -0.00000000000E+00  0.00000000000E+00  0.17753215850E+02  0.17753215850E+02  0.00000000000E+00 0.  1.
          1   -1    0    0  502    0  0.00000000000E+00 -0.00000000000E+00 -0.23928379732E+04  0.23928379732E+04  0.00000000000E+00 0. -1.
         25    1    1    2    0    0  0.34258350103E+02  0.74729970273E+02 -0.12797015875E+04  0.12884173842E+04  0.12500000000E+03 0.  0.
          2    1    1    2  502    0 -0.34384754956E+02 -0.28120002852E+02 -0.10663205139E+04  0.10672452784E+04  0.00000000000E+00 0. -1.
         -2    1    1    2    0  501  0.12640485330E+00 -0.46609967421E+02 -0.29062655990E+02  0.54928526417E+02  0.00000000000E+00 0.  1.
<mgrwt>
<rscale>  0 0.45938630E+02</rscale>
<asrwt>0</asrwt>
<pdfrwt beam="2">  1        1 0.36812895E+00 0.44418982E+02</pdfrwt>
<pdfrwt beam="1">  1       -1 0.27312637E-02 0.47510267E+02</pdfrwt>
<totfact> 0.85462655E+02</totfact>
</mgrwt>
</event>
<event>
 5    1  0.8891499E-003  0.1270962E+03  0.7546771E-02  0.1327254E+00
          1   -1    0    0  501    0 -0.00000000000E+00  0.00000000000E+00  0.22330909578E+04  0.22330909578E+04  0.00000000000E+00 0. -1.
          2   -1    0    0  502    0  0.00000000000E+00 -0.00000000000E+00 -0.20305153204E+02  0.20305153204E+02  0.00000000000E+00 0. -1.
         25    1    1    2    0    0 -0.11342660183E+03  0.10136507340E+03  0.93480288457E+03  0.95531246464E+03  0.12500000000E+03 0.  0.
          2    1    1    2  501    0  0.11015357065E+03 -0.50309653167E+02  0.11912261367E+04  0.11973656831E+04  0.00000000000E+00 0. -1.
          1    1    1    2  502    0  0.32730311757E+01 -0.51055420234E+02  0.86756783334E+02  0.10071796326E+03  0.00000000000E+00 0. -1.
<mgrwt>
<rscale>  0 0.80636649E+02</rscale>
<asrwt>0</asrwt>
<pdfrwt beam="2">  1        2 0.31238715E-02 0.51160225E+02</pdfrwt>
<pdfrwt beam="1">  1        1 0.34355226E+00 0.12709618E+03</pdfrwt>
<totfact> 0.88137873E+02</totfact>
</mgrwt>
</event>
<event>
 5    1  0.8891499E-003  0.1252934E+03  0.7546771E-02  0.1315817E+00
         -1   -1    0    0    0  501 -0.00000000000E+00  0.00000000000E+00  0.48741825753E+03  0.48741825753E+03  0.00000000000E+00 0.  1.
          1   -1    0    0  502    0  0.00000000000E+00 -0.00000000000E+00 -0.33437554440E+03  0.33437554440E+03  0.00000000000E+00 0. -1.
         25    1    1    2    0    0 -0.46878077530E+02  0.13027358342E+03  0.20830848940E+02  0.18769039655E+03  0.12500000000E+03 0.  0.
          2    1    1    2  502    0 -0.40462443053E+02 -0.40805152481E+02 -0.23722301013E+03  0.24408405581E+03  0.00000000000E+00 0. -1.
         -2    1    1    2    0  501  0.87340520582E+02 -0.89468430939E+02  0.36943487432E+03  0.39001934956E+03  0.00000000000E+00 0.  1.
<mgrwt>
<rscale>  0 0.84853006E+02</rscale>
<asrwt>0</asrwt>
<pdfrwt beam="2">  1        1 0.51442391E-01 0.57465379E+02</pdfrwt>
<pdfrwt beam="1">  1       -1 0.74987424E-01 0.12529340E+03</pdfrwt>
<totfact> 0.14798942E+02</totfact>
</mgrwt>
</event>
<event>
 5    1  0.8891499E-003  0.6893909E+02  0.7546771E-02  0.1520043E+00
         -1   -1    0    0    0  501 -0.00000000000E+00  0.00000000000E+00  0.62257956149E+02  0.62257956149E+02  0.00000000000E+00 0.  1.
          1   -1    0    0  502    0  0.00000000000E+00 -0.00000000000E+00 -0.21381789498E+04  0.21381789498E+04  0.00000000000E+00 0. -1.
         25    1    1    2    0    0  0.49530833439E+02 -0.33687414257E+02 -0.12476464044E+04  0.12553225465E+04  0.12500000000E+03 0.  0.
          2    1    1    2  502    0 -0.65019422323E+01 -0.20419759637E+02 -0.86606403091E+03  0.86632912191E+03  0.00000000000E+00 0. -1.
         -2    1    1    2    0  501 -0.43028891207E+02  0.54107173894E+02  0.37789441691E+02  0.78785237504E+02  0.00000000000E+00 0.  1.
<mgrwt>
<rscale>  0 0.38436439E+02</rscale>
<asrwt>0</asrwt>
<pdfrwt beam="2">  1        1 0.32895056E+00 0.21429929E+02</pdfrwt>
<pdfrwt beam="1">  1       -1 0.95781484E-02 0.68939094E+02</pdfrwt>
<totfact> 0.23265284E+02</totfact>
</mgrwt>
</event>
<event>
 5    1  0.8891499E-003  0.5112780E+02  0.7546771E-02  0.1477150E+00
          2   -1    0    0  502    0  0.00000000000E+00  0.00000000000E+00  0.11542809994E+04  0.11542809994E+04  0.00000000000E+00 0. -1.
          1   -1    0    0  501    0 -0.00000000000E+00 -0.00000000000E+00 -0.31048061977E+03  0.31048061977E+03  0.00000000000E+00 0. -1.
         25    1    1    2    0    0 -0.16010020615E+02 -0.57757632782E+01  0.14156437622E+03  0.18961844007E+03  0.12500000000E+03 0.  0.
          2    1    1    2  501    0 -0.16181215714E+02 -0.35291402912E+02 -0.28444551415E+03  0.28708285456E+03  0.00000000000E+00 0. -1.
          1    1    1    2  502    0  0.32191236329E+02  0.41067166190E+02  0.98668151754E+03  0.98806032452E+03  0.00000000000E+00 0. -1.
<mgrwt>
<rscale>  0 0.44553268E+02</rscale>
<asrwt>0</asrwt>
<pdfrwt beam="1">  1        2 0.17758169E+00 0.51127803E+02</pdfrwt>
<pdfrwt beam="2">  1        1 0.47766250E-01 0.38824153E+02</pdfrwt>
<totfact> 0.26967874E+02</totfact>
</mgrwt>
</event>
<event>
 5    1  0.8891499E-003  0.1076809E+03  0.7546771E-02  0.1303362E+00
          1   -1    0    0  501    0 -0.00000000000E+00  0.00000000000E+00  0.78850868039E+03  0.78850868039E+03  0.00000000000E+00 0. -1.
          2   -1    0    0  502    0  0.00000000000E+00 -0.00000000000E+00 -0.50950823880E+03  0.50950823880E+03  0.00000000000E+00 0. -1.
         25    1    1    2    0    0  0.11541939039E+03 -0.23085472552E+02 -0.15385534072E+03  0.23054509448E+03  0.12500000000E+03 0.  0.
          2    1    1    2  501    0 -0.96101047428E+02 -0.49249963240E+02  0.74178272549E+03  0.74960161555E+03  0.00000000000E+00 0. -1.
          1    1    1    2  502    0 -0.19318342964E+02  0.72335435792E+02 -0.30892694318E+03  0.31787020915E+03  0.00000000000E+00 0. -1.
<mgrwt>
<rscale>  0 0.89789419E+02</rscale>
<asrwt>0</asrwt>
<pdfrwt beam="2">  1        2 0.78385882E-01 0.74870646E+02</pdfrwt>
<pdfrwt beam="1">  1        1 0.12130903E+00 0.10768092E+03</pdfrwt>
<totfact> 0.20955804E+02</totfact>
</mgrwt>
</event>
<event>
 5    1  0.8891499E-003  0.1999960E+03  0.7546771E-02  0.1280898E+00
          2   -1    0    0  502    0  0.00000000000E+00  0.00000000000E+00  0.14790931790E+03  0.14790931790E+03  0.00000000000E+00 0. -1.
          1   -1    0    0  501    0 -0.00000000000E+00 -0.00000000000E+00 -0.17644713580E+04  0.17644713580E+04  0.00000000000E+00 0. -1.
         25    1    1    2    0    0  0.16069238959E+03  0.17575953916E+03 -0.59517949982E+03  0.65312869840E+03  0.12500000000E+03 0.  0.
          2    1    1    2  501    0 -0.13066025562E+02 -0.47968098257E+02 -0.10592026006E+04  0.10603687135E+04  0.00000000000E+00 0. -1.
          3    1    1    2  502    0 -0.14762636403E+03 -0.12779144090E+03  0.37820060331E+02  0.19888326397E+03  0.00000000000E+00 0. -1.
<mgrwt>
<rscale>  0 0.99714384E+02</rscale>
<asrwt>0</asrwt>
<pdfrwt beam="1">  1        2 0.22755278E-01 0.19999600E+03</pdfrwt>
<pdfrwt beam="2">  1        1 0.27145715E+00 0.49715787E+02</pdfrwt>
<totfact> 0.18685850E+02</totfact>
</mgrwt>
</event>
<event>
 5    1  0.8891499E-003  0.9347768E+02  0.7546771E-02  0.1459042E+00
          1   -1    0    0  501    0 -0.00000000000E+00  0.00000000000E+00  0.35811162755E+03  0.35811162755E+03  0.00000000000E+00 0. -1.
          2   -1    0    0  502    0  0.00000000000E+00 -0.00000000000E+00 -0.18586317398E+04  0.18586317398E+04  0.00000000000E+00 0. -1.
         25    1    1    2    0    0 -0.44325843558E+02 -0.86508677035E+02 -0.11769779034E+02  0.15878305737E+03  0.12500000000E+03 0.  0.
          2    1    1    2  501    0 -0.17643717823E+02  0.16540221768E+02  0.28285709494E+03  0.28388909079E+03  0.00000000000E+00 0. -1.
          1    1    1    2  502    0  0.61969561381E+02  0.69968455267E+02 -0.17716074281E+04  0.17740712192E+04  0.00000000000E+00 0. -1.
<mgrwt>
<rscale>  0 0.47546725E+02</rscale>
<asrwt>0</asrwt>
<pdfrwt beam="2">  1        2 0.28594334E+00 0.93477684E+02</pdfrwt>
<pdfrwt beam="1">  1        1 0.55094097E-01 0.24184287E+02</pdfrwt>
<totfact> 0.94943264E+01</totfact>
</mgrwt>
</event>
<event>
 5    1  0.8891499E-003  0.6272077E+02  0.7546771E-02  0.1479403E+00
         -2   -1    0    0    0  501 -0.00000000000E+00  0.00000000000E+00  0.59425736716E+02  0.59425736716E+02  0.00000000000E+00 0.  1.
          2   -1    0    0  502    0  0.00000000000E+00 -0.00000000000E+00 -0.46845841727E+03  0.46845841727E+03  0.00000000000E+00 0. -1.
         25    1    1    2    0    0 -0.42581173993E+01  0.51078755584E+02 -0.10338236795E+03  0.17011785573E+03  0.12500000000E+03 0.  0.
          1    1    1    2  502    0  0.28598378199E+02  0.12340080322E+02 -0.28510019074E+03  0.28679655434E+03  0.00000000000E+00 0. -1.
         -1    1    1    2    0  501 -0.24340260800E+02 -0.63418835906E+02 -0.20550121863E+02  0.70969743920E+02  0.00000000000E+00 0.  1.
<mgrwt>
<rscale>  0 0.44199243E+02</rscale>
<asrwt>0</asrwt>
<pdfrwt beam="2">  1        2 0.72070523E-01 0.31147148E+02</pdfrwt>
<pdfrwt beam="1">  1       -2 0.91424214E-02 0.62720770E+02</pdfrwt>
<totfact> 0.47414805E+03</totfact>
</mgrwt>
</event>
<event>
 5    1  0.8891499E-003  0.9795480E+02  0.7546771E-02  0.1454362E+00
         -2   -1    0    0    0  501 -0.00000000000E+00  0.00000000000E+00  0.21630008874E+03  0.21630008874E+03  0.00000000000E+00 0.  1.
          2   -1    0    0  502    0  0.00000000000E+00 -0.00000000000E+00 -0.15272866530E+04  0.15272866530E+04  0.00000000000E+00 0. -1.
         25    1    1    2    0    0 -0.10840229058E+03 -0.36836612280E+02  0.61675366510E+02  0.18037972015E+03  0.12500000000E+03 0.  0.
          1    1    1    2  502    0  0.19470488138E+02  0.13826944407E+02 -0.14456703659E+04  0.14458675912E+04  0.00000000000E+00 0. -1.
         -1    1    1    2    0  501  0.88931802443E+02  0.23009667873E+02  0.73008435220E+02  0.11733943035E+03  0.00000000000E+00 0.  1.
<mgrwt>
<rscale>  0 0.48365504E+02</rscale>
<asrwt>0</asrwt>
<pdfrwt beam="2">  1        2 0.23496718E+00 0.23880626E+02</pdfrwt>
<pdfrwt beam="1">  1       -2 0.33276936E-01 0.97954801E+02</pdfrwt>
<totfact> 0.13671703E+02</totfact>
</mgrwt>
</event>
<event>
 5    1  0.8891499E-003  0.1123864E+03  0.7546771E-02  0.1443128E+00
          2   -1    0    0  502    0  0.00000000000E+00  0.00000000000E+00  0.32275340321E+02  0.32275340321E+02  0.00000000000E+00 0. -1.
          1   -1    0    0  501    0 -0.00000000000E+00 -0.00000000000E+00 -0.82723360612E+03  0.82723360612E+03  0.00000000000E+00 0. -1.
         25    1    1    2    0    0 -0.55279431391E+02 -0.10579193636E+03 -0.35486461817E+03  0.39471717287E+03  0.12500000000E+03 0.  0.
          2    1    1    2  501    0  0.22479324675E+02  0.24590757035E+01 -0.20098627578E+03  0.20225441934E+03  0.00000000000E+00 0. -1.
          3    1    1    2  502    0  0.32800106716E+02  0.10333286065E+03 -0.23910737185E+03  0.26253735423E+03  0.00000000000E+00 0. -1.
<mgrwt>
<rscale>  0 0.50412705E+02</rscale>
<asrwt>0</asrwt>
<pdfrwt beam="1">  1        2 0.49654367E-02 0.11238636E+03</pdfrwt>
<pdfrwt beam="2">  1        1 0.12726672E+00 0.22613427E+02</pdfrwt>
<totfact> 0.49852833E+03</totfact>
</mgrwt>
</event>
<event>
 5    1  0.8891499E-003  0.1248136E+03  0.7546771E-02  0.1329883E+00
          1   -1    0    0  501    0 -0.00000000000E+00  0.00000000000E+00  0.19216790726E+04  0.19216790726E+04  0.00000000000E+00 0. -1.
          2   -1    0    0  502    0  0.00000000000E+00 -0.00000000000E+00 -0.21731350708E+04  0.21731350708E+04  0.00000000000E+00 0. -1.
         25    1    1    2    0    0  0.76487206051E+02  0.69046941816E+02 -0.54616368586E+03  0.56968196795E+03  0.12500000000E+03 0.  0.
          2    1    1    2  501    0  0.45869798770E+02 -0.22068440493E+02  0.19069209248E+04  0.19076001855E+04  0.00000000000E+00 0. -1.
          1    1    1    2  502    0 -0.12235700482E+03 -0.46978501323E+02 -0.16122132372E+04  0.16175319899E+04  0.00000000000E+00 0. -1.
<mgrwt>
<rscale>  0 0.79707676E+02</rscale>
<asrwt>0</asrwt>
<pdfrwt beam="2">  1        2 0.33432847E+00 0.12481363E+03</pdfrwt>
<pdfrwt beam="1">  1        1 0.29564293E+00 0.50902402E+02</pdfrwt>
<totfact> 0.41772009E+00</totfact>
</mgrwt>
</event>
<event>
 5    1  0.8891499E-003  0.5702873E+02  0.7546771E-02  0.1429585E+00
          1   -1    0    0  502    0  0.00000000000E+00  0.00000000000E+00  0.11017548303E+04  0.11017548303E+04  0.00000000000E+00 0. -1.
         -1   -1    0    0    0  501 -0.00000000000E+00 -0.00000000000E+00 -0.35809764620E+03  0.35809764620E+03  0.00000000000E+00 0.  1.
         25    1    1    2    0    0 -0.13224045251E+02  0.91444988905E+01  0.71438817081E+02  0.14486891253E+03  0.12500000000E+03 0.  0.
          2    1    1    2  502    0 -0.42927122244E+02 -0.24318244056E+02  0.99035009870E+03  0.99157825350E+03  0.00000000000E+00 0. -1.
         -2    1    1    2    0  501  0.56151167496E+02  0.15173745166E+02 -0.31813173167E+03  0.32340531048E+03  0.00000000000E+00 0.  1.
<mgrwt>
<rscale>  0 0.53043495E+02</rscale>
<asrwt>0</asrwt>
<pdfrwt beam="1">  1        1 0.16950074E+00 0.49336749E+02</pdfrwt>
<pdfrwt beam="2">  1       -1 0.55091946E-01 0.57028734E+02</pdfrwt>
<totfact> 0.53680596E+01</totfact>
</mgrwt>
</event>
<event>
 5    1  0.8891499E-003  0.6822009E+02  0.7546771E-02  0.1513308E+00
          1   -1    0    0  501    0 -0.00000000000E+00  0.00000000000E+00  0.12980529093E+04  0.12980529093E+04  0.00000000000E+00 0. -1.
          2   -1    0    0  502    0  0.00000000000E+00 -0.00000000000E+00 -0.26298247152E+04  0.26298247152E+04  0.00000000000E+00 0. -1.
         25    1    1    2    0    0 -0.40512742675E+02 -0.80875982814E+02 -0.14741824668E+03  0.21339949946E+03  0.12500000000E+03 0.  0.
          2    1    1    2  501    0  0.11805887890E+02  0.19339120084E+02  0.12644901630E+04  0.12646931458E+04  0.00000000000E+00 0. -1.
          1    1    1    2  502    0  0.28706854785E+02  0.61536862730E+02 -0.24488437223E+04  0.24497849793E+04  0.00000000000E+00 0. -1.
<mgrwt>
<rscale>  0 0.39315698E+02</rscale>
<asrwt>0</asrwt>
<pdfrwt beam="2">  1        2 0.40458842E+00 0.68220088E+02</pdfrwt>
<pdfrwt beam="1">  1        1 0.19970045E+00 0.22657903E+02</pdfrwt>
<totfact> 0.68836560E+00</totfact>
</mgrwt>
</event>
<event>
 5    1  0.8891499E-003  0.5242276E+03  0.7546771E-02  0.1150433E+00
          1   -1    0    0  501    0 -0.00000000000E+00  0.00000000000E+00  0.18503124566E+04  0.18503124566E+04  0.00000000000E+00 0. -1.
          2   -1    0    0  502    0  0.00000000000E+00 -0.00000000000E+00 -0.96638377577E+03  0.96638377577E+03  0.00000000000E+00 0. -1.
         25    1    1    2    0    0  0.54086440263E+03  0.22990707651E+03  0.24482253961E+03  0.64881017391E+03  0.12500000000E+03 0.  0.
          2    1    1    2  501    0 -0.69253841013E+02 -0.30513252988E+02  0.13165410981E+04  0.13187143800E+04  0.00000000000E+00 0. -1.
          1    1    1    2  502    0 -0.47161056162E+03 -0.19939382352E+03 -0.67743495686E+03  0.84917167845E+03  0.00000000000E+00 0. -1.
<mgrwt>
<rscale>  0 0.19917950E+03</rscale>
<asrwt>0</asrwt>
<pdfrwt beam="2">  1        2 0.14867443E+00 0.52422759E+03</pdfrwt>
<pdfrwt beam="1">  1        1 0.28466345E+00 0.75677957E+02</pdfrwt>
<totfact> 0.17910695E+01</totfact>
</mgrwt>
</event>
<event>
 5    1  0.8891499E-003  0.1020034E+03  0.7546771E-02  0.1380632E+00
          1   -1    0    0  502    0  0.00000000000E+00  0.00000000000E+00  0.93583339427E+03  0.93583339427E+03  0.00000000000E+00 0. -1.
         -1   -1    0    0    0  501 -0.00000000000E+00 -0.00000000000E+00 -0.61053462411E+03  0.61053462411E+03  0.00000000000E+00 0.  1.
         25    1    1    2    0    0  0.10369007981E+03 -0.17444466107E+02 -0.10064477228E+03  0.19186013717E+03  0.12500000000E+03 0.  0.
          2    1    1    2  502    0 -0.99503331239E+02 -0.22868963387E+02  0.88640530532E+03  0.89226580552E+03  0.00000000000E+00 0. -1.
         -2    1    1    2    0  501 -0.41867485717E+01  0.40313429494E+02 -0.46046176288E+03  0.46224207569E+03  0.00000000000E+00 0.  1.
<mgrwt>
<rscale>  0 0.64297915E+02</rscale>
<asrwt>0</asrwt>
<pdfrwt beam="1">  1        1 0.14397437E+00 0.10200336E+03</pdfrwt>
<pdfrwt beam="2">  1       -1 0.93928404E-01 0.40530254E+02</pdfrwt>
<totfact> 0.23997325E+01</totfact>
</mgrwt>
</event>
<event>
 5    1  0.8891499E-003  0.1634783E+03  0.7546771E-02  0.1235821E+00
          3   -1    0    0  501    0 -0.00000000000E+00  0.00000000000E+00  0.67925323442E+02  0.67925323442E+02  0.00000000000E+00 0. -1.
          2   -1    0    0  502    0  0.00000000000E+00 -0.00000000000E+00 -0.31833203220E+04  0.31833203220E+04  0.00000000000E+00 0. -1.
         25    1    1    2    0    0  0.18907594859E+03 -0.14525458349E+03 -0.54259518273E+03  0.60570879198E+03  0.12500000000E+03 0.  0.
          2    1    1    2  501    0 -0.10842033620E+03  0.95350334576E+02 -0.11153813111E+03  0.18244837708E+03  0.00000000000E+00 0. -1.
          1    1    1    2  502    0 -0.80655612389E+02  0.49904248909E+02 -0.24612616847E+04  0.24630884764E+04  0.00000000000E+00 0. -1.
<mgrwt>
<rscale>  0 0.12452014E+03</rscale>
<asrwt>0</asrwt>
<pdfrwt beam="2">  1        2 0.48974166E+00 0.94845990E+02</pdfrwt>
<pdfrwt beam="1">  1        3 0.10450048E-01 0.16347833E+03</pdfrwt>
<totfact> 0.79704905E+01</totfact>
</mgrwt>
</event>
<event>
 5    1  0.1216728E-002  0.5634687E+02  0.7546771E-02  0.1424271E+00
          2   -1    0    0  502    0  0.00000000000E+00  0.00000000000E+00  0.11727448442E+04  0.11727448442E+04  0.00000000000E+00 0. -1.
          1   -1    0    0  501    0 -0.00000000000E+00 -0.00000000000E+00 -0.10809044283E+04  0.10809044283E+04  0.00000000000E+00 0. -1.
         25    1    1    2    0    0  0.29562600282E+02 -0.80405915370E+00 -0.40674363543E+03  0.42654422844E+03  0.12500000000E+03 0.  0.
          2    1    1    2  501    0 -0.15148526996E+02  0.55276111725E+02 -0.66233959951E+03  0.66481476478E+03  0.00000000000E+00 0. -1.
          1    1    1    2  502    0 -0.14414073285E+02 -0.54472052571E+02  0.11609236509E+04  0.11622902793E+04  0.00000000000E+00 0. -1.
<mgrwt>
<rscale>  0 0.54127400E+02</rscale>
<asrwt>0</asrwt>
<pdfrwt beam="1">  1        2 0.18042228E+00 0.56346872E+02</pdfrwt>
<pdfrwt beam="2">  1        1 0.16629299E+00 0.51995352E+02</pdfrwt>
<totfact> 0.49032608E+01</totfact>
</mgrwt>
</event>
<event>
 5    1  0.8891499E-003  0.1682471E+03  0.7546771E-02  0.1265914E+00
          2   -1    0    0  502    0  0.00000000000E+00  0.00000000000E+00  0.28828743371E+03  0.28828743371E+03  0.00000000000E+00 0. -1.
          1   -1    0    0  501    0 -0.00000000000E+00 -0.00000000000E+00 -0.19294963860E+04  0.19294963860E+04  0.00000000000E+00 0. -1.
         25    1    1    2    0    0 -0.13807436626E+03 -0.15639998604E+03  0.38841428477E+02  0.24629076884E+03  0.12500000000E+03 0.  0.
          2    1    1    2  501    0  0.14222131396E+03  0.88269145402E+02 -0.18137077379E+04  0.18214154119E+04  0.00000000000E+00 0. -1.
          1    1    1    2  502    0 -0.41469477033E+01  0.68130840637E+02  0.13365735710E+03  0.15007763900E+03  0.00000000000E+00 0. -1.
<mgrwt>
<rscale>  0 0.10716358E+03</rscale>
<asrwt>0</asrwt>
<pdfrwt beam="1">  1        2 0.44351913E-01 0.68256931E+02</pdfrwt>
<pdfrwt beam="2">  1        1 0.29684560E+00 0.16824714E+03</pdfrwt>
<totfact> 0.61138486E+01</totfact>
</mgrwt>
</event>
<event>
 5    1  0.8891499E-003  0.1338518E+03  0.7546771E-02  0.1325102E+00
          1   -1    0    0  501    0 -0.00000000000E+00  0.00000000000E+00  0.12045912970E+04  0.12045912970E+04  0.00000000000E+00 0. -1.
          2   -1    0    0  502    0  0.00000000000E+00 -0.00000000000E+00 -0.50221544486E+03  0.50221544486E+03  0.00000000000E+00 0. -1.
         25    1    1    2    0    0  0.72069020060E+02 -0.11784367992E+03  0.47558292104E+02  0.19227029853E+03  0.12500000000E+03 0.  0.
          2    1    1    2  501    0 -0.10615678756E+03  0.81934252603E+02  0.10790871954E+04  0.10873875392E+04  0.00000000000E+00 0. -1.
          1    1    1    2  502    0  0.34087767503E+02  0.35909427314E+02 -0.42426963530E+03  0.42714890413E+03  0.00000000000E+00 0. -1.
<mgrwt>
<rscale>  0 0.81408261E+02</rscale>
<asrwt>0</asrwt>
<pdfrwt beam="2">  1        2 0.77263915E-01 0.49512250E+02</pdfrwt>
<pdfrwt beam="1">  1        1 0.18532174E+00 0.13385182E+03</pdfrwt>
<totfact> 0.10426119E+02</totfact>
</mgrwt>
</event>
<event>
 5    1  0.8891499E-003  0.1406194E+03  0.7546771E-02  0.1253248E+00
          2   -1    0    0  502    0  0.00000000000E+00  0.00000000000E+00  0.20446024390E+04  0.20446024390E+04  0.00000000000E+00 0. -1.
          1   -1    0    0  501    0 -0.00000000000E+00 -0.00000000000E+00 -0.12232740313E+03  0.12232740313E+03  0.00000000000E+00 0. -1.
         25    1    1    2    0    0 -0.10868905228E+02 -0.21236219838E+03  0.90540736574E+03  0.93840467515E+03  0.12500000000E+03 0.  0.
          2    1    1    2  501    0  0.28518730792E+02  0.87995677605E+02 -0.81327507267E+02  0.12316947967E+03  0.00000000000E+00 0. -1.
          1    1    1    2  502    0 -0.17649825564E+02  0.12436652078E+03  0.10981951774E+04  0.11053556873E+04  0.00000000000E+00 0. -1.
<mgrwt>
<rscale>  0 0.11405056E+03</rscale>
<asrwt>0</asrwt>
<pdfrwt beam="1">  1        2 0.31455420E+00 0.14061943E+03</pdfrwt>
<pdfrwt beam="2">  1        1 0.18819602E-01 0.92501661E+02</pdfrwt>
<totfact> 0.27384941E+02</totfact>
</mgrwt>
</event>
<event>
 5    1  0.8891499E-003  0.1287426E+03  0.7546771E-02  0.1426422E+00
          1   -1    0    0  501    0 -0.00000000000E+00  0.00000000000E+00  0.10424385858E+04  0.10424385858E+04  0.00000000000E+00 0. -1.
          2   -1    0    0  502    0  0.00000000000E+00 -0.00000000000E+00 -0.54583042293E+03  0.54583042293E+03  0.00000000000E+00 0. -1.
         25    1    1    2    0    0  0.70917113698E+02 -0.82121481654E+02  0.11650304455E+03  0.20241327563E+03  0.12500000000E+03 0.  0.
          2    1    1    2  501    0  0.81145404898E+01 -0.20863974619E+02  0.87445696132E+03  0.87474346434E+03  0.00000000000E+00 0. -1.
          1    1    1    2  502    0 -0.79031654187E+02  0.10298545627E+03 -0.49435184301E+03  0.51111226874E+03  0.00000000000E+00 0. -1.
<mgrwt>
<rscale>  0 0.53685037E+02</rscale>
<asrwt>0</asrwt>
<pdfrwt beam="2">  1        2 0.83973911E-01 0.12874256E+03</pdfrwt>
<pdfrwt beam="1">  1        1 0.16037517E+00 0.22386407E+02</pdfrwt>
<totfact> 0.13836061E+02</totfact>
</mgrwt>
</event>
<event>
 5    1  0.8891499E-003  0.3652739E+02  0.7546771E-02  0.1562020E+00
          1   -1    0    0  502    0  0.00000000000E+00  0.00000000000E+00  0.12174703788E+04  0.12174703788E+04  0.00000000000E+00 0. -1.
         -1   -1    0    0    0  501 -0.00000000000E+00 -0.00000000000E+00 -0.88458737881E+02  0.88458737881E+02  0.00000000000E+00 0.  1.
         25    1    1    2    0    0 -0.24005029146E+02  0.45653265310E+00  0.31069591696E+03  0.33575795249E+03  0.12500000000E+03 0.  0.
          2    1    1    2  502    0  0.21716599045E+02  0.30243835849E+02  0.89071788570E+03  0.89149573874E+03  0.00000000000E+00 0. -1.
         -2    1    1    2    0  501  0.22884301010E+01 -0.30700368502E+02 -0.72402161763E+02  0.78675425429E+02  0.00000000000E+00 0.  1.
<mgrwt>
<rscale>  0 0.33533797E+02</rscale>
<asrwt>0</asrwt>
<pdfrwt beam="1">  1        1 0.18730312E+00 0.36527393E+02</pdfrwt>
<pdfrwt beam="2">  1       -1 0.13609037E-01 0.30785541E+02</pdfrwt>
<totfact> 0.43584299E+02</totfact>
</mgrwt>
</event>
<event>
 5    1  0.8891499E-003  0.6507717E+02  0.7546771E-02  0.1433438E+00
          1   -1    0    0  501    0 -0.00000000000E+00  0.00000000000E+00  0.15657072564E+04  0.15657072564E+04  0.00000000000E+00 0. -1.
          2   -1    0    0  502    0  0.00000000000E+00 -0.00000000000E+00 -0.25738753214E+03  0.25738753214E+03  0.00000000000E+00 0. -1.
         25    1    1    2    0    0 -0.29438025664E+02 -0.64163400210E+02  0.34125747139E+03  0.37022317737E+03  0.12500000000E+03 0.  0.
          2    1    1    2  501    0  0.56923407156E+02  0.32415131437E+02  0.12072574308E+04  0.12090332995E+04  0.00000000000E+00 0. -1.
          1    1    1    2  502    0 -0.27485381492E+02  0.31748268773E+02 -0.24019517791E+03  0.24383831171E+03  0.00000000000E+00 0. -1.
<mgrwt>
<rscale>  0 0.52275953E+02</rscale>
<asrwt>0</asrwt>
<pdfrwt beam="2">  1        2 0.39598083E-01 0.41992842E+02</pdfrwt>
<pdfrwt beam="1">  1        1 0.24087803E+00 0.65077168E+02</pdfrwt>
<totfact> 0.12829225E+02</totfact>
</mgrwt>
</event>
<event>
 5    1  0.8891499E-003  0.7586724E+02  0.7546771E-02  0.1351182E+00
          2   -1    0    0  502    0  0.00000000000E+00  0.00000000000E+00  0.64327370765E+03  0.64327370765E+03  0.00000000000E+00 0. -1.
          1   -1    0    0  501    0 -0.00000000000E+00 -0.00000000000E+00 -0.19515846896E+04  0.19515846896E+04  0.00000000000E+00 0. -1.
         25    1    1    2    0    0  0.17117420215E+02  0.36720991249E+02  0.22934934283E+03  0.26432472137E+03  0.12500000000E+03 0.  0.
          2    1    1    2  501    0  0.49199652295E+02 -0.57986024856E+02 -0.19302839281E+04  0.19317813095E+04  0.00000000000E+00 0. -1.
          1    1    1    2  502    0 -0.66317072510E+02  0.21265033607E+02  0.39262360332E+03  0.39875236632E+03  0.00000000000E+00 0. -1.
<mgrwt>
<rscale>  0 0.72688561E+02</rscale>
<asrwt>0</asrwt>
<pdfrwt beam="1">  1        2 0.98965185E-01 0.69643060E+02</pdfrwt>
<pdfrwt beam="2">  1        1 0.30024380E+00 0.75867243E+02</pdfrwt>
<totfact> 0.27805072E+01</totfact>
</mgrwt>
</event>
<event>
 5    1  0.8891499E-003  0.6339422E+02  0.7546771E-02  0.1508734E+00
         -2   -1    0    0    0  501 -0.00000000000E+00  0.00000000000E+00  0.40115470485E+03  0.40115470485E+03  0.00000000000E+00 0.  1.
          2   -1    0    0  502    0  0.00000000000E+00 -0.00000000000E+00 -0.88176867772E+02  0.88176867772E+02  0.00000000000E+00 0. -1.
         25    1    1    2    0    0  0.60487128613E+01 -0.45651656084E+02  0.15407696316E+03  0.20367957975E+03  0.12500000000E+03 0.  0.
          3    1    1    2  502    0 -0.13579910754E+02 -0.21168047639E+02 -0.55511447785E+02  0.60942768662E+02  0.00000000000E+00 0. -1.
         -3    1    1    2    0  501  0.75311978926E+01  0.66819703723E+02  0.21441232171E+03  0.22470922421E+03  0.00000000000E+00 0.  1.
<mgrwt>
<rscale>  0 0.39929143E+02</rscale>
<asrwt>0</asrwt>
<pdfrwt beam="2">  1        2 0.13565672E-01 0.25149557E+02</pdfrwt>
<pdfrwt beam="1">  1       -2 0.61716107E-01 0.63394217E+02</pdfrwt>
<totfact> 0.97455444E+02</totfact>
</mgrwt>
</event>
<event>
 5    1  0.8891499E-003  0.7539831E+02  0.7546771E-02  0.1426008E+00
          2   -1    0    0  502    0  0.00000000000E+00  0.00000000000E+00  0.17046624645E+04  0.17046624645E+04  0.00000000000E+00 0. -1.
          1   -1    0    0  501    0 -0.00000000000E+00 -0.00000000000E+00 -0.82318703450E+03  0.82318703450E+03  0.00000000000E+00 0. -1.
         25    1    1    2    0    0  0.98493848292E+02  0.48856696101E+02  0.11232418676E+03  0.20082265270E+03  0.12500000000E+03 0.  0.
          2    1    1    2  501    0 -0.26954130948E+02 -0.27273731440E+02 -0.77756334290E+03  0.77850827474E+03  0.00000000000E+00 0. -1.
          1    1    1    2  502    0 -0.71539717344E+02 -0.21582964661E+02  0.15467145862E+04  0.15485185716E+04  0.00000000000E+00 0. -1.
<mgrwt>
<rscale>  0 0.53769787E+02</rscale>
<asrwt>0</asrwt>
<pdfrwt beam="1">  1        2 0.26225576E+00 0.75398308E+02</pdfrwt>
<pdfrwt beam="2">  1        1 0.12664416E+00 0.38345555E+02</pdfrwt>
<totfact> 0.39990453E+01</totfact>
</mgrwt>
</event>
<event>
 5    1  0.8891499E-003  0.9569599E+02  0.7546771E-02  0.1320263E+00
          2   -1    0    0  502    0  0.00000000000E+00  0.00000000000E+00  0.30372710788E+04  0.30372710788E+04  0.00000000000E+00 0. -1.
          1   -1    0    0  501    0 -0.00000000000E+00 -0.00000000000E+00 -0.92850196693E+02  0.92850196693E+02  0.00000000000E+00 0. -1.
         25    1    1    2    0    0  0.62828935401E+01  0.11818039732E+03  0.99282627559E+03  0.10076383749E+04  0.12500000000E+03 0.  0.
          2    1    1    2  501    0 -0.62402547189E+02 -0.72595920462E+02 -0.57774834077E+02  0.11181313436E+03  0.00000000000E+00 0. -1.
          1    1    1    2  502    0  0.56119653649E+02 -0.45584476856E+02  0.20093694406E+04  0.20106697663E+04  0.00000000000E+00 0. -1.
<mgrwt>
<rscale>  0 0.83179722E+02</rscale>
<asrwt>0</asrwt>
<pdfrwt beam="1">  1        2 0.46727240E+00 0.72300484E+02</pdfrwt>
<pdfrwt beam="2">  1        1 0.14284648E-01 0.95695986E+02</pdfrwt>
<totfact> 0.12604402E+02</totfact>
</mgrwt>
</event>
<event>
 5    1  0.8891499E-003  0.5354870E+02  0.7546771E-02  0.1427143E+00
          2   -1    0    0  502    0  0.00000000000E+00  0.00000000000E+00  0.64339739501E+03  0.64339739501E+03  0.00000000000E+00 0. -1.
          1   -1    0    0  501    0 -0.00000000000E+00 -0.00000000000E+00 -0.34625581368E+03  0.34625581368E+03  0.00000000000E+00 0. -1.
         25    1    1    2    0    0  0.21571575671E+02 -0.63990374316E+02  0.45399188082E+03  0.47570340417E+03  0.12500000000E+03 0.  0.
          2    1    1    2  501    0  0.29724515542E+02  0.44515185365E+02 -0.32896990454E+03  0.33329618457E+03  0.00000000000E+00 0. -1.
          1    1    1    2  502    0 -0.51296091213E+02  0.19475188951E+02  0.17211960505E+03  0.18065361995E+03  0.00000000000E+00 0. -1.
<mgrwt>
<rscale>  0 0.53537888E+02</rscale>
<asrwt>0</asrwt>
<pdfrwt beam="1">  1        2 0.98984214E-01 0.53548695E+02</pdfrwt>
<pdfrwt beam="2">  1        1 0.53270125E-01 0.53527082E+02</pdfrwt>
<totfact> 0.48733309E+02</totfact>
</mgrwt>
</event>
<event>
 5    1  0.8891499E-003  0.1574277E+03  0.7546771E-02  0.1320653E+00
         -2   -1    0    0    0  501 -0.00000000000E+00  0.00000000000E+00  0.25047737691E+03  0.25047737691E+03  0.00000000000E+00 0.  1.
          2   -1    0    0  502    0  0.00000000000E+00 -0.00000000000E+00 -0.15125773817E+04  0.15125773817E+04  0.00000000000E+00 0. -1.
         25    1    1    2    0    0  0.84239802442E+01 -0.11869102414E+03 -0.12390742492E+03  0.21245369520E+03  0.12500000000E+03 0.  0.
          1    1    1    2  502    0 -0.82186762769E-01  0.16168571351E+03 -0.13371450832E+04  0.13468850174E+04  0.00000000000E+00 0. -1.
         -1    1    1    2    0  501 -0.83417934815E+01 -0.42994689374E+02  0.19895250329E+03  0.20371604600E+03  0.00000000000E+00 0.  1.
<mgrwt>
<rscale>  0 0.83034766E+02</rscale>
<asrwt>0</asrwt>
<pdfrwt beam="2">  1        2 0.23270421E+00 0.15742766E+03</pdfrwt>
<pdfrwt beam="1">  1       -2 0.38534982E-01 0.43796448E+02</pdfrwt>
<totfact> 0.88955535E+01</totfact>
</mgrwt>
</event>
<event>
 5    1  0.8891499E-003  0.1663555E+03  0.7546771E-02  0.1227736E+00
          1   -1    0    0  501    0 -0.00000000000E+00  0.00000000000E+00  0.53418812107E+02  0.53418812107E+02  0.00000000000E+00 0. -1.
          2   -1    0    0  502    0  0.00000000000E+00 -0.00000000000E+00 -0.41048637676E+04  0.41048637676E+04  0.00000000000E+00 0. -1.
         25    1    1    2    0    0 -0.16185007367E+03  0.16257563409E+03 -0.15764644658E+04  0.15979647979E+04  0.12500000000E+03 0.  0.
          2    1    1    2  501    0  0.20818934168E+02 -0.99132592823E+02 -0.23526972354E+02  0.10399142949E+03  0.00000000000E+00 0. -1.
          1    1    1    2  502    0  0.14103113950E+03 -0.63443041263E+02 -0.24514535173E+04  0.24563263524E+04  0.00000000000E+00 0. -1.
<mgrwt>
<rscale>  0 0.12981138E+03</rscale>
<asrwt>0</asrwt>
<pdfrwt beam="2">  1        2 0.63151780E+00 0.16635546E+03</pdfrwt>
<pdfrwt beam="1">  1        1 0.82182749E-02 0.10129511E+03</pdfrwt>
<totfact> 0.43756195E+01</totfact>
</mgrwt>
</event>
<event>
 5    1  0.8891499E-003  0.8980331E+02  0.7546771E-02  0.1333643E+00
          2   -1    0    0  502    0  0.00000000000E+00  0.00000000000E+00  0.28873530747E+04  0.28873530747E+04  0.00000000000E+00 0. -1.
         -2   -1    0    0    0  501 -0.00000000000E+00 -0.00000000000E+00 -0.87777288276E+02  0.87777288276E+02  0.00000000000E+00 0.  1.
         25    1    1    2    0    0 -0.15149988035E+03 -0.31566302485E+02  0.15273526629E+03  0.25080212672E+03  0.12500000000E+03 0.  0.
          1    1    1    2  502    0  0.83048491106E+02  0.31571348478E+02  0.26540151481E+04  0.26555018750E+04  0.00000000000E+00 0. -1.
         -1    1    1    2    0  501  0.68451389245E+02 -0.50459926105E-02 -0.71746279559E+01  0.68826361239E+02  0.00000000000E+00 0.  1.
<mgrwt>
<rscale>  0 0.78403835E+02</rscale>
<asrwt>0</asrwt>
<pdfrwt beam="1">  1        2 0.44420809E+00 0.89803310E+02</pdfrwt>
<pdfrwt beam="2">  1       -2 0.13504200E-01 0.68451389E+02</pdfrwt>
<totfact> 0.10908126E+02</totfact>
</mgrwt>
</event>
<event>
 5    1  0.8891499E-003  0.7612819E+02  0.7546771E-02  0.1396102E+00
          2   -1    0    0  502    0  0.00000000000E+00  0.00000000000E+00  0.22122518172E+04  0.22122518172E+04  0.00000000000E+00 0. -1.
          1   -1    0    0  501    0 -0.00000000000E+00 -0.00000000000E+00 -0.67129561720E+03  0.67129561720E+03  0.00000000000E+00 0. -1.
         25    1    1    2    0    0  0.42917450050E+02  0.66102244034E+00  0.29276062153E+03  0.32121040766E+03  0.12500000000E+03 0.  0.
          2    1    1    2  501    0 -0.63387520778E+02  0.42692865174E+02 -0.65454550728E+03  0.65899201788E+03  0.00000000000E+00 0. -1.
          1    1    1    2  502    0  0.20470070727E+02 -0.43353887615E+02  0.19027410857E+04  0.19033450088E+04  0.00000000000E+00 0. -1.
<mgrwt>
<rscale>  0 0.60414033E+02</rscale>
<asrwt>0</asrwt>
<pdfrwt beam="1">  1        2 0.34034643E+00 0.47943544E+02</pdfrwt>
<pdfrwt beam="2">  1        1 0.10327625E+00 0.76128193E+02</pdfrwt>
<totfact> 0.30529926E+01</totfact>
</mgrwt>
</event>
<event>
 5    1  0.8891499E-003  0.6116547E+02  0.7546771E-02  0.1435584E+00
          2   -1    0    0  502    0  0.00000000000E+00  0.00000000000E+00  0.14450977188E+04  0.14450977188E+04  0.00000000000E+00 0. -1.
         -2   -1    0    0    0  501 -0.00000000000E+00 -0.00000000000E+00 -0.43498035765E+02  0.43498035765E+02  0.00000000000E+00 0.  1.
         25    1    1    2    0    0 -0.56552408956E+02  0.40036583202E+02  0.22086579798E+03  0.26307376089E+03  0.12500000000E+03 0.  0.
          1    1    1    2  502    0 -0.53552498681E+01 -0.43634792811E+02  0.11589671501E+04  0.11598006419E+04  0.00000000000E+00 0. -1.
         -1    1    1    2    0  501  0.61907658824E+02  0.35982096094E+01  0.21766734953E+02  0.65721351812E+02  0.00000000000E+00 0.  1.
<mgrwt>
<rscale>  0 0.51855257E+02</rscale>
<asrwt>0</asrwt>
<pdfrwt beam="1">  1        2 0.22232269E+00 0.43962187E+02</pdfrwt>
<pdfrwt beam="2">  1       -2 0.66920066E-02 0.61165467E+02</pdfrwt>
<totfact> 0.18719323E+03</totfact>
</mgrwt>
</event>
<event>
 5    1  0.8891499E-003  0.1252256E+03  0.7546771E-02  0.1236537E+00
          2   -1    0    0  502    0  0.00000000000E+00  0.00000000000E+00  0.83433460664E+03  0.83433460664E+03  0.00000000000E+00 0. -1.
         -2   -1    0    0    0  501 -0.00000000000E+00 -0.00000000000E+00 -0.79417749226E+02  0.79417749226E+02  0.00000000000E+00 0.  1.
         25    1    1    2    0    0 -0.90754249563E+02  0.32364764489E+02  0.30483361690E+03  0.34326716386E+03  0.12500000000E+03 0.  0.
          1    1    1    2  502    0  0.68897250475E+02 -0.15332169368E+03  0.40681926104E+03  0.44017755966E+03  0.00000000000E+00 0. -1.
         -1    1    1    2    0  501  0.21856999088E+02  0.12095692919E+03  0.43263979480E+02  0.13030763235E+03  0.00000000000E+00 0.  1.
<mgrwt>
<rscale>  0 0.12406534E+03</rscale>
<asrwt>0</asrwt>
<pdfrwt beam="1">  1        2 0.12835916E+00 0.12522557E+03</pdfrwt>
<pdfrwt beam="2">  1       -2 0.12218116E-01 0.12291585E+03</pdfrwt>
<totfact> 0.15988207E+03</totfact>
</mgrwt>
</event>
<event>
 5    1  0.8891499E-003  0.7406534E+02  0.7546771E-02  0.1389467E+00
         -1   -1    0    0    0  501 -0.00000000000E+00  0.00000000000E+00  0.12500688510E+03  0.12500688510E+03  0.00000000000E+00 0.  1.
          1   -1    0    0  502    0  0.00000000000E+00 -0.00000000000E+00 -0.66828029820E+03  0.66828029820E+03  0.00000000000E+00 0. -1.
         25    1    1    2    0    0  0.82503074418E+02  0.66328568062E+02 -0.12608243359E+03  0.20670756225E+03  0.12500000000E+03 0.  0.
          2    1    1    2  502    0 -0.51953500337E+02 -0.11474150258E+01 -0.48494646677E+03  0.48772282947E+03  0.00000000000E+00 0. -1.
         -2    1    1    2    0  501 -0.30549574081E+02 -0.65181153036E+02  0.67755487265E+02  0.98856791583E+02  0.00000000000E+00 0.  1.
<mgrwt>
<rscale>  0 0.62039440E+02</rscale>
<asrwt>0</asrwt>
<pdfrwt beam="2">  1        1 0.10281235E+00 0.51966169E+02</pdfrwt>
<pdfrwt beam="1">  1       -1 0.19231828E-01 0.74065341E+02</pdfrwt>
<totfact> 0.66456181E+02</totfact>
</mgrwt>
</event>
<event>
 5    1  0.8891499E-003  0.2918868E+02  0.7546771E-02  0.1636839E+00
          2   -1    0    0  502    0  0.00000000000E+00  0.00000000000E+00  0.10813969811E+04  0.10813969811E+04  0.00000000000E+00 0. -1.
         -2   -1    0    0    0  501 -0.00000000000E+00 -0.00000000000E+00 -0.10362854552E+03  0.10362854552E+03  0.00000000000E+00 0.  1.
         25    1    1    2    0    0 -0.75287567158E+01  0.47398082104E+02  0.95446033594E+01  0.13423620904E+03  0.12500000000E+03 0.  0.
          1    1    1    2  502    0 -0.76602622970E+01 -0.28114405360E+02  0.10056277605E+04  0.10060498457E+04  0.00000000000E+00 0. -1.
         -1    1    1    2    0  501  0.15189019013E+02 -0.19283676745E+02 -0.37403928302E+02  0.44739471832E+02  0.00000000000E+00 0.  1.
<mgrwt>
<rscale>  0 0.26767542E+02</rscale>
<asrwt>0</asrwt>
<pdfrwt beam="1">  1        2 0.16636876E+00 0.29188683E+02</pdfrwt>
<pdfrwt beam="2">  1       -2 0.15942854E-01 0.24547230E+02</pdfrwt>
<totfact> 0.72677829E+02</totfact>
</mgrwt>
</event>
<event>
 5    1  0.8891499E-003  0.4032392E+03  0.7546771E-02  0.1186408E+00
          1   -1    0    0  501    0 -0.00000000000E+00  0.00000000000E+00  0.87908653341E+02  0.87908653341E+02  0.00000000000E+00 0. -1.
          2   -1    0    0  502    0  0.00000000000E+00 -0.00000000000E+00 -0.30617668686E+04  0.30617668686E+04  0.00000000000E+00 0. -1.
         25    1    1    2    0    0 -0.18746792467E+03  0.34167180165E+03 -0.15513684409E+04  0.16044478434E+04  0.12500000000E+03 0.  0.
          2    1    1    2  501    0  0.25053228566E+03 -0.32544596054E+03 -0.64268872874E+03  0.76271246315E+03  0.00000000000E+00 0. -1.
          1    1    1    2  502    0 -0.63064360987E+02 -0.16225841107E+02 -0.77980104560E+03  0.78251521536E+03  0.00000000000E+00 0. -1.
<mgrwt>
<rscale>  0 0.16204396E+03</rscale>
<asrwt>0</asrwt>
<pdfrwt beam="2">  1        2 0.47104109E+00 0.65118289E+02</pdfrwt>
<pdfrwt beam="1">  1        1 0.13524407E-01 0.40323918E+03</pdfrwt>
<totfact> 0.14138387E+02</totfact>
</mgrwt>
</event>
<event>
 5    1  0.8891499E-003  0.3284756E+02  0.7546771E-02  0.1637908E+00
          2   -1    0    0  502    0  0.00000000000E+00  0.00000000000E+00  0.13520943425E+02  0.13520943425E+02  0.00000000000E+00 0. -1.
          1   -1    0    0  501    0 -0.00000000000E+00 -0.00000000000E+00 -0.16212637225E+04  0.16212637225E+04  0.00000000000E+00 0. -1.
         25    1    1    2    0    0  0.37027808374E+01 -0.23058934601E+02 -0.86241469836E+03  0.87173937446E+03  0.12500000000E+03 0.  0.
          2    1    1    2  501    0 -0.25379680404E+02  0.22717970657E+02 -0.73991701577E+03  0.74070063088E+03  0.00000000000E+00 0. -1.
          1    1    1    2  502    0  0.21676899567E+02  0.34096394374E+00 -0.54110649170E+01  0.22344660543E+02  0.00000000000E+00 0. -1.
<mgrwt>
<rscale>  0 0.26685600E+02</rscale>
<asrwt>0</asrwt>
<pdfrwt beam="1">  1        2 0.20801457E-02 0.21679581E+02</pdfrwt>
<pdfrwt beam="2">  1        1 0.24942513E+00 0.32847557E+02</pdfrwt>
<totfact> 0.36925737E+03</totfact>
</mgrwt>
</event>
<event>
 5    1  0.8891499E-003  0.1171630E+03  0.7546771E-02  0.1339298E+00
          1   -1    0    0  502    0  0.00000000000E+00  0.00000000000E+00  0.40568532884E+03  0.40568532884E+03  0.00000000000E+00 0. -1.
         -1   -1    0    0    0  501 -0.00000000000E+00 -0.00000000000E+00 -0.26142026345E+04  0.26142026345E+04  0.00000000000E+00 0.  1.
         25    1    1    2    0    0 -0.16136206558E+02  0.14747775801E+03 -0.18780125046E+03  0.27000810348E+03  0.12500000000E+03 0.  0.
          2    1    1    2  502    0  0.45311046323E+02 -0.10693961119E+03  0.35506301958E+03  0.37357585473E+03  0.00000000000E+00 0. -1.
         -2    1    1    2    0  501 -0.29174839765E+02 -0.40538146824E+02 -0.23757790748E+04  0.23763040052E+04  0.00000000000E+00 0.  1.
<mgrwt>
<rscale>  0 0.76496509E+02</rscale>
<asrwt>0</asrwt>
<pdfrwt beam="1">  1        1 0.62413129E-01 0.11716297E+03</pdfrwt>
<pdfrwt beam="2">  1       -1 0.40218501E+00 0.49945096E+02</pdfrwt>
<totfact> 0.68271458E-01</totfact>
</mgrwt>
</event>
<event>
 5    1  0.8891499E-003  0.1454299E+03  0.7546771E-02  0.1285626E+00
          1   -1    0    0  501    0 -0.00000000000E+00  0.00000000000E+00  0.55727030826E+03  0.55727030826E+03  0.00000000000E+00 0. -1.
          2   -1    0    0  502    0  0.00000000000E+00 -0.00000000000E+00 -0.22142335448E+04  0.22142335448E+04  0.00000000000E+00 0. -1.
         25    1    1    2    0    0 -0.17990779803E+03  0.55199543426E+02 -0.12904167768E+04  0.13100436112E+04  0.12500000000E+03 0.  0.
          2    1    1    2  501    0  0.54606796433E+02 -0.35947606942E+02  0.54108399633E+03  0.54501928750E+03  0.00000000000E+00 0. -1.
          1    1    1    2  502    0  0.12530100160E+03 -0.19251936484E+02 -0.90763045604E+03  0.91644095434E+03  0.00000000000E+00 0. -1.
<mgrwt>
<rscale>  0 0.97507686E+02</rscale>
<asrwt>0</asrwt>
<pdfrwt beam="2">  1        2 0.34065131E+00 0.14542990E+03</pdfrwt>
<pdfrwt beam="1">  1        1 0.85733895E-01 0.65376851E+02</pdfrwt>
<totfact> 0.34246602E+01</totfact>
</mgrwt>
</event>
<event>
 5    1  0.8891499E-003  0.6119243E+02  0.7546771E-02  0.1448497E+00
         -2   -1    0    0    0  501 -0.00000000000E+00  0.00000000000E+00  0.31373772355E+03  0.31373772355E+03  0.00000000000E+00 0.  1.
          2   -1    0    0  502    0  0.00000000000E+00 -0.00000000000E+00 -0.16415253111E+04  0.16415253111E+04  0.00000000000E+00 0. -1.
         25    1    1    2    0    0 -0.80444704442E+02  0.34077974171E+02 -0.94849710774E+03  0.96067914633E+03  0.12500000000E+03 0.  0.
          1    1    1    2  502    0  0.38527440482E+02  0.10420615024E+02 -0.68331220550E+03  0.68447682435E+03  0.00000000000E+00 0. -1.
         -1    1    1    2    0  501  0.41917263960E+02 -0.44498589195E+02  0.30402172567E+03  0.31010706399E+03  0.00000000000E+00 0.  1.
<mgrwt>
<rscale>  0 0.49419640E+02</rscale>
<asrwt>0</asrwt>
<pdfrwt beam="2">  1        2 0.25254235E+00 0.39911814E+02</pdfrwt>
<pdfrwt beam="1">  1       -2 0.48267342E-01 0.61192429E+02</pdfrwt>
<totfact> 0.56848408E+01</totfact>
</mgrwt>
</event>
<event>
 5    1  0.8891499E-003  0.7661758E+02  0.7546771E-02  0.1340402E+00
          2   -1    0    0  502    0  0.00000000000E+00  0.00000000000E+00  0.30197035862E+04  0.30197035862E+04  0.00000000000E+00 0. -1.
          1   -1    0    0  501    0 -0.00000000000E+00 -0.00000000000E+00 -0.47196867984E+03  0.47196867984E+03  0.00000000000E+00 0. -1.
         25    1    1    2    0    0 -0.83428341351E+02  0.61043413045E+02 -0.31293096871E+03  0.35247322962E+03  0.12500000000E+03 0.  0.
          2    1    1    2  501    0  0.81233380667E+01 -0.75211544439E+02 -0.12846619663E+03  0.14908497146E+03  0.00000000000E+00 0. -1.
          1    1    1    2  502    0  0.75305003284E+02  0.14168131395E+02  0.29891320717E+04  0.29901140650E+04  0.00000000000E+00 0. -1.
<mgrwt>
<rscale>  0 0.76131731E+02</rscale>
<asrwt>0</asrwt>
<pdfrwt beam="1">  1        2 0.46456977E+00 0.76617584E+02</pdfrwt>
<pdfrwt beam="2">  1        1 0.72610568E-01 0.75648959E+02</pdfrwt>
<totfact> 0.16989592E+01</totfact>
</mgrwt>
</event>
<event>
 5    1  0.8891499E-003  0.1031267E+03  0.7546771E-02  0.1317946E+00
          1   -1    0    0  502    0  0.00000000000E+00  0.00000000000E+00  0.21042526808E+04  0.21042526808E+04  0.00000000000E+00 0. -1.
         -1   -1    0    0    0  501 -0.00000000000E+00 -0.00000000000E+00 -0.24135276949E+03  0.24135276949E+03  0.00000000000E+00 0.  1.
         25    1    1    2    0    0  0.94107132622E+02  0.64501716142E+02  0.16232892750E+03  0.23450438056E+03  0.12500000000E+03 0.  0.
          2    1    1    2  502    0  0.96133438314E+01 -0.67817769789E+02  0.18920607088E+04  0.18933001326E+04  0.00000000000E+00 0. -1.
         -2    1    1    2    0  501 -0.10372047645E+03  0.33160536471E+01 -0.19148972499E+03  0.21780093715E+03  0.00000000000E+00 0.  1.
<mgrwt>
<rscale>  0 0.84046036E+02</rscale>
<asrwt>0</asrwt>
<pdfrwt beam="1">  1        1 0.32373117E+00 0.68495739E+02</pdfrwt>
<pdfrwt beam="2">  1       -1 0.37131197E-01 0.10312665E+03</pdfrwt>
<totfact> 0.24337851E+01</totfact>
</mgrwt>
</event>
<event>
 5    1  0.8891499E-003  0.8025620E+02  0.7546771E-02  0.1507300E+00
          1   -1    0    0  502    0  0.00000000000E+00  0.00000000000E+00  0.21388175583E+04  0.21388175583E+04  0.00000000000E+00 0. -1.
         -1   -1    0    0    0  501 -0.00000000000E+00 -0.00000000000E+00 -0.14574799673E+03  0.14574799673E+03  0.00000000000E+00 0.  1.
         25    1    1    2    0    0  0.16849968045E+02 -0.65555428364E+02  0.70775687458E+03  0.72189073213E+03  0.12500000000E+03 0.  0.
          2    1    1    2  502    0  0.18971238653E+02 -0.65192946600E+01  0.14122387835E+04  0.14123812484E+04  0.00000000000E+00 0. -1.
         -2    1    1    2    0  501 -0.35821206698E+02  0.72074723024E+02 -0.12692609656E+03  0.15029357450E+03  0.00000000000E+00 0.  1.
<mgrwt>
<rscale>  0 0.40124187E+02</rscale>
<asrwt>0</asrwt>
<pdfrwt beam="1">  1        1 0.32904883E+00 0.20060137E+02</pdfrwt>
<pdfrwt beam="2">  1       -1 0.22422770E-01 0.80256200E+02</pdfrwt>
<totfact> 0.63833873E+01</totfact>
</mgrwt>
</event>
<event>
 5    1  0.8891499E-003  0.4090447E+02  0.7546771E-02  0.1504846E+00
          2   -1    0    0  502    0  0.00000000000E+00  0.00000000000E+00  0.12555482563E+04  0.12555482563E+04  0.00000000000E+00 0. -1.
          1   -1    0    0  501    0 -0.00000000000E+00 -0.00000000000E+00 -0.41755393792E+02  0.41755393792E+02  0.00000000000E+00 0. -1.
         25    1    1    2    0    0  0.87377893760E+01 -0.21854368046E+01  0.30529455666E+03  0.33001650174E+03  0.12500000000E+03 0.  0.
          2    1    1    2  501    0  0.15699488039E+02  0.36814738885E+02 -0.15056051797E+02  0.42760771972E+02  0.00000000000E+00 0. -1.
          1    1    1    2  502    0 -0.24437277415E+02 -0.34629302081E+02  0.92355435761E+03  0.92452637634E+03  0.00000000000E+00 0. -1.
<mgrwt>
<rscale>  0 0.40461072E+02</rscale>
<asrwt>0</asrwt>
<pdfrwt beam="1">  1        2 0.19316124E+00 0.40904470E+02</pdfrwt>
<pdfrwt beam="2">  1        1 0.64239077E-02 0.40022480E+02</pdfrwt>
<totfact> 0.28747582E+03</totfact>
</mgrwt>
</event>
<event>
 5    1  0.8891499E-003  0.1585541E+03  0.7546771E-02  0.1231501E+00
          1   -1    0    0  501    0 -0.00000000000E+00  0.00000000000E+00  0.23470909270E+03  0.23470909270E+03  0.00000000000E+00 0. -1.
          2   -1    0    0  502    0  0.00000000000E+00 -0.00000000000E+00 -0.36845156539E+03  0.36845156539E+03  0.00000000000E+00 0. -1.
         25    1    1    2    0    0 -0.13469226404E+03 -0.64308156097E+02 -0.19557898334E+02  0.19566567487E+03  0.12500000000E+03 0.  0.
          2    1    1    2  501    0  0.17106190914E+03 -0.31227357475E+02  0.77405817505E+02  0.19033913207E+03  0.00000000000E+00 0. -1.
          1    1    1    2  502    0 -0.36369645095E+02  0.95535513573E+02 -0.19159039186E+03  0.21715585116E+03  0.00000000000E+00 0. -1.
<mgrwt>
<rscale>  0 0.12731090E+03</rscale>
<asrwt>0</asrwt>
<pdfrwt beam="2">  1        2 0.56684856E-01 0.10222419E+03</pdfrwt>
<pdfrwt beam="1">  1        1 0.36109091E-01 0.15855410E+03</pdfrwt>
<totfact> 0.14165456E+03</totfact>
</mgrwt>
</event>
<event>
 5    1  0.8891499E-003  0.5060889E+02  0.7546771E-02  0.1514296E+00
          2   -1    0    0  502    0  0.00000000000E+00  0.00000000000E+00  0.40212893151E+03  0.40212893151E+03  0.00000000000E+00 0. -1.
         -2   -1    0    0    0  501 -0.00000000000E+00 -0.00000000000E+00 -0.15735979777E+03  0.15735979777E+03  0.00000000000E+00 0.  1.
         25    1    1    2    0    0  0.20073237322E+02 -0.49708435929E+02  0.16626345131E+03  0.21480781806E+03  0.12500000000E+03 0.  0.
          1    1    1    2  502    0  0.21831490263E+02  0.21068699997E+02  0.20559984202E+03  0.20782636773E+03  0.00000000000E+00 0. -1.
         -1    1    1    2    0  501 -0.41904727585E+02  0.28639735932E+02 -0.12709415960E+03  0.13685454348E+03  0.00000000000E+00 0.  1.
<mgrwt>
<rscale>  0 0.39184997E+02</rscale>
<asrwt>0</asrwt>
<pdfrwt beam="1">  1        2 0.61865989E-01 0.30339810E+02</pdfrwt>
<pdfrwt beam="2">  1       -2 0.24209200E-01 0.50608886E+02</pdfrwt>
<totfact> 0.11486168E+03</totfact>
</mgrwt>
</event>
<event>
 5    1  0.8891499E-003  0.8012391E+02  0.7546771E-02  0.1462057E+00
          1   -1    0    0  502    0  0.00000000000E+00  0.00000000000E+00  0.51469699786E+02  0.51469699786E+02  0.00000000000E+00 0. -1.
         -1   -1    0    0    0  501 -0.00000000000E+00 -0.00000000000E+00 -0.15727096851E+04  0.15727096851E+04  0.00000000000E+00 0.  1.
         25    1    1    2    0    0  0.72693995070E+02 -0.35157490197E+02 -0.13221632227E+03  0.19906436625E+03  0.12500000000E+03 0.  0.
          2    1    1    2  502    0 -0.57203782358E+02  0.58005730480E+02 -0.74790057800E+02  0.11059154683E+03  0.00000000000E+00 0. -1.
         -2    1    1    2    0  501 -0.15490212712E+02 -0.22848240283E+02 -0.13142336053E+04  0.13145234718E+04  0.00000000000E+00 0.  1.
<mgrwt>
<rscale>  0 0.47029266E+02</rscale>
<asrwt>0</asrwt>
<pdfrwt beam="1">  1        1 0.79184150E-02 0.80123907E+02</pdfrwt>
<pdfrwt beam="2">  1       -1 0.24195535E+00 0.27604144E+02</pdfrwt>
<totfact> 0.92415720E+01</totfact>
</mgrwt>
</event>
<event>
 5    1  0.8891499E-003  0.7606661E+02  0.7546771E-02  0.1462583E+00
          2   -1    0    0  502    0  0.00000000000E+00  0.00000000000E+00  0.13282230789E+04  0.13282230789E+04  0.00000000000E+00 0. -1.
          1   -1    0    0  501    0 -0.00000000000E+00 -0.00000000000E+00 -0.44291669398E+02  0.44291669398E+02  0.00000000000E+00 0. -1.
         25    1    1    2    0    0  0.22013606730E+02  0.74670993640E+02  0.31333160037E+03  0.34621098764E+03  0.12500000000E+03 0.  0.
          2    1    1    2  501    0  0.69104635680E+01 -0.76226518206E+02  0.25375780126E+02  0.80636014296E+02  0.00000000000E+00 0. -1.
          1    1    1    2  502    0 -0.28924070298E+02  0.15555245656E+01  0.94522402905E+03  0.94566774641E+03  0.00000000000E+00 0. -1.
<mgrwt>
<rscale>  0 0.46939699E+02</rscale>
<asrwt>0</asrwt>
<pdfrwt beam="1">  1        2 0.20434198E+00 0.28965868E+02</pdfrwt>
<pdfrwt beam="2">  1        1 0.68141040E-02 0.76066610E+02</pdfrwt>
<totfact> 0.26652769E+03</totfact>
</mgrwt>
</event>
<event>
 5    1  0.8891499E-003  0.1377010E+03  0.7546771E-02  0.1418077E+00
         -1   -1    0    0    0  501 -0.00000000000E+00  0.00000000000E+00  0.52365913468E+03  0.52365913468E+03  0.00000000000E+00 0.  1.
          1   -1    0    0  502    0  0.00000000000E+00 -0.00000000000E+00 -0.10364342160E+03  0.10364342160E+03  0.00000000000E+00 0. -1.
         25    1    1    2    0    0 -0.87943014414E+02  0.10649570184E+03  0.10469605582E+03  0.21368568599E+03  0.12500000000E+03 0.  0.
          2    1    1    2  502    0  0.10395886862E+03 -0.90960314418E+02  0.49308515249E+02  0.14667158839E+03  0.00000000000E+00 0. -1.
         -2    1    1    2    0  501 -0.16015854208E+02 -0.15535387424E+02  0.26601114202E+03  0.26694528190E+03  0.00000000000E+00 0.  1.
<mgrwt>
<rscale>  0 0.55429938E+02</rscale>
<asrwt>0</asrwt>
<pdfrwt beam="2">  1        1 0.15945142E-01 0.13770096E+03</pdfrwt>
<pdfrwt beam="1">  1       -1 0.80562943E-01 0.22312684E+02</pdfrwt>
<totfact> 0.58101255E+02</totfact>
</mgrwt>
</event>
<event>
 5    1  0.8891499E-003  0.1566636E+03  0.7546771E-02  0.1344995E+00
          2   -1    0    0  502    0  0.00000000000E+00  0.00000000000E+00  0.23202951218E+04  0.23202951218E+04  0.00000000000E+00 0. -1.
         -2   -1    0    0    0  501 -0.00000000000E+00 -0.00000000000E+00 -0.35556824839E+03  0.35556824839E+03  0.00000000000E+00 0.  1.
         25    1    1    2    0    0  0.61478584146E+01 -0.15484936103E+03  0.57307895860E+03  0.60667999272E+03  0.12500000000E+03 0.  0.
          1    1    1    2  502    0  0.35375655001E+02  0.36101703275E+01  0.17120689448E+04  0.17124381863E+04  0.00000000000E+00 0. -1.
         -1    1    1    2    0  501 -0.41523513416E+02  0.15123919070E+03 -0.32042102996E+03  0.35674519116E+03  0.00000000000E+00 0.  1.
<mgrwt>
<rscale>  0 0.74638212E+02</rscale>
<asrwt>0</asrwt>
<pdfrwt beam="1">  1        2 0.35696847E+00 0.35559391E+02</pdfrwt>
<pdfrwt beam="2">  1       -2 0.54702809E-01 0.15666361E+03</pdfrwt>
<totfact> 0.21198880E+01</totfact>
</mgrwt>
</event>
<event>
 5    1  0.8891499E-003  0.4394921E+02  0.7546771E-02  0.1527082E+00
          2   -1    0    0  502    0  0.00000000000E+00  0.00000000000E+00  0.72677546555E+03  0.72677546555E+03  0.00000000000E+00 0. -1.
          1   -1    0    0  501    0 -0.00000000000E+00 -0.00000000000E+00 -0.99465798985E+03  0.99465798985E+03  0.00000000000E+00 0. -1.
         25    1    1    2    0    0  0.12393837000E+02 -0.29520184885E+02  0.23936903643E+03  0.27193305079E+03  0.12500000000E+03 0.  0.
          2    1    1    2  501    0 -0.29557803556E+02 -0.12460954719E+02 -0.97702061147E+03  0.97754703947E+03  0.00000000000E+00 0. -1.
          1    1    1    2  502    0  0.17163966556E+02  0.41981139604E+02  0.46976905074E+03  0.47195336513E+03  0.00000000000E+00 0. -1.
<mgrwt>
<rscale>  0 0.37546802E+02</rscale>
<asrwt>0</asrwt>
<pdfrwt beam="1">  1        2 0.11181161E+00 0.43949209E+02</pdfrwt>
<pdfrwt beam="2">  1        1 0.15302430E+00 0.32077081E+02</pdfrwt>
<totfact> 0.10800914E+02</totfact>
</mgrwt>
</event>
<event>
 5    1  0.8891499E-003  0.1582883E+03  0.7546771E-02  0.1296415E+00
          2   -1    0    0  502    0  0.00000000000E+00  0.00000000000E+00  0.17714911895E+04  0.17714911895E+04  0.00000000000E+00 0. -1.
          1   -1    0    0  501    0 -0.00000000000E+00 -0.00000000000E+00 -0.16096249834E+03  0.16096249834E+03  0.00000000000E+00 0. -1.
         25    1    1    2    0    0 -0.97189250879E+02 -0.17529187160E+03  0.28752978118E+03  0.37211740863E+03  0.12500000000E+03 0.  0.
          2    1    1    2  501    0  0.92156984197E+02  0.12122301357E+03 -0.69070288164E+02  0.16720835344E+03  0.00000000000E+00 0. -1.
          1    1    1    2  502    0  0.50322666820E+01  0.54068858038E+02  0.13920691982E+04  0.13931279258E+04  0.00000000000E+00 0. -1.
<mgrwt>
<rscale>  0 0.92711671E+02</rscale>
<asrwt>0</asrwt>
<pdfrwt beam="1">  1        2 0.27253709E+00 0.54302533E+02</pdfrwt>
<pdfrwt beam="2">  1        1 0.24763462E-01 0.15828827E+03</pdfrwt>
<totfact> 0.29791309E+02</totfact>
</mgrwt>
</event>
<event>
 5    1  0.8891499E-003  0.2977235E+02  0.7546771E-02  0.1649273E+00
          2   -1    0    0  502    0  0.00000000000E+00  0.00000000000E+00  0.10706288469E+04  0.10706288469E+04  0.00000000000E+00 0. -1.
          1   -1    0    0  501    0 -0.00000000000E+00 -0.00000000000E+00 -0.13735887526E+02  0.13735887526E+02  0.00000000000E+00 0. -1.
         25    1    1    2    0    0  0.90421488506E+01 -0.42153677200E+01  0.48411819790E+03  0.50009495030E+03  0.12500000000E+03 0.  0.
          2    1    1    2  501    0 -0.31451503509E+02  0.35085965388E+01  0.39914023451E+02  0.50937575430E+02  0.00000000000E+00 0. -1.
          1    1    1    2  502    0  0.22409354658E+02  0.70677118117E+00  0.53286073800E+03  0.53333220867E+03  0.00000000000E+00 0. -1.
<mgrwt>
<rscale>  0 0.25836230E+02</rscale>
<asrwt>0</asrwt>
<pdfrwt beam="1">  1        2 0.16471207E+00 0.22420497E+02</pdfrwt>
<pdfrwt beam="2">  1        1 0.21132143E-02 0.29772345E+02</pdfrwt>
<totfact> 0.15468062E+04</totfact>
</mgrwt>
</event>
<event>
 5    1  0.8891499E-003  0.6507698E+02  0.7546771E-02  0.1468710E+00
          2   -1    0    0  502    0  0.00000000000E+00  0.00000000000E+00  0.26534560597E+04  0.26534560597E+04  0.00000000000E+00 0. -1.
         -2   -1    0    0    0  501 -0.00000000000E+00 -0.00000000000E+00 -0.35129702693E+02  0.35129702693E+02  0.00000000000E+00 0.  1.
         25    1    1    2    0    0  0.17905121715E+01 -0.54996948302E+02  0.58809020657E+03  0.60374080640E+03  0.12500000000E+03 0.  0.
          1    1    1    2  502    0  0.30375716228E+02  0.58839633190E+02  0.20472044443E+04  0.20482750849E+04  0.00000000000E+00 0. -1.
         -1    1    1    2    0  501 -0.32166228400E+02 -0.38426848877E+01 -0.16968293860E+02  0.36569871112E+02  0.00000000000E+00 0.  1.
<mgrwt>
<rscale>  0 0.45914760E+02</rscale>
<asrwt>0</asrwt>
<pdfrwt beam="1">  1        2 0.40822385E+00 0.65076980E+02</pdfrwt>
<pdfrwt beam="2">  1       -2 0.54045717E-02 0.32394945E+02</pdfrwt>
<totfact> 0.57129117E+02</totfact>
</mgrwt>
</event>
<event>
 5    1  0.8891499E-003  0.7021348E+02  0.7546771E-02  0.1390899E+00
          2   -1    0    0  502    0  0.00000000000E+00  0.00000000000E+00  0.98669994484E+03  0.98669994484E+03  0.00000000000E+00 0. -1.
          1   -1    0    0  501    0 -0.00000000000E+00 -0.00000000000E+00 -0.37202631430E+03  0.37202631430E+03  0.00000000000E+00 0. -1.
         25    1    1    2    0    0 -0.39560487574E+01 -0.27868639423E+02  0.10986287409E+03  0.16878140445E+03  0.12500000000E+03 0.  0.
          2    1    1    2  501    0  0.55191580254E+02  0.45518006455E+02 -0.33795228394E+03  0.34544137804E+03  0.00000000000E+00 0. -1.
          1    1    1    2  502    0 -0.51235531497E+02 -0.17649367033E+02  0.84276304038E+03  0.84450347666E+03  0.00000000000E+00 0. -1.
<mgrwt>
<rscale>  0 0.61683740E+02</rscale>
<asrwt>0</asrwt>
<pdfrwt beam="1">  1        2 0.15179999E+00 0.54190219E+02</pdfrwt>
<pdfrwt beam="2">  1        1 0.57234818E-01 0.70213479E+02</pdfrwt>
<totfact> 0.26742319E+02</totfact>
</mgrwt>
</event>
<event>
 5    1  0.8891499E-003  0.4709986E+02  0.7546771E-02  0.1558724E+00
         -2   -1    0    0    0  501 -0.00000000000E+00  0.00000000000E+00  0.97652957881E+02  0.97652957881E+02  0.00000000000E+00 0.  1.
          2   -1    0    0  502    0  0.00000000000E+00 -0.00000000000E+00 -0.75584551173E+03  0.75584551173E+03  0.00000000000E+00 0. -1.
         25    1    1    2    0    0 -0.11651613864E+02  0.49879900505E+02  0.12362755165E+02  0.13565250567E+03  0.12500000000E+03 0.  0.
          1    1    1    2  502    0 -0.12326958902E+02 -0.45480043989E+02 -0.68688755104E+03  0.68850192163E+03  0.00000000000E+00 0. -1.
         -3    1    1    2    0  501  0.23978572766E+02 -0.43998565159E+01  0.16332242026E+02  0.29344042306E+02  0.00000000000E+00 0.  1.
<mgrwt>
<rscale>  0 0.33885732E+02</rscale>
<asrwt>0</asrwt>
<pdfrwt beam="2">  1        2 0.11628392E+00 0.47099865E+02</pdfrwt>
<pdfrwt beam="1">  1       -2 0.15023533E-01 0.24378898E+02</pdfrwt>
<totfact> 0.12108592E+03</totfact>
</mgrwt>
</event>
<event>
 5    1  0.8891499E-003  0.2618079E+03  0.7546771E-02  0.1217217E+00
          1   -1    0    0  501    0 -0.00000000000E+00  0.00000000000E+00  0.20516923590E+04  0.20516923590E+04  0.00000000000E+00 0. -1.
          2   -1    0    0  502    0  0.00000000000E+00 -0.00000000000E+00 -0.47728430613E+03  0.47728430613E+03  0.00000000000E+00 0. -1.
         25    1    1    2    0    0  0.89415714177E+02 -0.30674748637E+03  0.79643030254E+02  0.35221755011E+03  0.12500000000E+03 0.  0.
          2    1    1    2  501    0 -0.39485922706E+02  0.25508617842E+03  0.18227811050E+04  0.18409668800E+04  0.00000000000E+00 0. -1.
          1    1    1    2  502    0 -0.49929791471E+02  0.51661307948E+02 -0.32801608238E+03  0.33579223504E+03  0.00000000000E+00 0. -1.
<mgrwt>
<rscale>  0 0.13714919E+03</rscale>
<asrwt>0</asrwt>
<pdfrwt beam="2">  1        2 0.73428356E-01 0.71846189E+02</pdfrwt>
<pdfrwt beam="1">  1        1 0.31564497E+00 0.26180789E+03</pdfrwt>
<totfact> 0.28704282E+01</totfact>
</mgrwt>
</event>
<event>
 5    1  0.8891499E-003  0.1511793E+03  0.7546771E-02  0.1205398E+00
          2   -1    0    0  502    0  0.00000000000E+00  0.00000000000E+00  0.37374894924E+04  0.37374894924E+04  0.00000000000E+00 0. -1.
          1   -1    0    0  501    0 -0.00000000000E+00 -0.00000000000E+00 -0.48380198563E+03  0.48380198563E+03  0.00000000000E+00 0. -1.
         25    1    1    2    0    0  0.15208306781E+03  0.83072786997E+02  0.80926105752E+03  0.83699391077E+03  0.12500000000E+03 0.  0.
          2    1    1    2  501    0 -0.27465176774E+02 -0.14928781284E+03 -0.45591750712E+03  0.48052259083E+03  0.00000000000E+00 0. -1.
          1    1    1    2  502    0 -0.12461789104E+03  0.66215025845E+02  0.29003439563E+04  0.29037749764E+04  0.00000000000E+00 0. -1.
<mgrwt>
<rscale>  0 0.14606159E+03</rscale>
<asrwt>0</asrwt>
<pdfrwt beam="1">  1        2 0.57499837E+00 0.14111714E+03</pdfrwt>
<pdfrwt beam="2">  1        1 0.74431077E-01 0.15117928E+03</pdfrwt>
<totfact> 0.51766811E+00</totfact>
</mgrwt>
</event>
<event>
 5    1  0.8891499E-003  0.1005555E+03  0.7546771E-02  0.1319640E+00
          1   -1    0    0  501    0 -0.00000000000E+00  0.00000000000E+00  0.39994065421E+03  0.39994065421E+03  0.00000000000E+00 0. -1.
          2   -1    0    0  502    0  0.00000000000E+00 -0.00000000000E+00 -0.81631810090E+03  0.81631810090E+03  0.00000000000E+00 0. -1.
         25    1    1    2    0    0  0.61772705858E+02  0.13142725522E+03 -0.18627554870E+03  0.26723130552E+03  0.12500000000E+03 0.  0.
          2    1    1    2  501    0  0.12025220061E+02 -0.68137073976E+02  0.35206458541E+03  0.35879902322E+03  0.00000000000E+00 0. -1.
          1    1    1    2  502    0 -0.73797925920E+02 -0.63290181247E+02 -0.58216648339E+03  0.59022842637E+03  0.00000000000E+00 0. -1.
<mgrwt>
<rscale>  0 0.83411302E+02</rscale>
<asrwt>0</asrwt>
<pdfrwt beam="2">  1        2 0.12558740E+00 0.10055554E+03</pdfrwt>
<pdfrwt beam="1">  1        1 0.61529332E-01 0.69190077E+02</pdfrwt>
<totfact> 0.30283308E+02</totfact>
</mgrwt>
</event>
<event>
 5    1  0.8891499E-003  0.8246463E+02  0.7546771E-02  0.1397478E+00
          1   -1    0    0  501    0 -0.00000000000E+00  0.00000000000E+00  0.22813912553E+04  0.22813912553E+04  0.00000000000E+00 0. -1.
          2   -1    0    0  502    0  0.00000000000E+00 -0.00000000000E+00 -0.46067200058E+02  0.46067200058E+02  0.00000000000E+00 0. -1.
         25    1    1    2    0    0  0.52356738921E+02  0.19203789937E+02  0.94122281947E+03  0.95112323573E+03  0.12500000000E+03 0.  0.
          2    1    1    2  501    0  0.30773433070E+02 -0.31136635479E+02  0.12915732200E+04  0.12923149295E+04  0.00000000000E+00 0. -1.
          1    1    1    2  502    0 -0.83130171990E+02  0.11932845542E+02  0.25280157722E+01  0.84020290178E+02  0.00000000000E+00 0. -1.
<mgrwt>
<rscale>  0 0.60084262E+02</rscale>
<asrwt>0</asrwt>
<pdfrwt beam="2">  1        2 0.70872633E-02 0.82464629E+02</pdfrwt>
<pdfrwt beam="1">  1        1 0.35098318E+00 0.43777783E+02</pdfrwt>
<totfact> 0.35219281E+02</totfact>
</mgrwt>
</event>
<event>
 5    1  0.8891499E-003  0.1530647E+03  0.7546771E-02  0.1232922E+00
          1   -1    0    0  501    0 -0.00000000000E+00  0.00000000000E+00  0.63185022416E+03  0.63185022416E+03  0.00000000000E+00 0. -1.
          2   -1    0    0  502    0  0.00000000000E+00 -0.00000000000E+00 -0.45612210030E+03  0.45612210030E+03  0.00000000000E+00 0. -1.
         25    1    1    2    0    0  0.16776736831E+03  0.24210883975E+02 -0.16571774565E+03  0.26799147001E+03  0.12500000000E+03 0.  0.
          2    1    1    2  501    0 -0.30977257101E+02 -0.99650411253E+02  0.54977400110E+03  0.55959024938E+03  0.00000000000E+00 0. -1.
          1    1    1    2  502    0 -0.13679011121E+03  0.75439527278E+02 -0.20832813158E+03  0.26039060507E+03  0.00000000000E+00 0. -1.
<mgrwt>
<rscale>  0 0.12638411E+03</rscale>
<asrwt>0</asrwt>
<pdfrwt beam="2">  1        2 0.70172631E-01 0.15306471E+03</pdfrwt>
<pdfrwt beam="1">  1        1 0.97207727E-01 0.10435418E+03</pdfrwt>
<totfact> 0.32113598E+02</totfact>
</mgrwt>
</event>
<event>
 5    1  0.8891499E-003  0.4623050E+02  0.7546771E-02  0.1486557E+00
          2   -1    0    0  502    0  0.00000000000E+00  0.00000000000E+00  0.90347739762E+03  0.90347739762E+03  0.00000000000E+00 0. -1.
          1   -1    0    0  501    0 -0.00000000000E+00 -0.00000000000E+00 -0.27416050903E+03  0.27416050903E+03  0.00000000000E+00 0. -1.
         25    1    1    2    0    0  0.71225475141E+02 -0.12069492549E+02  0.19177361923E+03  0.24004345855E+03  0.12500000000E+03 0.  0.
          2    1    1    2  501    0 -0.35154842347E+02  0.29778983886E+02 -0.24730921148E+03  0.25156410099E+03  0.00000000000E+00 0. -1.
          1    1    1    2  502    0 -0.36070632794E+02 -0.17709491337E+02  0.68485248085E+03  0.68603034711E+03  0.00000000000E+00 0. -1.
<mgrwt>
<rscale>  0 0.43101100E+02</rscale>
<asrwt>0</asrwt>
<pdfrwt beam="1">  1        2 0.13899652E+00 0.40183537E+02</pdfrwt>
<pdfrwt beam="2">  1        1 0.42178540E-01 0.46230496E+02</pdfrwt>
<totfact> 0.43807028E+02</totfact>
</mgrwt>
</event>
<event>
 5    1  0.8891499E-003  0.9396153E+02  0.7546771E-02  0.1333017E+00
          1   -1    0    0  501    0 -0.00000000000E+00  0.00000000000E+00  0.70725046138E+03  0.70725046138E+03  0.00000000000E+00 0. -1.
          2   -1    0    0  502    0  0.00000000000E+00 -0.00000000000E+00 -0.37505125129E+03  0.37505125129E+03  0.00000000000E+00 0. -1.
         25    1    1    2    0    0 -0.15665549213E+03 -0.15247280212E+02  0.14143931730E+03  0.24577124170E+03  0.12500000000E+03 0.  0.
          2    1    1    2  501    0  0.65734819568E+02  0.24752062428E+01  0.50494151148E+03  0.50920832982E+03  0.00000000000E+00 0. -1.
          1    1    1    2  502    0  0.90920672560E+02  0.12772073969E+02 -0.31418161868E+03  0.32732214115E+03  0.00000000000E+00 0. -1.
<mgrwt>
<rscale>  0 0.78618836E+02</rscale>
<asrwt>0</asrwt>
<pdfrwt beam="2">  1        2 0.57700192E-01 0.93961529E+02</pdfrwt>
<pdfrwt beam="1">  1        1 0.10880776E+00 0.65781404E+02</pdfrwt>
<totfact> 0.34603395E+02</totfact>
</mgrwt>
</event>
<event>
 5    1  0.8891499E-003  0.6079184E+02  0.7546771E-02  0.1505239E+00
          2   -1    0    0  502    0  0.00000000000E+00  0.00000000000E+00  0.29423145815E+04  0.29423145815E+04  0.00000000000E+00 0. -1.
         -2   -1    0    0    0  501 -0.00000000000E+00 -0.00000000000E+00 -0.86973118992E+01  0.86973118992E+01  0.00000000000E+00 0.  1.
         25    1    1    2    0    0  0.72306762200E+02 -0.26279304354E+02  0.14755654459E+04  0.14828476843E+04  0.12500000000E+03 0.  0.
          1    1    1    2  502    0 -0.25125890975E+02 -0.94874844541E+01  0.12847022227E+04  0.12849829274E+04  0.00000000000E+00 0. -1.
         -1    1    1    2    0  501 -0.47180871225E+02  0.35766788808E+02  0.17334960108E+03  0.18318128176E+03  0.00000000000E+00 0.  1.
<mgrwt>
<rscale>  0 0.40406855E+02</rscale>
<asrwt>0</asrwt>
<pdfrwt beam="1">  1        2 0.45266299E+00 0.26857453E+02</pdfrwt>
<pdfrwt beam="2">  1       -2 0.13380503E-02 0.60791838E+02</pdfrwt>
<totfact> 0.37203750E+03</totfact>
</mgrwt>
</event>
<event>
 5    1  0.8891499E-003  0.1033432E+03  0.7546771E-02  0.1285893E+00
          1   -1    0    0  502    0  0.00000000000E+00  0.00000000000E+00  0.32806913215E+03  0.32806913215E+03  0.00000000000E+00 0. -1.
         -1   -1    0    0    0  501 -0.00000000000E+00 -0.00000000000E+00 -0.67854792701E+03  0.67854792701E+03  0.00000000000E+00 0.  1.
         25    1    1    2    0    0  0.33452591431E+02 -0.32548330624E+02 -0.18690214170E+03  0.22964294083E+03  0.12500000000E+03 0.  0.
          2    1    1    2  502    0 -0.69518170235E+02 -0.76465944133E+02  0.29064112678E+03  0.30846730974E+03  0.00000000000E+00 0. -1.
         -2    1    1    2    0  501  0.36065578804E+02  0.10901427476E+03 -0.45421777994E+03  0.46850680859E+03  0.00000000000E+00 0.  1.
<mgrwt>
<rscale>  0 0.97384835E+02</rscale>
<asrwt>0</asrwt>
<pdfrwt beam="1">  1        1 0.50472175E-01 0.10334320E+03</pdfrwt>
<pdfrwt beam="2">  1       -1 0.10439199E+00 0.91770008E+02</pdfrwt>
<totfact> 0.76276606E+01</totfact>
</mgrwt>
</event>
<event>
 5    1  0.8891499E-003  0.4494554E+02  0.7546771E-02  0.1513040E+00
          2   -1    0    0  502    0  0.00000000000E+00  0.00000000000E+00  0.12243966674E+04  0.12243966674E+04  0.00000000000E+00 0. -1.
          1   -1    0    0  501    0 -0.00000000000E+00 -0.00000000000E+00 -0.14654715424E+04  0.14654715424E+04  0.00000000000E+00 0. -1.
         25    1    1    2    0    0 -0.62264331921E+02 -0.21229486157E+02 -0.12923242443E+04  0.13000209577E+04  0.12500000000E+03 0.  0.
          2    1    1    2  501    0  0.32222683668E+02 -0.12195689957E+02 -0.16712747906E+03  0.17064181918E+03  0.00000000000E+00 0. -1.
          1    1    1    2  502    0  0.30041648253E+02  0.33425176114E+02  0.12183768484E+04  0.12192054329E+04  0.00000000000E+00 0. -1.
<mgrwt>
<rscale>  0 0.39351317E+02</rscale>
<asrwt>0</asrwt>
<pdfrwt beam="1">  1        2 0.18836872E+00 0.44945537E+02</pdfrwt>
<pdfrwt beam="2">  1        1 0.22545716E+00 0.34453392E+02</pdfrwt>
<totfact> 0.27496638E+01</totfact>
</mgrwt>
</event>
<event>
 5    1  0.8891499E-003  0.9634644E+02  0.7546771E-02  0.1375387E+00
          2   -1    0    0  502    0  0.00000000000E+00  0.00000000000E+00  0.24018184427E+03  0.24018184427E+03  0.00000000000E+00 0. -1.
          1   -1    0    0  501    0 -0.00000000000E+00 -0.00000000000E+00 -0.13215994076E+04  0.13215994076E+04  0.00000000000E+00 0. -1.
         25    1    1    2    0    0 -0.87531979213E+02 -0.66734249721E+02 -0.19788630739E+03  0.25864898632E+03  0.12500000000E+03 0.  0.
          2    1    1    2  501    0  0.46254212657E+02  0.84122932632E+02 -0.10888048091E+04  0.10930288341E+04  0.00000000000E+00 0. -1.
          1    1    1    2  502    0  0.41277766556E+02 -0.17388682910E+02  0.20527355310E+03  0.21010343145E+03  0.00000000000E+00 0. -1.
<mgrwt>
<rscale>  0 0.65692002E+02</rscale>
<asrwt>0</asrwt>
<pdfrwt beam="1">  1        2 0.36951053E-01 0.44790851E+02</pdfrwt>
<pdfrwt beam="2">  1        1 0.20332298E+00 0.96346443E+02</pdfrwt>
<totfact> 0.19032869E+02</totfact>
</mgrwt>
</event>
<event>
 5    1  0.8891499E-003  0.1492654E+03  0.7546771E-02  0.1316386E+00
          1   -1    0    0  501    0 -0.00000000000E+00  0.00000000000E+00  0.12116348287E+03  0.12116348287E+03  0.00000000000E+00 0. -1.
          2   -1    0    0  502    0  0.00000000000E+00 -0.00000000000E+00 -0.31369600878E+04  0.31369600878E+04  0.00000000000E+00 0. -1.
         25    1    1    2    0    0 -0.35411046352E+01 -0.13639195251E+03 -0.53740002718E+03  0.56836528161E+03  0.12500000000E+03 0.  0.
          2    1    1    2  501    0  0.51176714028E+02  0.14221658829E+03  0.51295127123E+02  0.15961141598E+03  0.00000000000E+00 0. -1.
          1    1    1    2  502    0 -0.47635609393E+02 -0.58246357881E+01 -0.25296917049E+04  0.25301468731E+04  0.00000000000E+00 0. -1.
<mgrwt>
<rscale>  0 0.84636299E+02</rscale>
<asrwt>0</asrwt>
<pdfrwt beam="2">  1        2 0.48260922E+00 0.47990391E+02</pdfrwt>
<pdfrwt beam="1">  1        1 0.18640537E-01 0.14926536E+03</pdfrwt>
<totfact> 0.86097149E+01</totfact>
</mgrwt>
</event>
<event>
 5    1  0.8891499E-003  0.1105708E+03  0.7546771E-02  0.1309542E+00
          2   -1    0    0  502    0  0.00000000000E+00  0.00000000000E+00  0.37536420409E+03  0.37536420409E+03  0.00000000000E+00 0. -1.
          1   -1    0    0  501    0 -0.00000000000E+00 -0.00000000000E+00 -0.91551291665E+03  0.91551291665E+03  0.00000000000E+00 0. -1.
         25    1    1    2    0    0 -0.77932944862E+02 -0.13267082918E+03 -0.16379937891E+03  0.25715817961E+03  0.12500000000E+03 0.  0.
          2    1    1    2  501    0  0.86409680755E+02  0.64278194103E+02 -0.69724155680E+03  0.70550982111E+03  0.00000000000E+00 0. -1.
          1    1    1    2  502    0 -0.84767358925E+01  0.68392635077E+02  0.32089222314E+03  0.32820912001E+03  0.00000000000E+00 0. -1.
<mgrwt>
<rscale>  0 0.87293136E+02</rscale>
<asrwt>0</asrwt>
<pdfrwt beam="1">  1        2 0.57748340E-01 0.68915946E+02</pdfrwt>
<pdfrwt beam="2">  1        1 0.14084814E+00 0.11057081E+03</pdfrwt>
<totfact> 0.22964146E+02</totfact>
</mgrwt>
</event>
<event>
 5    1  0.8891499E-003  0.1339369E+03  0.7546771E-02  0.1252333E+00
          2   -1    0    0  502    0  0.00000000000E+00  0.00000000000E+00  0.69996255224E+03  0.69996255224E+03  0.00000000000E+00 0. -1.
         -2   -1    0    0    0  501 -0.00000000000E+00 -0.00000000000E+00 -0.31474457069E+03  0.31474457069E+03  0.00000000000E+00 0.  1.
         25    1    1    2    0    0 -0.59483876460E+02 -0.19229031706E+01 -0.18522600923E+03  0.23124814294E+03  0.12500000000E+03 0.  0.
          1    1    1    2  502    0  0.10380754828E+03  0.89330786552E+02  0.64559316287E+03  0.65995949001E+03  0.00000000000E+00 0. -1.
         -1    1    1    2    0  501 -0.44323671821E+02 -0.87407883382E+02 -0.75149172090E+02  0.12349948999E+03  0.00000000000E+00 0.  1.
<mgrwt>
<rscale>  0 0.11457013E+03</rscale>
<asrwt>0</asrwt>
<pdfrwt beam="1">  1        2 0.10768655E+00 0.13393692E+03</pdfrwt>
<pdfrwt beam="2">  1       -2 0.48422242E-01 0.98003704E+02</pdfrwt>
<totfact> 0.17754561E+02</totfact>
</mgrwt>
</event>
<event>
 5    1  0.8891499E-003  0.3365170E+03  0.7546771E-02  0.1068289E+00
         -1   -1    0    0    0  501 -0.00000000000E+00  0.00000000000E+00  0.13675715865E+03  0.13675715865E+03  0.00000000000E+00 0.  1.
          1   -1    0    0  502    0  0.00000000000E+00 -0.00000000000E+00 -0.20701605012E+03  0.20701605012E+03  0.00000000000E+00 0. -1.
         25    1    1    2    0    0  0.17855434675E+02  0.71459016838E+02  0.86300095516E+02  0.16881325221E+03  0.12500000000E+03 0.  0.
          2    1    1    2  502    0 -0.69336592419E+00 -0.40740367098E+02 -0.10412275558E+03  0.11181147748E+03  0.00000000000E+00 0. -1.
         -2    1    1    2    0  501 -0.17162068751E+02 -0.30718649740E+02 -0.52436231411E+02  0.63148479081E+02  0.00000000000E+00 0.  1.
<mgrwt>
<rscale>  0 0.33651702E+03</rscale>
<asrwt>0</asrwt>
<pdfrwt beam="2">  1        1 0.31848623E-01 0.33651702E+03</pdfrwt>
<pdfrwt beam="1">  1       -1 0.21039563E-01 0.33651702E+03</pdfrwt>
<totfact> 0.26097537E+03</totfact>
</mgrwt>
</event>
<event>
 5    1  0.8891499E-003  0.6303840E+02  0.7546771E-02  0.1403928E+00
         -2   -1    0    0    0  501 -0.00000000000E+00  0.00000000000E+00  0.16745378442E+04  0.16745378442E+04  0.00000000000E+00 0.  1.
          2   -1    0    0  502    0  0.00000000000E+00 -0.00000000000E+00 -0.32934923661E+02  0.32934923661E+02  0.00000000000E+00 0. -1.
         25    1    1    2    0    0 -0.55423212366E+02  0.24352201223E+02  0.68996522414E+03  0.70380520934E+03  0.12500000000E+03 0.  0.
          1    1    1    2  502    0  0.37078873169E+02  0.39833606594E+02  0.49673486802E+01  0.54646441812E+02  0.00000000000E+00 0. -1.
         -1    1    1    2    0  501  0.18344339196E+02 -0.64185807817E+02  0.94667034770E+03  0.94902111669E+03  0.00000000000E+00 0.  1.
<mgrwt>
<rscale>  0 0.58571007E+02</rscale>
<asrwt>0</asrwt>
<pdfrwt beam="2">  1        2 0.50669126E-02 0.54420208E+02</pdfrwt>
<pdfrwt beam="1">  1       -2 0.25762114E+00 0.63038400E+02</pdfrwt>
<totfact> 0.99661540E+01</totfact>
</mgrwt>
</event>
<event>
 5    1  0.8891499E-003  0.1297905E+03  0.7546771E-02  0.1431897E+00
         -1   -1    0    0    0  501 -0.00000000000E+00  0.00000000000E+00  0.32904734596E+03  0.32904734596E+03  0.00000000000E+00 0.  1.
          1   -1    0    0  502    0  0.00000000000E+00 -0.00000000000E+00 -0.19857441155E+03  0.19857441155E+03  0.00000000000E+00 0. -1.
         25    1    1    2    0    0 -0.13079330690E+03 -0.14201121799E+02  0.17140995959E+03  0.24962959607E+03  0.12500000000E+03 0.  0.
          2    1    1    2  502    0  0.12956872295E+03 -0.70655146905E+01 -0.13162695038E+03  0.18483405944E+03  0.00000000000E+00 0. -1.
         -2    1    1    2    0  501  0.12245839499E+01  0.21266636490E+02  0.90689925208E+02  0.93158101997E+02  0.00000000000E+00 0.  1.
<mgrwt>
<rscale>  0 0.52581172E+02</rscale>
<asrwt>0</asrwt>
<pdfrwt beam="2">  1        1 0.30549909E-01 0.12979050E+03</pdfrwt>
<pdfrwt beam="1">  1       -1 0.50622669E-01 0.21301865E+02</pdfrwt>
<totfact> 0.59651257E+02</totfact>
</mgrwt>
</event>
<event>
 5    1  0.8891499E-003  0.6358606E+02  0.7546771E-02  0.1511070E+00
          2   -1    0    0  502    0  0.00000000000E+00  0.00000000000E+00  0.22127819603E+03  0.22127819603E+03  0.00000000000E+00 0. -1.
          1   -1    0    0  501    0 -0.00000000000E+00 -0.00000000000E+00 -0.29340392506E+03  0.29340392506E+03  0.00000000000E+00 0. -1.
         25    1    1    2    0    0 -0.37910740062E+02 -0.45883440587E+02 -0.14992575464E+02  0.13925620866E+03  0.12500000000E+03 0.  0.
          2    1    1    2  501    0  0.18745665634E+02  0.61432798199E+02 -0.21050260839E+03  0.22008347692E+03  0.00000000000E+00 0. -1.
          1    1    1    2  502    0  0.19165074427E+02 -0.15549357612E+02  0.15336945481E+03  0.15534243551E+03  0.00000000000E+00 0. -1.
<mgrwt>
<rscale>  0 0.39614119E+02</rscale>
<asrwt>0</asrwt>
<pdfrwt beam="1">  1        2 0.34042799E-01 0.24679599E+02</pdfrwt>
<pdfrwt beam="2">  1        1 0.45139065E-01 0.63586059E+02</pdfrwt>
<totfact> 0.17715647E+03</totfact>
</mgrwt>
</event>
<event>
 5    1  0.8891499E-003  0.5241063E+02  0.7546771E-02  0.1527716E+00
          2   -1    0    0  502    0  0.00000000000E+00  0.00000000000E+00  0.16004783327E+04  0.16004783327E+04  0.00000000000E+00 0. -1.
          1   -1    0    0  501    0 -0.00000000000E+00 -0.00000000000E+00 -0.41682845959E+03  0.41682845959E+03  0.00000000000E+00 0. -1.
         25    1    1    2    0    0  0.70064682192E+01 -0.39299379953E+02  0.12294442445E+04  0.12364269822E+04  0.12500000000E+03 0.  0.
          2    1    1    2  501    0 -0.33780015921E+02  0.40103737665E+02 -0.41118194943E+03  0.41451175470E+03  0.00000000000E+00 0. -1.
          1    1    1    2  502    0  0.26773547702E+02 -0.80435771227E+00  0.36538757799E+03  0.36636805538E+03  0.00000000000E+00 0. -1.
<mgrwt>
<rscale>  0 0.37468008E+02</rscale>
<asrwt>0</asrwt>
<pdfrwt beam="1">  1        2 0.24622743E+00 0.26785628E+02</pdfrwt>
<pdfrwt beam="2">  1        1 0.64127456E-01 0.52410631E+02</pdfrwt>
<totfact> 0.11959449E+02</totfact>
</mgrwt>
</event>
<event>
 5    1  0.8891499E-003  0.1042889E+03  0.7546771E-02  0.1327024E+00
         -2   -1    0    0    0  501 -0.00000000000E+00  0.00000000000E+00  0.67541423579E+03  0.67541423579E+03  0.00000000000E+00 0.  1.
          2   -1    0    0  502    0  0.00000000000E+00 -0.00000000000E+00 -0.23748734597E+03  0.23748734597E+03  0.00000000000E+00 0. -1.
         25    1    1    2    0    0  0.55117934289E+02  0.12673291641E+03  0.69461785884E+02  0.19886970227E+03  0.12500000000E+03 0.  0.
          1    1    1    2  502    0  0.21612150818E+02 -0.58618501563E+02 -0.16205527909E+03  0.17368110798E+03  0.00000000000E+00 0. -1.
         -1    1    1    2    0  501 -0.76730085107E+02 -0.68114414846E+02  0.53052038303E+03  0.54035077152E+03  0.00000000000E+00 0.  1.
<mgrwt>
<rscale>  0 0.80718773E+02</rscale>
<asrwt>0</asrwt>
<pdfrwt beam="2">  1        2 0.36536515E-01 0.62475706E+02</pdfrwt>
<pdfrwt beam="1">  1       -2 0.10390988E+00 0.10428886E+03</pdfrwt>
<totfact> 0.11249798E+02</totfact>
</mgrwt>
</event>
<event>
 5    1  0.8891499E-003  0.8613598E+02  0.7546771E-02  0.1473133E+00
          2   -1    0    0  502    0  0.00000000000E+00  0.00000000000E+00  0.35325293414E+03  0.35325293414E+03  0.00000000000E+00 0. -1.
          1   -1    0    0  501    0 -0.00000000000E+00 -0.00000000000E+00 -0.46982860284E+03  0.46982860284E+03  0.00000000000E+00 0. -1.
         25    1    1    2    0    0 -0.15875940582E+02 -0.97399155894E+02 -0.39994360503E+03  0.43048638569E+03  0.12500000000E+03 0.  0.
          2    1    1    2  501    0 -0.15981850493E+02  0.17517719090E+02 -0.46232974731E+02  0.51959387793E+02  0.00000000000E+00 0. -1.
          1    1    1    2  502    0  0.31857791075E+02  0.79881436804E+02  0.32960091106E+03  0.34063576349E+03  0.00000000000E+00 0. -1.
<mgrwt>
<rscale>  0 0.45194168E+02</rscale>
<asrwt>0</asrwt>
<pdfrwt beam="1">  1        2 0.54346605E-01 0.86135981E+02</pdfrwt>
<pdfrwt beam="2">  1        1 0.72281324E-01 0.23712655E+02</pdfrwt>
<totfact> 0.64181048E+02</totfact>
</mgrwt>
</event>
<event>
 5    1  0.8891499E-003  0.1286374E+03  0.7546771E-02  0.1266088E+00
          1   -1    0    0  501    0 -0.00000000000E+00  0.00000000000E+00  0.11499189955E+03  0.11499189955E+03  0.00000000000E+00 0. -1.
          2   -1    0    0  502    0  0.00000000000E+00 -0.00000000000E+00 -0.26733020647E+04  0.26733020647E+04  0.00000000000E+00 0. -1.
         25    1    1    2    0    0  0.84778652880E+02  0.67132568043E+02 -0.62237250802E+03  0.64394622479E+03  0.12500000000E+03 0.  0.
          2    1    1    2  501    0 -0.13148308506E+03  0.87739048593E+01  0.61149915341E+02  0.14527248608E+03  0.00000000000E+00 0. -1.
          1    1    1    2  502    0  0.46704432184E+02 -0.75906472902E+02 -0.19970875725E+04  0.19990752534E+04  0.00000000000E+00 0. -1.
<mgrwt>
<rscale>  0 0.10707326E+03</rscale>
<asrwt>0</asrwt>
<pdfrwt beam="2">  1        2 0.41127718E+00 0.89124052E+02</pdfrwt>
<pdfrwt beam="1">  1        1 0.17691064E-01 0.12863737E+03</pdfrwt>
<totfact> 0.14901983E+02</totfact>
</mgrwt>
</event>
<event>
 5    1  0.8891499E-003  0.1285872E+03  0.7546771E-02  0.1362064E+00
          2   -1    0    0  502    0  0.00000000000E+00  0.00000000000E+00  0.87972096647E+02  0.87972096647E+02  0.00000000000E+00 0. -1.
         -2   -1    0    0    0  501 -0.00000000000E+00 -0.00000000000E+00 -0.12776056507E+04  0.12776056507E+04  0.00000000000E+00 0.  1.
         25    1    1    2    0    0  0.40160269629E+02  0.11865941170E+03 -0.34440529529E+03  0.38721171298E+03  0.12500000000E+03 0.  0.
          3    1    1    2  502    0 -0.75389426581E+02 -0.10586172681E+03  0.23260110797E+01  0.12998338806E+03  0.00000000000E+00 0. -1.
         -1    1    1    2    0  501  0.35229156952E+02 -0.12797684887E+02 -0.84755426979E+03  0.84838264627E+03  0.00000000000E+00 0.  1.
<mgrwt>
<rscale>  0 0.69423787E+02</rscale>
<asrwt>0</asrwt>
<pdfrwt beam="1">  1        2 0.13534169E-01 0.12858724E+03</pdfrwt>
<pdfrwt beam="2">  1       -2 0.19655472E+00 0.37481652E+02</pdfrwt>
<totfact> 0.74020991E+01</totfact>
</mgrwt>
</event>
<event>
 5    1  0.8891499E-003  0.6978530E+02  0.7546771E-02  0.1366452E+00
          2   -1    0    0  502    0  0.00000000000E+00  0.00000000000E+00  0.25454946747E+03  0.25454946747E+03  0.00000000000E+00 0. -1.
          1   -1    0    0  501    0 -0.00000000000E+00 -0.00000000000E+00 -0.46064539131E+03  0.46064539131E+03  0.00000000000E+00 0. -1.
         25    1    1    2    0    0  0.72487360619E+02 -0.47735218027E+02  0.85307628511E+00  0.15218014400E+03  0.12500000000E+03 0.  0.
          2    1    1    2  501    0 -0.67741675459E+02 -0.18674487182E+02 -0.37538096734E+03  0.38190121983E+03  0.00000000000E+00 0. -1.
          1    1    1    2  502    0 -0.47456851597E+01  0.66409705208E+02  0.16843196721E+03  0.18111349495E+03  0.00000000000E+00 0. -1.
<mgrwt>
<rscale>  0 0.68163329E+02</rscale>
<asrwt>0</asrwt>
<pdfrwt beam="1">  1        2 0.39161457E-01 0.66579054E+02</pdfrwt>
<pdfrwt beam="2">  1        1 0.70868521E-01 0.69785302E+02</pdfrwt>
<totfact> 0.90531354E+02</totfact>
</mgrwt>
</event>
<event>
 5    1  0.8891499E-003  0.1448299E+03  0.7546771E-02  0.1407273E+00
          1   -1    0    0  501    0 -0.00000000000E+00  0.00000000000E+00  0.13979159412E+03  0.13979159412E+03  0.00000000000E+00 0. -1.
          2   -1    0    0  502    0  0.00000000000E+00 -0.00000000000E+00 -0.88563533929E+03  0.88563533929E+03  0.00000000000E+00 0. -1.
         25    1    1    2    0    0 -0.12923905814E+03 -0.12785620048E+02 -0.11013913152E+03  0.21123880922E+03  0.12500000000E+03 0.  0.
          2    1    1    2  501    0  0.14877273335E+03  0.25065074167E+02  0.25132417933E+02  0.15294843106E+03  0.00000000000E+00 0. -1.
          1    1    1    2  502    0 -0.19533675214E+02 -0.12279454119E+02 -0.66083703158E+03  0.66123969313E+03  0.00000000000E+00 0. -1.
<mgrwt>
<rscale>  0 0.57806724E+02</rscale>
<asrwt>0</asrwt>
<pdfrwt beam="2">  1        2 0.13625159E+00 0.23072699E+02</pdfrwt>
<pdfrwt beam="1">  1        1 0.21506399E-01 0.14482992E+03</pdfrwt>
<totfact> 0.10739033E+03</totfact>
</mgrwt>
</event>
<event>
 5    1  0.8891499E-003  0.2912124E+02  0.7546771E-02  0.1663241E+00
          1   -1    0    0  501    0 -0.00000000000E+00  0.00000000000E+00  0.19493210116E+02  0.19493210116E+02  0.00000000000E+00 0. -1.
          2   -1    0    0  502    0  0.00000000000E+00 -0.00000000000E+00 -0.17059749049E+04  0.17059749049E+04  0.00000000000E+00 0. -1.
         25    1    1    2    0    0  0.44982707772E+01 -0.24272903555E+02 -0.41588726770E+03  0.43496738697E+03  0.12500000000E+03 0.  0.
          2    1    1    2  501    0 -0.24395924304E+02  0.16967456641E+02 -0.12517174903E+02  0.32244927897E+02  0.00000000000E+00 0. -1.
          1    1    1    2  502    0  0.19897653527E+02  0.73054469147E+01 -0.12580772522E+04  0.12582558002E+04  0.00000000000E+00 0. -1.
<mgrwt>
<rscale>  0 0.24844809E+02</rscale>
<asrwt>0</asrwt>
<pdfrwt beam="2">  1        2 0.26245763E+00 0.21196372E+02</pdfrwt>
<pdfrwt beam="1">  1        1 0.29989560E-02 0.29121237E+02</pdfrwt>
<totfact> 0.48160009E+03</totfact>
</mgrwt>
</event>
<event>
 5    1  0.8891499E-003  0.2113535E+03  0.7546771E-02  0.1297491E+00
          1   -1    0    0  502    0  0.00000000000E+00  0.00000000000E+00  0.26260706850E+03  0.26260706850E+03  0.00000000000E+00 0. -1.
         -1   -1    0    0    0  501 -0.00000000000E+00 -0.00000000000E+00 -0.59505057532E+03  0.59505057532E+03  0.00000000000E+00 0.  1.
         25    1    1    2    0    0 -0.11640004645E+03 -0.20005001665E+03 -0.30988684629E+02  0.26486652969E+03  0.12500000000E+03 0.  0.
          2    1    1    2  502    0 -0.13355664089E+02  0.37985752049E+02  0.11804845740E+03  0.12472661871E+03  0.00000000000E+00 0. -1.
         -2    1    1    2    0  501  0.12975571054E+03  0.16206426461E+03 -0.41950327959E+03  0.46806449542E+03  0.00000000000E+00 0.  1.
<mgrwt>
<rscale>  0 0.92250759E+02</rscale>
<asrwt>0</asrwt>
<pdfrwt beam="1">  1        1 0.40401088E-01 0.40265259E+02</pdfrwt>
<pdfrwt beam="2">  1       -1 0.91546241E-01 0.21135348E+03</pdfrwt>
<totfact> 0.12796838E+02</totfact>
</mgrwt>
</event>
<event>
 5    1  0.8891499E-003  0.8597200E+02  0.7546771E-02  0.1475154E+00
          2   -1    0    0  502    0  0.00000000000E+00  0.00000000000E+00  0.24434147405E+04  0.24434147405E+04  0.00000000000E+00 0. -1.
         -2   -1    0    0    0  501 -0.00000000000E+00 -0.00000000000E+00 -0.15410513455E+03  0.15410513455E+03  0.00000000000E+00 0.  1.
         25    1    1    2    0    0 -0.64717929687E+02 -0.73910525887E+01  0.55932220838E+03  0.57680964873E+03  0.12500000000E+03 0.  0.
          1    1    1    2  502    0  0.88135438195E+02  0.75897179776E+01  0.18733550620E+04  0.18754425204E+04  0.00000000000E+00 0. -1.
         -1    1    1    2    0  501 -0.23417508508E+02 -0.19866538887E+00 -0.14336766441E+03  0.14526770588E+03  0.00000000000E+00 0.  1.
<mgrwt>
<rscale>  0 0.44870063E+02</rscale>
<asrwt>0</asrwt>
<pdfrwt beam="1">  1        2 0.37590993E+00 0.85972001E+02</pdfrwt>
<pdfrwt beam="2">  1       -2 0.23708484E-01 0.23418351E+02</pdfrwt>
<totfact> 0.71795558E+01</totfact>
</mgrwt>
</event>
<event>
 5    1  0.8891499E-003  0.8933835E+02  0.7546771E-02  0.1318467E+00
          1   -1    0    0  501    0 -0.00000000000E+00  0.00000000000E+00  0.22605944923E+04  0.22605944923E+04  0.00000000000E+00 0. -1.
          2   -1    0    0  502    0  0.00000000000E+00 -0.00000000000E+00 -0.41903719447E+03  0.41903719447E+03  0.00000000000E+00 0. -1.
         25    1    1    2    0    0 -0.11765764303E+03 -0.19503567040E+02  0.39250484785E+02  0.17717028714E+03  0.12500000000E+03 0.  0.
          2    1    1    2  501    0  0.75855385237E+02 -0.47175580324E+02  0.21470206192E+04  0.21488781059E+04  0.00000000000E+00 0. -1.
          1    1    1    2  502    0  0.41802257789E+02  0.66679147364E+02 -0.34471380614E+03  0.35358329372E+03  0.00000000000E+00 0. -1.
<mgrwt>
<rscale>  0 0.83850114E+02</rscale>
<asrwt>0</asrwt>
<pdfrwt beam="2">  1        2 0.64467262E-01 0.78699031E+02</pdfrwt>
<pdfrwt beam="1">  1        1 0.34778376E+00 0.89338351E+02</pdfrwt>
<totfact> 0.27641910E+01</totfact>
</mgrwt>
</event>
<event>
 5    1  0.8891499E-003  0.5370264E+02  0.7546771E-02  0.1445174E+00
          1   -1    0    0  501    0 -0.00000000000E+00  0.00000000000E+00  0.11337188996E+04  0.11337188996E+04  0.00000000000E+00 0. -1.
          2   -1    0    0  502    0  0.00000000000E+00 -0.00000000000E+00 -0.10006425001E+04  0.10006425001E+04  0.00000000000E+00 0. -1.
         25    1    1    2    0    0  0.97888443352E+02  0.12153078913E+02  0.24469970333E+02  0.16110128527E+03  0.12500000000E+03 0.  0.
          2    1    1    2  501    0 -0.53249713689E+02  0.12603532524E+01  0.10396685174E+04  0.10410320584E+04  0.00000000000E+00 0. -1.
          1    1    1    2  502    0 -0.44638729664E+02 -0.13413432166E+02 -0.93106208820E+03  0.93222805602E+03  0.00000000000E+00 0. -1.
<mgrwt>
<rscale>  0 0.50031045E+02</rscale>
<asrwt>0</asrwt>
<pdfrwt beam="2">  1        2 0.15394500E+00 0.46610475E+02</pdfrwt>
<pdfrwt beam="1">  1        1 0.17441829E+00 0.53702637E+02</pdfrwt>
<totfact> 0.56633347E+01</totfact>
</mgrwt>
</event>
<event>
 5    1  0.8891499E-003  0.9242113E+02  0.7546771E-02  0.1400781E+00
          2   -1    0    0  502    0  0.00000000000E+00  0.00000000000E+00  0.76229176805E+03  0.76229176805E+03  0.00000000000E+00 0. -1.
          1   -1    0    0  501    0 -0.00000000000E+00 -0.00000000000E+00 -0.44585479548E+02  0.44585479548E+02  0.00000000000E+00 0. -1.
         25    1    1    2    0    0 -0.86314578948E+02 -0.37758889486E+02  0.13020021818E+03  0.20360018931E+03  0.12500000000E+03 0.  0.
          2    1    1    2  501    0  0.23021651046E+02 -0.30298032800E+02  0.10008881827E+03  0.10707818989E+03  0.00000000000E+00 0. -1.
          1    1    1    2  502    0  0.63292927901E+02  0.68056922287E+02  0.48741725205E+03  0.49619886839E+03  0.00000000000E+00 0. -1.
<mgrwt>
<rscale>  0 0.59302816E+02</rscale>
<asrwt>0</asrwt>
<pdfrwt beam="1">  1        2 0.11727565E+00 0.38052164E+02</pdfrwt>
<pdfrwt beam="2">  1        1 0.68593051E-02 0.92421130E+02</pdfrwt>
<totfact> 0.54314287E+03</totfact>
</mgrwt>
</event>
<event>
 5    1  0.8891499E-003  0.1221757E+03  0.7546771E-02  0.1309401E+00
          2   -1    0    0  502    0  0.00000000000E+00  0.00000000000E+00  0.11363450763E+04  0.11363450763E+04  0.00000000000E+00 0. -1.
          1   -1    0    0  501    0 -0.00000000000E+00 -0.00000000000E+00 -0.11781745749E+03  0.11781745749E+03  0.00000000000E+00 0. -1.
         25    1    1    2    0    0 -0.69037778843E+02  0.11046278194E+03  0.33310004234E+03  0.37887844926E+03  0.12500000000E+03 0.  0.
          2    1    1    2  501    0  0.77796041523E+01 -0.12260472736E+03 -0.53304410690E+02  0.13391714457E+03  0.00000000000E+00 0. -1.
          1    1    1    2  502    0  0.61258174691E+02  0.12141945419E+02  0.73873198714E+03  0.74136693994E+03  0.00000000000E+00 0. -1.
<mgrwt>
<rscale>  0 0.87349086E+02</rscale>
<asrwt>0</asrwt>
<pdfrwt beam="1">  1        2 0.17482231E+00 0.62449906E+02</pdfrwt>
<pdfrwt beam="2">  1        1 0.18125763E-01 0.12217573E+03</pdfrwt>
<totfact> 0.91125039E+02</totfact>
</mgrwt>
</event>
<event>
 5    1  0.8891499E-003  0.5381470E+02  0.7546771E-02  0.1461631E+00
          1   -1    0    0  501    0 -0.00000000000E+00  0.00000000000E+00  0.32599851433E+04  0.32599851433E+04  0.00000000000E+00 0. -1.
          2   -1    0    0  502    0  0.00000000000E+00 -0.00000000000E+00 -0.71261865821E+02  0.71261865821E+02  0.00000000000E+00 0. -1.
         25    1    1    2    0    0 -0.62480470955E+02 -0.57454608227E+01  0.22608810474E+04  0.22652030660E+04  0.12500000000E+03 0.  0.
          2    1    1    2  501    0  0.18518777830E+02  0.36832871916E+02  0.98595802712E+03  0.98681955636E+03  0.00000000000E+00 0. -1.
          1    1    1    2  502    0  0.43961693125E+02 -0.31087411093E+02 -0.58115797060E+02  0.79224386769E+02  0.00000000000E+00 0. -1.
<mgrwt>
<rscale>  0 0.47101799E+02</rscale>
<asrwt>0</asrwt>
<pdfrwt beam="2">  1        2 0.10963366E-01 0.53814699E+02</pdfrwt>
<pdfrwt beam="1">  1        1 0.50153606E+00 0.41226273E+02</pdfrwt>
<totfact> 0.47311804E+01</totfact>
</mgrwt>
</event>
<event>
 5    1  0.8891499E-003  0.9919407E+02  0.7546771E-02  0.1385326E+00
          1   -1    0    0  502    0  0.00000000000E+00  0.00000000000E+00  0.18544225212E+03  0.18544225212E+03  0.00000000000E+00 0. -1.
         -1   -1    0    0    0  501 -0.00000000000E+00 -0.00000000000E+00 -0.40788621376E+03  0.40788621376E+03  0.00000000000E+00 0.  1.
         25    1    1    2    0    0  0.84251077725E+02 -0.23310393241E+02  0.34837967806E+02  0.15646182452E+03  0.12500000000E+03 0.  0.
          2    1    1    2  502    0  0.15431747634E+02  0.37033123377E+02  0.77511422654E+02  0.87278930470E+02  0.00000000000E+00 0. -1.
         -2    1    1    2    0  501 -0.99682825359E+02 -0.13722730136E+02 -0.33479335210E+03  0.34958771089E+03  0.00000000000E+00 0.  1.
<mgrwt>
<rscale>  0 0.63084365E+02</rscale>
<asrwt>0</asrwt>
<pdfrwt beam="1">  1        1 0.28529577E-01 0.40119709E+02</pdfrwt>
<pdfrwt beam="2">  1       -1 0.62751725E-01 0.99194067E+02</pdfrwt>
<totfact> 0.42383338E+02</totfact>
</mgrwt>
</event>
<event>
 5    1  0.8891499E-003  0.4821161E+02  0.7546771E-02  0.1469318E+00
         -1   -1    0    0    0  502 -0.00000000000E+00  0.00000000000E+00  0.33053998090E+03  0.33053998090E+03  0.00000000000E+00 0.  1.
         -2   -1    0    0    0  501  0.00000000000E+00 -0.00000000000E+00 -0.25868891859E+03  0.25868891859E+03  0.00000000000E+00 0.  1.
         25    1    1    2    0    0  0.25682718358E+02 -0.18018704260E+02 -0.14223901448E+03  0.19194064959E+03  0.12500000000E+03 0.  0.
         -2    1    1    2    0  502  0.30651135326E+02  0.30919101500E+02  0.29481294792E+03  0.29801033069E+03  0.00000000000E+00 0.  1.
         -1    1    1    2    0  501 -0.56333853683E+02 -0.12900397240E+02 -0.80722871134E+02  0.99277919216E+02  0.00000000000E+00 0.  1.
<mgrwt>
<rscale>  0 0.45814799E+02</rscale>
<asrwt>0</asrwt>
<pdfrwt beam="2">  1       -2 0.39798295E-01 0.48211610E+02</pdfrwt>
<pdfrwt beam="1">  1       -1 0.50852305E-01 0.43537144E+02</pdfrwt>
<totfact> 0.17776053E+02</totfact>
</mgrwt>
</event>
<event>
 5    1  0.8891499E-003  0.7121289E+02  0.7546771E-02  0.1474512E+00
          2   -1    0    0  502    0  0.00000000000E+00  0.00000000000E+00  0.19387197614E+04  0.19387197614E+04  0.00000000000E+00 0. -1.
         -2   -1    0    0    0  501 -0.00000000000E+00 -0.00000000000E+00 -0.61243735458E+03  0.61243735458E+03  0.00000000000E+00 0.  1.
         25    1    1    2    0    0  0.57196663015E+02 -0.62268895733E+02  0.43921953948E+02  0.15717191758E+03  0.12500000000E+03 0.  0.
          1    1    1    2  502    0  0.49745444252E+01  0.27962315296E+02  0.18357945936E+04  0.18360142775E+04  0.00000000000E+00 0. -1.
         -1    1    1    2    0  501 -0.62171207440E+02  0.34306580437E+02 -0.55343414072E+03  0.55797092094E+03  0.00000000000E+00 0.  1.
<mgrwt>
<rscale>  0 0.44972689E+02</rscale>
<asrwt>0</asrwt>
<pdfrwt beam="1">  1        2 0.29826457E+00 0.28401359E+02</pdfrwt>
<pdfrwt beam="2">  1       -2 0.94221133E-01 0.71212889E+02</pdfrwt>
<totfact> 0.10588820E+01</totfact>
</mgrwt>
</event>
<event>
 5    1  0.8891499E-003  0.3910246E+02  0.7546771E-02  0.1537564E+00
          2   -1    0    0  502    0  0.00000000000E+00  0.00000000000E+00  0.14795239124E+04  0.14795239124E+04  0.00000000000E+00 0. -1.
          1   -1    0    0  501    0 -0.00000000000E+00 -0.00000000000E+00 -0.52486248565E+03  0.52486248565E+03  0.00000000000E+00 0. -1.
         25    1    1    2    0    0  0.56504400344E+02 -0.40622173355E+02 -0.14919734127E+03  0.20670692990E+03  0.12500000000E+03 0.  0.
          2    1    1    2  501    0 -0.35133283128E+02  0.14628238825E+02 -0.34567074495E+03  0.34775939509E+03  0.00000000000E+00 0. -1.
          1    1    1    2  502    0 -0.21371117217E+02  0.25993934530E+02  0.14495295130E+04  0.14499200730E+04  0.00000000000E+00 0. -1.
<mgrwt>
<rscale>  0 0.36274623E+02</rscale>
<asrwt>0</asrwt>
<pdfrwt beam="1">  1        2 0.22761906E+00 0.33651289E+02</pdfrwt>
<pdfrwt beam="2">  1        1 0.80748075E-01 0.39102462E+02</pdfrwt>
<totfact> 0.10113944E+02</totfact>
</mgrwt>
</event>
<event>
 5    1  0.8891499E-003  0.2598010E+03  0.7546771E-02  0.1239161E+00
         -2   -1    0    0    0  501 -0.00000000000E+00  0.00000000000E+00  0.28896902977E+03  0.28896902977E+03  0.00000000000E+00 0.  1.
          2   -1    0    0  502    0  0.00000000000E+00 -0.00000000000E+00 -0.74242063297E+03  0.74242063297E+03  0.00000000000E+00 0. -1.
         25    1    1    2    0    0  0.20495994109E+03  0.55123492113E+02  0.90966426722E+02  0.26257773635E+03  0.12500000000E+03 0.  0.
          1    1    1    2  502    0 -0.25245922535E+03 -0.87852301574E+02 -0.61916078103E+03  0.67439881385E+03  0.00000000000E+00 0. -1.
         -1    1    1    2    0  501  0.47499284264E+02  0.32728809461E+02  0.74742751120E+02  0.94413112539E+02  0.00000000000E+00 0.  1.
<mgrwt>
<rscale>  0 0.12241799E+03</rscale>
<asrwt>0</asrwt>
<pdfrwt beam="2">  1        2 0.11421856E+00 0.25980100E+03</pdfrwt>
<pdfrwt beam="1">  1       -2 0.44456774E-01 0.57683247E+02</pdfrwt>
<totfact> 0.19014647E+02</totfact>
</mgrwt>
</event>
<event>
 5    1  0.8891499E-003  0.9171487E+02  0.7546771E-02  0.1378926E+00
          2   -1    0    0  502    0  0.00000000000E+00  0.00000000000E+00  0.10435764590E+04  0.10435764590E+04  0.00000000000E+00 0. -1.
         -2   -1    0    0    0  501 -0.00000000000E+00 -0.00000000000E+00 -0.35722662726E+02  0.35722662726E+02  0.00000000000E+00 0.  1.
         25    1    1    2    0    0  0.66934708641E+02  0.70813068067E+02  0.31672776275E+03  0.35416976371E+03  0.12500000000E+03 0.  0.
          3    1    1    2  502    0 -0.24967587726E+02 -0.88924992528E+02  0.66715159898E+03  0.67351487790E+03  0.00000000000E+00 0. -1.
         -1    1    1    2    0  501 -0.41967120915E+02  0.18111924462E+02  0.23974434540E+02  0.51614480111E+02  0.00000000000E+00 0.  1.
<mgrwt>
<rscale>  0 0.64746918E+02</rscale>
<asrwt>0</asrwt>
<pdfrwt beam="1">  1        2 0.16055020E+00 0.91714872E+02</pdfrwt>
<pdfrwt beam="2">  1       -2 0.54957951E-02 0.45708654E+02</pdfrwt>
<totfact> 0.37675218E+03</totfact>
</mgrwt>
</event>
<event>
 5    1  0.8891499E-003  0.4351112E+02  0.7546771E-02  0.1514238E+00
          2   -1    0    0  502    0  0.00000000000E+00  0.00000000000E+00  0.24035036390E+03  0.24035036390E+03  0.00000000000E+00 0. -1.
          1   -1    0    0  501    0 -0.00000000000E+00 -0.00000000000E+00 -0.23091758125E+04  0.23091758125E+04  0.00000000000E+00 0. -1.
         25    1    1    2    0    0  0.56950729214E+02 -0.51691962676E+02 -0.15350566859E+03  0.21237804701E+03  0.12500000000E+03 0.  0.
          2    1    1    2  501    0 -0.36861738241E+02  0.22662407879E+02 -0.21245348666E+04  0.21249754756E+04  0.00000000000E+00 0. -1.
          1    1    1    2  502    0 -0.20088990973E+02  0.29029554797E+02  0.20921508653E+03  0.21217265385E+03  0.00000000000E+00 0. -1.
<mgrwt>
<rscale>  0 0.39192616E+02</rscale>
<asrwt>0</asrwt>
<pdfrwt beam="1">  1        2 0.36976978E-01 0.35302728E+02</pdfrwt>
<pdfrwt beam="2">  1        1 0.35525783E+00 0.43511117E+02</pdfrwt>
<totfact> 0.50303096E+01</totfact>
</mgrwt>
</event>
<event>
 5    1  0.8891499E-003  0.4294147E+02  0.7546771E-02  0.1546585E+00
         -2   -1    0    0    0  501 -0.00000000000E+00  0.00000000000E+00  0.12972416460E+03  0.12972416460E+03  0.00000000000E+00 0.  1.
          2   -1    0    0  502    0  0.00000000000E+00 -0.00000000000E+00 -0.11548228840E+04  0.11548228840E+04  0.00000000000E+00 0. -1.
         25    1    1    2    0    0  0.31345538173E+02  0.61700019726E+02 -0.91233181246E+03  0.92345209471E+03  0.12500000000E+03 0.  0.
          1    1    1    2  502    0 -0.20654598850E+02 -0.20213852999E+02 -0.23231322809E+03  0.23410392618E+03  0.00000000000E+00 0. -1.
         -1    1    1    2    0  501 -0.10690939323E+02 -0.41486166727E+02  0.11954632116E+03  0.12699102770E+03  0.00000000000E+00 0.  1.
<mgrwt>
<rscale>  0 0.35227974E+02</rscale>
<asrwt>0</asrwt>
<pdfrwt beam="2">  1        2 0.17766505E+00 0.28900040E+02</pdfrwt>
<pdfrwt beam="1">  1       -2 0.19957565E-01 0.42941468E+02</pdfrwt>
<totfact> 0.48149010E+02</totfact>
</mgrwt>
</event>
<event>
 5    1  0.8891499E-003  0.1041874E+03  0.7546771E-02  0.1400684E+00
         -2   -1    0    0    0  501  0.00000000000E+00  0.00000000000E+00  0.91937255209E+02  0.91937255209E+02  0.00000000000E+00 0.  1.
         -1   -1    0    0    0  502 -0.00000000000E+00 -0.00000000000E+00 -0.19051785731E+04  0.19051785731E+04  0.00000000000E+00 0.  1.
         25    1    1    2    0    0  0.29950478025E+02  0.11095837268E+03 -0.17595404600E+03  0.24452733570E+03  0.12500000000E+03 0.  0.
         -2    1    1    2    0  502 -0.32744315022E+02 -0.83033207760E+01 -0.16488954390E+04  0.16492414329E+04  0.00000000000E+00 0.  1.
         -1    1    1    2    0  501  0.27938369971E+01 -0.10265505190E+03  0.11608167097E+02  0.10334705970E+03  0.00000000000E+00 0.  1.
<mgrwt>
<rscale>  0 0.59325577E+02</rscale>
<asrwt>0</asrwt>
<pdfrwt beam="1">  1       -2 0.14144193E-01 0.10418744E+03</pdfrwt>
<pdfrwt beam="2">  1       -1 0.29310439E+00 0.33780694E+02</pdfrwt>
<totfact> 0.14836360E+01</totfact>
</mgrwt>
</event>
<event>
 5    1  0.8891499E-003  0.1794739E+03  0.7546771E-02  0.1381534E+00
          1   -1    0    0  501    0 -0.00000000000E+00  0.00000000000E+00  0.18003435067E+04  0.18003435067E+04  0.00000000000E+00 0. -1.
          2   -1    0    0  502    0  0.00000000000E+00 -0.00000000000E+00 -0.92197823273E+03  0.92197823273E+03  0.00000000000E+00 0. -1.
         25    1    1    2    0    0  0.14818075661E+03 -0.97053281930E+02  0.39423282840E+03  0.44991265725E+03  0.12500000000E+03 0.  0.
          2    1    1    2  501    0  0.13320303972E+02  0.18586504201E+02  0.13691601706E+04  0.13693511096E+04  0.00000000000E+00 0. -1.
          1    1    1    2  502    0 -0.16150106058E+03  0.78466777729E+02 -0.88502772502E+03  0.90305797258E+03  0.00000000000E+00 0. -1.
<mgrwt>
<rscale>  0 0.64062362E+02</rscale>
<asrwt>0</asrwt>
<pdfrwt beam="2">  1        2 0.14184281E+00 0.17947390E+03</pdfrwt>
<pdfrwt beam="1">  1        1 0.27697592E+00 0.22866758E+02</pdfrwt>
<totfact> 0.25047704E+01</totfact>
</mgrwt>
</event>
<event>
 5    1  0.8891499E-003  0.5537257E+02  0.7546771E-02  0.1426896E+00
         -2   -1    0    0    0  501 -0.00000000000E+00  0.00000000000E+00  0.17214272067E+03  0.17214272067E+03  0.00000000000E+00 0.  1.
          2   -1    0    0  502    0  0.00000000000E+00 -0.00000000000E+00 -0.99524337210E+03  0.99524337210E+03  0.00000000000E+00 0. -1.
         25    1    1    2    0    0  0.40217154319E+02 -0.70976766837E+02 -0.13757865184E+03  0.20299755263E+03  0.12500000000E+03 0.  0.
          3    1    1    2  502    0 -0.51248225092E+02  0.20302085905E+02 -0.81917435218E+03  0.82102690245E+03  0.00000000000E+00 0. -1.
         -1    1    1    2    0  501  0.11031070773E+02  0.50674680932E+02  0.13365235259E+03  0.14336163769E+03  0.00000000000E+00 0.  1.
<mgrwt>
<rscale>  0 0.53588252E+02</rscale>
<asrwt>0</asrwt>
<pdfrwt beam="2">  1        2 0.15311436E+00 0.55372574E+02</pdfrwt>
<pdfrwt beam="1">  1       -2 0.26483496E-01 0.51861429E+02</pdfrwt>
<totfact> 0.35451550E+02</totfact>
</mgrwt>
</event>
<event>
 5    1  0.8891499E-003  0.6006396E+02  0.7546771E-02  0.1428653E+00
          2   -1    0    0  502    0  0.00000000000E+00  0.00000000000E+00  0.30843423907E+03  0.30843423907E+03  0.00000000000E+00 0. -1.
          1   -1    0    0  501    0 -0.00000000000E+00 -0.00000000000E+00 -0.63507612543E+03  0.63507612543E+03  0.00000000000E+00 0. -1.
         25    1    1    2    0    0 -0.16988707659E+02  0.43360628365E+01  0.21241691228E+02  0.12799854325E+03  0.12500000000E+03 0.  0.
          2    1    1    2  501    0 -0.46494760377E+02 -0.79874164712E+01 -0.57639272536E+03  0.57832009771E+03  0.00000000000E+00 0. -1.
          1    1    1    2  502    0  0.63483468036E+02  0.36513536347E+01  0.22850914777E+03  0.23719172353E+03  0.00000000000E+00 0. -1.
<mgrwt>
<rscale>  0 0.53231279E+02</rscale>
<asrwt>0</asrwt>
<pdfrwt beam="1">  1        2 0.47451422E-01 0.60063964E+02</pdfrwt>
<pdfrwt beam="2">  1        1 0.97704019E-01 0.47175858E+02</pdfrwt>
<totfact> 0.49639659E+02</totfact>
</mgrwt>
</event>
<event>
 5    1  0.8891499E-003  0.6339044E+02  0.7546771E-02  0.1465829E+00
          2   -1    0    0  502    0  0.00000000000E+00  0.00000000000E+00  0.56004028329E+03  0.56004028329E+03  0.00000000000E+00 0. -1.
          1   -1    0    0  501    0 -0.00000000000E+00 -0.00000000000E+00 -0.42354210669E+03  0.42354210669E+03  0.00000000000E+00 0. -1.
         25    1    1    2    0    0  0.87715875710E+02  0.62984397580E+01  0.21776886956E+03  0.26604891607E+03  0.12500000000E+03 0.  0.
          2    1    1    2  501    0 -0.61350260900E+02  0.15094459498E+02 -0.39598470847E+03  0.40099325002E+03  0.00000000000E+00 0. -1.
          1    1    1    2  502    0 -0.26365614810E+02 -0.21392899256E+02  0.31471401551E+03  0.31654022389E+03  0.00000000000E+00 0. -1.
<mgrwt>
<rscale>  0 0.46392795E+02</rscale>
<asrwt>0</asrwt>
<pdfrwt beam="1">  1        2 0.86160043E-01 0.33952935E+02</pdfrwt>
<pdfrwt beam="2">  1        1 0.65160324E-01 0.63390439E+02</pdfrwt>
<totfact> 0.44656599E+02</totfact>
</mgrwt>
</event>
<event>
 5    1  0.8891499E-003  0.1331415E+03  0.7546771E-02  0.1244759E+00
          2   -1    0    0  502    0  0.00000000000E+00  0.00000000000E+00  0.78464026877E+03  0.78464026877E+03  0.00000000000E+00 0. -1.
          1   -1    0    0  501    0 -0.00000000000E+00 -0.00000000000E+00 -0.37471455914E+03  0.37471455914E+03  0.00000000000E+00 0. -1.
         25    1    1    2    0    0 -0.35429192271E+02 -0.15286018964E+02 -0.90536188506E+02  0.15909334200E+03  0.12500000000E+03 0.  0.
          2    1    1    2  501    0 -0.10210976345E+03  0.29757703619E+02 -0.23180983182E+03  0.25504455071E+03  0.00000000000E+00 0. -1.
          1    1    1    2  502    0  0.13753895572E+03 -0.14471684655E+02  0.73227172996E+03  0.74521693519E+03  0.00000000000E+00 0. -1.
<mgrwt>
<rscale>  0 0.11899831E+03</rscale>
<asrwt>0</asrwt>
<pdfrwt beam="1">  1        2 0.12071389E+00 0.13314147E+03</pdfrwt>
<pdfrwt beam="2">  1        1 0.57648394E-01 0.10635753E+03</pdfrwt>
<totfact> 0.33953183E+02</totfact>
</mgrwt>
</event>
<event>
 5    1  0.8891499E-003  0.1083305E+03  0.7546771E-02  0.1293448E+00
          1   -1    0    0  501    0 -0.00000000000E+00  0.00000000000E+00  0.24389187962E+03  0.24389187962E+03  0.00000000000E+00 0. -1.
          2   -1    0    0  502    0  0.00000000000E+00 -0.00000000000E+00 -0.68296269865E+03  0.68296269865E+03  0.00000000000E+00 0. -1.
         25    1    1    2    0    0 -0.15537561507E+03  0.49606246110E+02 -0.34525012563E+03  0.40177731476E+03  0.12500000000E+03 0.  0.
          2    1    1    2  501    0  0.59885669655E+02 -0.55373146430E+02  0.20004448642E+03  0.21603304220E+03  0.00000000000E+00 0. -1.
          1    1    1    2  502    0  0.95489945417E+02  0.57669003199E+01 -0.29386517982E+03  0.30904422131E+03  0.00000000000E+00 0. -1.
<mgrwt>
<rscale>  0 0.93998591E+02</rscale>
<asrwt>0</asrwt>
<pdfrwt beam="2">  1        2 0.10507118E+00 0.10833055E+03</pdfrwt>
<pdfrwt beam="1">  1        1 0.37521828E-01 0.81562729E+02</pdfrwt>
<totfact> 0.68309426E+02</totfact>
</mgrwt>
</event>
<event>
 5    1  0.8891499E-003  0.1054654E+03  0.7546771E-02  0.1314204E+00
          2   -1    0    0  502    0  0.00000000000E+00  0.00000000000E+00  0.31306779201E+04  0.31306779201E+04  0.00000000000E+00 0. -1.
          1   -1    0    0  501    0 -0.00000000000E+00 -0.00000000000E+00 -0.74941752073E+03  0.74941752073E+03  0.00000000000E+00 0. -1.
         25    1    1    2    0    0  0.47514054895E+02  0.69813374171E+02  0.80189752177E+03  0.81596331293E+03  0.12500000000E+03 0.  0.
          2    1    1    2  501    0  0.59642142161E+02 -0.35226036775E+02 -0.73939972009E+03  0.74263719598E+03  0.00000000000E+00 0. -1.
          1    1    1    2  502    0 -0.10715619706E+03 -0.34587337396E+02  0.23187625977E+04  0.23214949319E+04  0.00000000000E+00 0. -1.
<mgrwt>
<rscale>  0 0.85471496E+02</rscale>
<asrwt>0</asrwt>
<pdfrwt beam="1">  1        2 0.48164275E+00 0.10546536E+03</pdfrwt>
<pdfrwt beam="2">  1        1 0.11529501E+00 0.69268021E+02</pdfrwt>
<totfact> 0.75312105E+00</totfact>
</mgrwt>
</event>
<event>
 5    1  0.8891499E-003  0.6070498E+02  0.7546771E-02  0.1408133E+00
          2   -1    0    0  502    0  0.00000000000E+00  0.00000000000E+00  0.25529080258E+04  0.25529080258E+04  0.00000000000E+00 0. -1.
          1   -1    0    0  501    0 -0.00000000000E+00 -0.00000000000E+00 -0.35726072581E+03  0.35726072581E+03  0.00000000000E+00 0. -1.
         25    1    1    2    0    0 -0.11049636100E+03 -0.27616522333E+02  0.28534316920E+03  0.33168937624E+03  0.12500000000E+03 0.  0.
          2    1    1    2  501    0  0.56116522802E+02  0.21915957836E+02 -0.33103560609E+03  0.33647280104E+03  0.00000000000E+00 0. -1.
          1    1    1    2  502    0  0.54379838199E+02  0.57005644969E+01  0.22413397368E+04  0.22420065743E+04  0.00000000000E+00 0. -1.
<mgrwt>
<rscale>  0 0.57612634E+02</rscale>
<asrwt>0</asrwt>
<pdfrwt beam="1">  1        2 0.39275507E+00 0.54677813E+02</pdfrwt>
<pdfrwt beam="2">  1        1 0.54963190E-01 0.60704982E+02</pdfrwt>
<totfact> 0.45310068E+01</totfact>
</mgrwt>
</event>
<event>
 5    1  0.8891499E-003  0.1608744E+03  0.7546771E-02  0.1285891E+00
          2   -1    0    0  502    0  0.00000000000E+00  0.00000000000E+00  0.11313942090E+04  0.11313942090E+04  0.00000000000E+00 0. -1.
          1   -1    0    0  501    0 -0.00000000000E+00 -0.00000000000E+00 -0.18740025441E+04  0.18740025441E+04  0.00000000000E+00 0. -1.
         25    1    1    2    0    0 -0.11441253133E+03 -0.63890970249E+02  0.15286176449E+03  0.23698945641E+03  0.12500000000E+03 0.  0.
          2    1    1    2  501    0  0.10043343892E+01 -0.58944327980E+02 -0.18239971529E+04  0.18249496038E+04  0.00000000000E+00 0. -1.
          1    1    1    2  502    0  0.11340819694E+03  0.12283529823E+03  0.92852705332E+03  0.94345769294E+03  0.00000000000E+00 0. -1.
<mgrwt>
<rscale>  0 0.97385886E+02</rscale>
<asrwt>0</asrwt>
<pdfrwt beam="1">  1        2 0.17406065E+00 0.16087442E+03</pdfrwt>
<pdfrwt beam="2">  1        1 0.28830808E+00 0.58952884E+02</pdfrwt>
<totfact> 0.15063033E+01</totfact>
</mgrwt>
</event>
<event>
 5    1  0.8891499E-003  0.5590436E+02  0.7546771E-02  0.1461624E+00
          1   -1    0    0  501    0 -0.00000000000E+00  0.00000000000E+00  0.13452471641E+03  0.13452471641E+03  0.00000000000E+00 0. -1.
          2   -1    0    0  502    0  0.00000000000E+00 -0.00000000000E+00 -0.26075832163E+03  0.26075832163E+03  0.00000000000E+00 0. -1.
         25    1    1    2    0    0 -0.37636353429E+02 -0.86104358970E+02  0.49043256415E+02  0.16389233275E+03  0.12500000000E+03 0.  0.
          2    1    1    2  501    0  0.18671170090E+02  0.35020971629E+02  0.77393665593E+01  0.40434871598E+02  0.00000000000E+00 0. -1.
          1    1    1    2  502    0  0.18965183339E+02  0.51083387341E+02 -0.18301622819E+03  0.19095583370E+03  0.00000000000E+00 0. -1.
<mgrwt>
<rscale>  0 0.47103000E+02</rscale>
<asrwt>0</asrwt>
<pdfrwt beam="2">  1        2 0.40116664E-01 0.55904360E+02</pdfrwt>
<pdfrwt beam="1">  1        1 0.20696111E-01 0.39687291E+02</pdfrwt>
<totfact> 0.38681728E+03</totfact>
</mgrwt>
</event>
<event>
 5    1  0.8891499E-003  0.6282783E+02  0.7546771E-02  0.1391834E+00
          1   -1    0    0  501    0 -0.00000000000E+00  0.00000000000E+00  0.19479580867E+04  0.19479580867E+04  0.00000000000E+00 0. -1.
          2   -1    0    0  502    0  0.00000000000E+00 -0.00000000000E+00 -0.29864677812E+03  0.29864677812E+03  0.00000000000E+00 0. -1.
         25    1    1    2    0    0 -0.38269183668E+02 -0.29694733969E+02  0.67367428110E+03  0.68688306476E+03  0.12500000000E+03 0.  0.
          2    1    1    2  501    0 -0.86073793225E+01  0.67318239845E+02  0.12636663707E+04  0.12654874668E+04  0.00000000000E+00 0. -1.
          1    1    1    2  502    0  0.46876562991E+02 -0.37623505876E+02 -0.28802934315E+03  0.29423433326E+03  0.00000000000E+00 0. -1.
<mgrwt>
<rscale>  0 0.61452737E+02</rscale>
<asrwt>0</asrwt>
<pdfrwt beam="2">  1        2 0.45945659E-01 0.60107740E+02</pdfrwt>
<pdfrwt beam="1">  1        1 0.29968585E+00 0.62827831E+02</pdfrwt>
<totfact> 0.64477783E+01</totfact>
</mgrwt>
</event>
<event>
 5    1  0.8891499E-003  0.2276091E+02  0.7546771E-02  0.1717279E+00
          2   -1    0    0  502    0  0.00000000000E+00  0.00000000000E+00  0.10510595959E+03  0.10510595959E+03  0.00000000000E+00 0. -1.
          1   -1    0    0  501    0 -0.00000000000E+00 -0.00000000000E+00 -0.49756232190E+03  0.49756232190E+03  0.00000000000E+00 0. -1.
         25    1    1    2    0    0 -0.32265721203E+02 -0.26854471858E+02 -0.14993666376E+03  0.19967033471E+03  0.12500000000E+03 0.  0.
          2    1    1    2  501    0  0.12439367069E+02  0.16022374014E+02 -0.32084185898E+03  0.32148242999E+03  0.00000000000E+00 0. -1.
          1    1    1    2  502    0  0.19826354134E+02  0.10832097844E+02  0.78322160429E+02  0.81515516782E+02  0.00000000000E+00 0. -1.
<mgrwt>
<rscale>  0 0.21486971E+02</rscale>
<asrwt>0</asrwt>
<pdfrwt beam="1">  1        2 0.16170147E-01 0.22760908E+02</pdfrwt>
<pdfrwt beam="2">  1        1 0.76548051E-01 0.20284337E+02</pdfrwt>
<totfact> 0.20540106E+03</totfact>
</mgrwt>
</event>
<event>
 5    1  0.8891499E-003  0.3778406E+02  0.7546771E-02  0.1565981E+00
         -2   -1    0    0    0  501 -0.00000000000E+00  0.00000000000E+00  0.72038316712E+01  0.72038316712E+01  0.00000000000E+00 0.  1.
          2   -1    0    0  502    0  0.00000000000E+00 -0.00000000000E+00 -0.16522995623E+04  0.16522995623E+04  0.00000000000E+00 0. -1.
         25    1    1    2    0    0 -0.14976974053E+02 -0.59580920644E+01 -0.98365301435E+03  0.99169454030E+03  0.12500000000E+03 0.  0.
          1    1    1    2  502    0 -0.10007238187E+02 -0.27248078270E+02 -0.50830070967E+03  0.50912887763E+03  0.00000000000E+00 0. -1.
         -1    1    1    2    0  501  0.24984212240E+02  0.33206170334E+02 -0.15314200659E+03  0.15867997603E+03  0.00000000000E+00 0.  1.
<mgrwt>
<rscale>  0 0.33117686E+02</rscale>
<asrwt>0</asrwt>
<pdfrwt beam="2">  1        2 0.25419940E+00 0.29027618E+02</pdfrwt>
<pdfrwt beam="1">  1       -2 0.11082841E-02 0.37784055E+02</pdfrwt>
<totfact> 0.18742719E+04</totfact>
</mgrwt>
</event>
<event>
 5    1  0.8891499E-003  0.4921611E+02  0.7546771E-02  0.1581554E+00
          2   -1    0    0  502    0  0.00000000000E+00  0.00000000000E+00  0.21551267861E+03  0.21551267861E+03  0.00000000000E+00 0. -1.
         -2   -1    0    0    0  501 -0.00000000000E+00 -0.00000000000E+00 -0.64993355988E+02  0.64993355988E+02  0.00000000000E+00 0.  1.
         25    1    1    2    0    0  0.12832052166E+02  0.51057397424E+02  0.62774808342E+02  0.14945633462E+03  0.12500000000E+03 0.  0.
          3    1    1    2  502    0 -0.29414975739E+02 -0.39477354089E+02  0.97021701494E+02  0.10879757738E+03  0.00000000000E+00 0. -1.
         -3    1    1    2    0  501  0.16582923573E+02 -0.11580043334E+02 -0.92771872100E+01  0.22252122604E+02  0.00000000000E+00 0.  1.
<mgrwt>
<rscale>  0 0.31550669E+02</rscale>
<asrwt>0</asrwt>
<pdfrwt beam="1">  1        2 0.33155797E-01 0.49216113E+02</pdfrwt>
<pdfrwt beam="2">  1       -2 0.99989779E-02 0.20225992E+02</pdfrwt>
<totfact> 0.82347780E+03</totfact>
</mgrwt>
</event>
<event>
 5    1  0.8891499E-003  0.1015928E+03  0.7546771E-02  0.1374138E+00
          1   -1    0    0  502    0  0.00000000000E+00  0.00000000000E+00  0.54187576129E+03  0.54187576129E+03  0.00000000000E+00 0. -1.
         -1   -1    0    0    0  501 -0.00000000000E+00 -0.00000000000E+00 -0.14675357176E+03  0.14675357176E+03  0.00000000000E+00 0.  1.
         25    1    1    2    0    0 -0.68813572022E+02  0.13846714240E+02  0.78053145310E+02  0.16323091828E+03  0.12500000000E+03 0.  0.
          2    1    1    2  502    0 -0.32131803310E+02  0.28448885463E+02  0.39098194707E+03  0.39333023631E+03  0.00000000000E+00 0. -1.
         -2    1    1    2    0  501  0.10094537533E+03 -0.42295599703E+02 -0.73912902846E+02  0.13206817846E+03  0.00000000000E+00 0.  1.
<mgrwt>
<rscale>  0 0.66030034E+02</rscale>
<asrwt>0</asrwt>
<pdfrwt beam="1">  1        1 0.83365501E-01 0.42916103E+02</pdfrwt>
<pdfrwt beam="2">  1       -1 0.22577473E-01 0.10159276E+03</pdfrwt>
<totfact> 0.68870254E+02</totfact>
</mgrwt>
</event>
<event>
 5    1  0.8891499E-003  0.1599270E+03  0.7546771E-02  0.1277122E+00
          1   -1    0    0  501    0 -0.00000000000E+00  0.00000000000E+00  0.32611313463E+04  0.32611313463E+04  0.00000000000E+00 0. -1.
          2   -1    0    0  502    0  0.00000000000E+00 -0.00000000000E+00 -0.27192168173E+03  0.27192168173E+03  0.00000000000E+00 0. -1.
         25    1    1    2    0    0  0.14272015813E+03 -0.17461388950E+02 -0.38584711058E+02  0.19439064681E+03  0.12500000000E+03 0.  0.
          2    1    1    2  501    0  0.26177967762E+02  0.58894008902E+02  0.31341499632E+04  0.31348125593E+04  0.00000000000E+00 0. -1.
          3    1    1    2  502    0 -0.16889812589E+03 -0.41432619952E+02 -0.10635558750E+03  0.20384982197E+03  0.00000000000E+00 0. -1.
<mgrwt>
<rscale>  0 0.10152477E+03</rscale>
<asrwt>0</asrwt>
<pdfrwt beam="2">  1        2 0.41834107E-01 0.15992699E+03</pdfrwt>
<pdfrwt beam="1">  1        1 0.50171249E+00 0.64449905E+02</pdfrwt>
<totfact> 0.10098357E+01</totfact>
</mgrwt>
</event>
<event>
 5    1  0.8891499E-003  0.8297126E+02  0.7546771E-02  0.1345623E+00
         -2   -1    0    0    0  501 -0.00000000000E+00  0.00000000000E+00  0.15923133858E+02  0.15923133858E+02  0.00000000000E+00 0.  1.
          2   -1    0    0  502    0  0.00000000000E+00 -0.00000000000E+00 -0.19539895518E+04  0.19539895518E+04  0.00000000000E+00 0. -1.
         25    1    1    2    0    0  0.51949318887E+00 -0.49550582130E+02 -0.53157171726E+03  0.54831470950E+03  0.12500000000E+03 0.  0.
          1    1    1    2  502    0  0.21850892204E+01 -0.66745298334E+02 -0.87387470365E+03  0.87642267608E+03  0.00000000000E+00 0. -1.
         -1    1    1    2    0  501 -0.27045824092E+01  0.11629588046E+03 -0.53261999703E+03  0.54517530008E+03  0.00000000000E+00 0.  1.
<mgrwt>
<rscale>  0 0.74437277E+02</rscale>
<asrwt>0</asrwt>
<pdfrwt beam="2">  1        2 0.30061393E+00 0.66781056E+02</pdfrwt>
<pdfrwt beam="1">  1       -2 0.24497117E-02 0.82971257E+02</pdfrwt>
<totfact> 0.45472545E+03</totfact>
</mgrwt>
</event>
<event>
 5    1  0.8891499E-003  0.1538960E+03  0.7546771E-02  0.1229275E+00
         -2   -1    0    0    0  501 -0.00000000000E+00  0.00000000000E+00  0.31290100706E+04  0.31290100706E+04  0.00000000000E+00 0.  1.
          2   -1    0    0  502    0  0.00000000000E+00 -0.00000000000E+00 -0.48137614710E+03  0.48137614710E+03  0.00000000000E+00 0. -1.
         25    1    1    2    0    0 -0.10433807906E+02 -0.53231745311E+02 -0.13199934854E+03  0.18971376089E+03  0.12500000000E+03 0.  0.
          1    1    1    2  502    0 -0.78288284032E+02 -0.74056633262E+02 -0.30945886214E+03  0.32768617259E+03  0.00000000000E+00 0. -1.
         -1    1    1    2    0  501  0.88722091938E+02  0.12728837857E+03  0.30890921342E+04  0.30929862842E+04  0.00000000000E+00 0.  1.
<mgrwt>
<rscale>  0 0.12878163E+03</rscale>
<asrwt>0</asrwt>
<pdfrwt beam="2">  1        2 0.74057871E-01 0.10776567E+03</pdfrwt>
<pdfrwt beam="1">  1       -2 0.48138615E+00 0.15389602E+03</pdfrwt>
<totfact> 0.19320890E-01</totfact>
</mgrwt>
</event>
<event>
 5    1  0.8891499E-003  0.6350590E+02  0.7546771E-02  0.1514197E+00
          2   -1    0    0  502    0  0.00000000000E+00  0.00000000000E+00  0.22414842021E+03  0.22414842021E+03  0.00000000000E+00 0. -1.
          1   -1    0    0  501    0 -0.00000000000E+00 -0.00000000000E+00 -0.38419267984E+03  0.38419267984E+03  0.00000000000E+00 0. -1.
         25    1    1    2    0    0  0.32446020245E+02 -0.31179561744E+02 -0.22431922985E+03  0.26070869986E+03  0.12500000000E+03 0.  0.
          2    1    1    2  501    0  0.24150038701E+02  0.14648916925E+01 -0.13562225855E+03  0.13776344686E+03  0.00000000000E+00 0. -1.
          1    1    1    2  502    0 -0.56596058946E+02  0.29714670052E+02  0.19989722876E+03  0.20986895333E+03  0.00000000000E+00 0. -1.
<mgrwt>
<rscale>  0 0.39198071E+02</rscale>
<asrwt>0</asrwt>
<pdfrwt beam="1">  1        2 0.34484373E-01 0.63505896E+02</pdfrwt>
<pdfrwt beam="2">  1        1 0.59106565E-01 0.24194427E+02</pdfrwt>
<totfact> 0.13017031E+03</totfact>
</mgrwt>
</event>
<event>
 5    1  0.8891499E-003  0.3331712E+02  0.7546771E-02  0.1593131E+00
          1   -1    0    0  502    0  0.00000000000E+00  0.00000000000E+00  0.99085675684E+03  0.99085675684E+03  0.00000000000E+00 0. -1.
         -1   -1    0    0    0  501 -0.00000000000E+00 -0.00000000000E+00 -0.31702916781E+02  0.31702916781E+02  0.00000000000E+00 0.  1.
         25    1    1    2    0    0 -0.53695917829E+02  0.11260459613E+02  0.34560165257E+03  0.37158518781E+03  0.12500000000E+03 0.  0.
          2    1    1    2  502    0  0.26872998109E+02 -0.18700650056E+02  0.62123571940E+03  0.62209781497E+03  0.00000000000E+00 0. -1.
         -2    1    1    2    0  501  0.26822919720E+02  0.74401904430E+01 -0.76835319060E+01  0.28876670838E+02  0.00000000000E+00 0.  1.
<mgrwt>
<rscale>  0 0.30453321E+02</rscale>
<asrwt>0</asrwt>
<pdfrwt beam="1">  1        1 0.15243948E+00 0.33317115E+02</pdfrwt>
<pdfrwt beam="2">  1       -1 0.48773726E-02 0.27835687E+02</pdfrwt>
<totfact> 0.26967374E+03</totfact>
</mgrwt>
</event>
<event>
 5    1  0.9278317E-003  0.6764150E+02  0.7546771E-02  0.1383754E+00
          2   -1    0    0  502    0  0.00000000000E+00  0.00000000000E+00  0.70846581400E+03  0.70846581400E+03  0.00000000000E+00 0. -1.
          1   -1    0    0  501    0 -0.00000000000E+00 -0.00000000000E+00 -0.21748686556E+04  0.21748686556E+04  0.00000000000E+00 0. -1.
         25    1    1    2    0    0  0.62122877538E+02 -0.10768026562E+03 -0.41072256908E+03  0.44695896934E+03  0.12500000000E+03 0.  0.
          2    1    1    2  501    0 -0.25752390134E+02  0.60479397739E+02 -0.17441217438E+04  0.17453600202E+04  0.00000000000E+00 0. -1.
          1    1    1    2  502    0 -0.36370487403E+02  0.47200867880E+02  0.68844147126E+03  0.69101548002E+03  0.00000000000E+00 0. -1.
<mgrwt>
<rscale>  0 0.63487197E+02</rscale>
<asrwt>0</asrwt>
<pdfrwt beam="1">  1        2 0.10899474E+00 0.59588038E+02</pdfrwt>
<pdfrwt beam="2">  1        1 0.33459517E+00 0.67641499E+02</pdfrwt>
<totfact> 0.18453066E+01</totfact>
</mgrwt>
</event>
<event>
 5    1  0.8891499E-003  0.8190131E+02  0.7546771E-02  0.1389495E+00
         -2   -1    0    0    0  501 -0.00000000000E+00  0.00000000000E+00  0.44910492597E+02  0.44910492597E+02  0.00000000000E+00 0.  1.
          2   -1    0    0  502    0  0.00000000000E+00 -0.00000000000E+00 -0.20673827791E+04  0.20673827791E+04  0.00000000000E+00 0. -1.
         25    1    1    2    0    0 -0.42245698304E+02 -0.67739222899E+02 -0.20861021042E+03  0.25596195271E+03  0.12500000000E+03 0.  0.
          1    1    1    2  502    0  0.75095933461E+02  0.34148384250E+02 -0.18069612255E+04  0.18088433823E+04  0.00000000000E+00 0. -1.
         -1    1    1    2    0  501 -0.32850235157E+02  0.33590838649E+02 -0.69008506151E+01  0.47487936681E+02  0.00000000000E+00 0.  1.
<mgrwt>
<rscale>  0 0.62032566E+02</rscale>
<asrwt>0</asrwt>
<pdfrwt beam="2">  1        2 0.31805889E+00 0.81901313E+02</pdfrwt>
<pdfrwt beam="1">  1       -2 0.69093066E-02 0.46983852E+02</pdfrwt>
<totfact> 0.80542913E+02</totfact>
</mgrwt>
</event>
<event>
 5    1  0.8891499E-003  0.7113309E+02  0.7546771E-02  0.1387975E+00
          2   -1    0    0  502    0  0.00000000000E+00  0.00000000000E+00  0.11761493592E+04  0.11761493592E+04  0.00000000000E+00 0. -1.
          1   -1    0    0  501    0 -0.00000000000E+00 -0.00000000000E+00 -0.47408956232E+03  0.47408956232E+03  0.00000000000E+00 0. -1.
         25    1    1    2    0    0  0.59519420318E+02  0.72336947104E+02  0.61115402987E+02  0.16773576778E+03  0.12500000000E+03 0.  0.
          2    1    1    2  501    0 -0.54741936262E+02 -0.14874637901E+01 -0.41780324766E+03  0.42137684546E+03  0.00000000000E+00 0. -1.
          3    1    1    2  502    0 -0.47774840560E+01 -0.70849483314E+02  0.10587476415E+04  0.10611263082E+04  0.00000000000E+00 0. -1.
<mgrwt>
<rscale>  0 0.62413141E+02</rscale>
<asrwt>0</asrwt>
<pdfrwt beam="1">  1        2 0.18094605E+00 0.71133087E+02</pdfrwt>
<pdfrwt beam="2">  1        1 0.72936856E-01 0.54762141E+02</pdfrwt>
<totfact> 0.15375775E+02</totfact>
</mgrwt>
</event>
<event>
 5    1  0.8891499E-003  0.1940110E+03  0.7546771E-02  0.1238454E+00
          2   -1    0    0  502    0  0.00000000000E+00  0.00000000000E+00  0.27421042861E+03  0.27421042861E+03  0.00000000000E+00 0. -1.
          1   -1    0    0  501    0 -0.00000000000E+00 -0.00000000000E+00 -0.25278301402E+04  0.25278301402E+04  0.00000000000E+00 0. -1.
         25    1    1    2    0    0 -0.38936855204E+00 -0.17380660653E+03  0.42732895253E+02  0.21831167723E+03  0.12500000000E+03 0.  0.
          2    1    1    2  501    0  0.78033328261E+02  0.17874622474E+03 -0.24252995363E+04  0.24331291075E+04  0.00000000000E+00 0. -1.
          1    1    1    2  502    0 -0.77643959709E+02 -0.49396182175E+01  0.12894692950E+03  0.15059978398E+03  0.00000000000E+00 0. -1.
<mgrwt>
<rscale>  0 0.12285859E+03</rscale>
<asrwt>0</asrwt>
<pdfrwt beam="1">  1        2 0.42186221E-01 0.77800927E+02</pdfrwt>
<pdfrwt beam="2">  1        1 0.38889694E+00 0.19401098E+03</pdfrwt>
<totfact> 0.25953492E+01</totfact>
</mgrwt>
</event>
<event>
 5    1  0.8891499E-003  0.8359983E+02  0.7546771E-02  0.1443849E+00
          2   -1    0    0  502    0  0.00000000000E+00  0.00000000000E+00  0.13747261779E+04  0.13747261779E+04  0.00000000000E+00 0. -1.
          1   -1    0    0  501    0 -0.00000000000E+00 -0.00000000000E+00 -0.18797114611E+02  0.18797114611E+02  0.00000000000E+00 0. -1.
         25    1    1    2    0    0 -0.38329934942E+02 -0.49753416572E+02  0.84061430101E+03  0.85217485849E+03  0.12500000000E+03 0.  0.
          2    1    1    2  501    0  0.68058443212E+02  0.55278625164E+02  0.14253039627E+03  0.16733975007E+03  0.00000000000E+00 0. -1.
          1    1    1    2  502    0 -0.29728508269E+02 -0.55252085915E+01  0.37278436599E+03  0.37400868394E+03  0.00000000000E+00 0. -1.
<mgrwt>
<rscale>  0 0.50277805E+02</rscale>
<asrwt>0</asrwt>
<pdfrwt beam="1">  1        2 0.21149626E+00 0.30237595E+02</pdfrwt>
<pdfrwt beam="2">  1        1 0.28918649E-02 0.83599825E+02</pdfrwt>
<totfact> 0.80837883E+03</totfact>
</mgrwt>
</event>
<event>
 5    1  0.8891499E-003  0.3122692E+03  0.7546771E-02  0.1178083E+00
          1   -1    0    0  501    0 -0.00000000000E+00  0.00000000000E+00  0.37837780448E+03  0.37837780448E+03  0.00000000000E+00 0. -1.
          2   -1    0    0  502    0  0.00000000000E+00 -0.00000000000E+00 -0.21785644210E+04  0.21785644210E+04  0.00000000000E+00 0. -1.
         25    1    1    2    0    0  0.48529732850E+02 -0.28989321578E+03 -0.36046178084E+03  0.48161281853E+03  0.12500000000E+03 0.  0.
          2    1    1    2  501    0 -0.14069879672E+03  0.28491894224E+03  0.23678197412E+03  0.39628355797E+03  0.00000000000E+00 0. -1.
          1    1    1    2  502    0  0.92169063867E+02  0.49742735334E+01 -0.16765068098E+04  0.16790458490E+04  0.00000000000E+00 0. -1.
<mgrwt>
<rscale>  0 0.16977470E+03</rscale>
<asrwt>0</asrwt>
<pdfrwt beam="2">  1        2 0.33516375E+00 0.92303195E+02</pdfrwt>
<pdfrwt beam="1">  1        1 0.58211971E-01 0.31226924E+03</pdfrwt>
<totfact> 0.60112404E+01</totfact>
</mgrwt>
</event>
<event>
 5    1  0.8891499E-003  0.4889560E+02  0.7546771E-02  0.1468899E+00
          1   -1    0    0  501    0 -0.00000000000E+00  0.00000000000E+00  0.96315995672E+02  0.96315995672E+02  0.00000000000E+00 0. -1.
          2   -1    0    0  502    0  0.00000000000E+00 -0.00000000000E+00 -0.15991049598E+04  0.15991049598E+04  0.00000000000E+00 0. -1.
         25    1    1    2    0    0  0.56389115224E+02  0.68970888781E+02 -0.52778492234E+03  0.54965319982E+03  0.12500000000E+03 0.  0.
          2    1    1    2  501    0 -0.21930045367E+02 -0.43154243559E+02  0.78045383864E+02  0.91838431876E+02  0.00000000000E+00 0. -1.
          1    1    1    2  502    0 -0.34459069858E+02 -0.25816645221E+02 -0.10530494257E+04  0.10539293238E+04  0.00000000000E+00 0. -1.
<mgrwt>
<rscale>  0 0.45883657E+02</rscale>
<asrwt>0</asrwt>
<pdfrwt beam="2">  1        2 0.24601613E+00 0.43057249E+02</pdfrwt>
<pdfrwt beam="1">  1        1 0.14817847E-01 0.48895599E+02</pdfrwt>
<totfact> 0.67473836E+02</totfact>
</mgrwt>
</event>
<event>
 5    1  0.8891499E-003  0.5524988E+02  0.7546771E-02  0.1460630E+00
         -1   -1    0    0    0  501 -0.00000000000E+00  0.00000000000E+00  0.61001287664E+03  0.61001287664E+03  0.00000000000E+00 0.  1.
          1   -1    0    0  502    0  0.00000000000E+00 -0.00000000000E+00 -0.69034361183E+03  0.69034361183E+03  0.00000000000E+00 0. -1.
         25    1    1    2    0    0 -0.18961500023E+02  0.40411638611E+02  0.30103937628E+03  0.32900204420E+03  0.12500000000E+03 0.  0.
          2    1    1    2  502    0  0.52430663042E+02 -0.17699155299E+02 -0.67383620277E+03  0.67610462407E+03  0.00000000000E+00 0. -1.
         -2    1    1    2    0  501 -0.33469163018E+02 -0.22712483312E+02  0.29246609130E+03  0.29524982021E+03  0.00000000000E+00 0.  1.
<mgrwt>
<rscale>  0 0.47273119E+02</rscale>
<asrwt>0</asrwt>
<pdfrwt beam="2">  1        1 0.10620671E+00 0.55249878E+02</pdfrwt>
<pdfrwt beam="1">  1       -1 0.93848135E-01 0.40448013E+02</pdfrwt>
<totfact> 0.38875945E+01</totfact>
</mgrwt>
</event>
<event>
 5    1  0.8891499E-003  0.4932187E+02  0.7546771E-02  0.1526238E+00
          2   -1    0    0  502    0  0.00000000000E+00  0.00000000000E+00  0.20504024632E+03  0.20504024632E+03  0.00000000000E+00 0. -1.
          1   -1    0    0  501    0 -0.00000000000E+00 -0.00000000000E+00 -0.21713660611E+03  0.21713660611E+03  0.00000000000E+00 0. -1.
         25    1    1    2    0    0  0.23707447340E+02 -0.36473610129E+01 -0.12179789040E+03  0.17616773941E+03  0.12500000000E+03 0.  0.
          2    1    1    2  501    0  0.19904554436E+02 -0.20735852923E+02 -0.61382076476E+02  0.67778508365E+02  0.00000000000E+00 0. -1.
          1    1    1    2  502    0 -0.43612001776E+02  0.24383213936E+02  0.17108360709E+03  0.17823060465E+03  0.00000000000E+00 0. -1.
<mgrwt>
<rscale>  0 0.37651882E+02</rscale>
<asrwt>0</asrwt>
<pdfrwt beam="1">  1        2 0.31544653E-01 0.49321866E+02</pdfrwt>
<pdfrwt beam="2">  1        1 0.33405632E-01 0.28743119E+02</pdfrwt>
<totfact> 0.27632725E+03</totfact>
</mgrwt>
</event>
<event>
 5    1  0.8891499E-003  0.2907201E+03  0.7546771E-02  0.1123859E+00
          2   -1    0    0  502    0  0.00000000000E+00  0.00000000000E+00  0.11016308694E+04  0.11016308694E+04  0.00000000000E+00 0. -1.
          1   -1    0    0  501    0 -0.00000000000E+00 -0.00000000000E+00 -0.33270056527E+03  0.33270056527E+03  0.00000000000E+00 0. -1.
         25    1    1    2    0    0 -0.39376596561E+03 -0.61236948428E+01 -0.74849646351E+02  0.41990070835E+03  0.12500000000E+03 0.  0.
          2    1    1    2  501    0  0.20542777795E+03  0.61892883243E+01  0.68551398090E+02  0.21665219459E+03  0.00000000000E+00 0. -1.
          1    1    1    2  502    0  0.18833818766E+03 -0.65593481495E-01  0.77522855244E+03  0.79777853177E+03  0.00000000000E+00 0. -1.
<mgrwt>
<rscale>  0 0.23399507E+03</rscale>
<asrwt>0</asrwt>
<pdfrwt beam="1">  1        2 0.16948167E+00 0.18833820E+03</pdfrwt>
<pdfrwt beam="2">  1        1 0.51184703E-01 0.29072006E+03</pdfrwt>
<totfact> 0.24403088E+02</totfact>
</mgrwt>
</event>
<event>
 5    1  0.8891499E-003  0.4401413E+02  0.7546771E-02  0.1519998E+00
          2   -1    0    0  502    0  0.00000000000E+00  0.00000000000E+00  0.13602914708E+04  0.13602914708E+04  0.00000000000E+00 0. -1.
          1   -1    0    0  501    0 -0.00000000000E+00 -0.00000000000E+00 -0.38611378025E+02  0.38611378025E+02  0.00000000000E+00 0. -1.
         25    1    1    2    0    0 -0.55691083466E+02 -0.15930234916E+02  0.12720858329E+03  0.18751611350E+03  0.12500000000E+03 0.  0.
          2    1    1    2  501    0  0.39513515287E+02 -0.13491167218E+02  0.44856810610E+02  0.61281832065E+02  0.00000000000E+00 0. -1.
          3    1    1    2  502    0  0.16177568179E+02  0.29421402133E+02  0.11496146988E+04  0.11501049032E+04  0.00000000000E+00 0. -1.
<mgrwt>
<rscale>  0 0.38442274E+02</rscale>
<asrwt>0</asrwt>
<pdfrwt beam="1">  1        2 0.20927557E+00 0.33575774E+02</pdfrwt>
<pdfrwt beam="2">  1        1 0.59402131E-02 0.44014128E+02</pdfrwt>
<totfact> 0.28918101E+03</totfact>
</mgrwt>
</event>
<event>
 5    1  0.8891499E-003  0.1052250E+03  0.7546771E-02  0.1345478E+00
          1   -1    0    0  502    0  0.00000000000E+00  0.00000000000E+00  0.15919180464E+04  0.15919180464E+04  0.00000000000E+00 0. -1.
         -1   -1    0    0    0  501 -0.00000000000E+00 -0.00000000000E+00 -0.70384838882E+02  0.70384838882E+02  0.00000000000E+00 0.  1.
         25    1    1    2    0    0 -0.26094013044E+02 -0.20437067403E+02  0.10326334035E+04  0.10406994366E+04  0.12500000000E+03 0.  0.
          2    1    1    2  502    0  0.84691252199E+02 -0.66962377477E+02  0.50388042475E+03  0.51531742707E+03  0.00000000000E+00 0. -1.
         -2    1    1    2    0  501 -0.58597239155E+02  0.87399444880E+02 -0.14980620724E+02  0.10628602165E+03  0.00000000000E+00 0.  1.
<mgrwt>
<rscale>  0 0.74483646E+02</rscale>
<asrwt>0</asrwt>
<pdfrwt beam="1">  1        1 0.24491044E+00 0.52723344E+02</pdfrwt>
<pdfrwt beam="2">  1       -1 0.10828438E-01 0.10522499E+03</pdfrwt>
<totfact> 0.37574163E+02</totfact>
</mgrwt>
</event>
<event>
 5    1  0.8891499E-003  0.1049360E+03  0.7546771E-02  0.1445146E+00
         -1   -1    0    0    0  501 -0.00000000000E+00  0.00000000000E+00  0.90064712479E+02  0.90064712479E+02  0.00000000000E+00 0.  1.
          1   -1    0    0  502    0  0.00000000000E+00 -0.00000000000E+00 -0.15631193896E+04  0.15631193896E+04  0.00000000000E+00 0. -1.
         25    1    1    2    0    0 -0.75357144403E+02  0.37472048271E+02 -0.24200917507E+03  0.28508997603E+03  0.12500000000E+03 0.  0.
          2    1    1    2  502    0  0.92340084913E+02 -0.54229518812E+02 -0.12952141850E+04  0.12996335318E+04  0.00000000000E+00 0. -1.
         -2    1    1    2    0  501 -0.16982940510E+02  0.16757470541E+02  0.64168682965E+02  0.68460594219E+02  0.00000000000E+00 0.  1.
<mgrwt>
<rscale>  0 0.50036243E+02</rscale>
<asrwt>0</asrwt>
<pdfrwt beam="2">  1        1 0.24047990E+00 0.10493595E+03</pdfrwt>
<pdfrwt beam="1">  1       -1 0.13856110E-01 0.23858606E+02</pdfrwt>
<totfact> 0.22668501E+02</totfact>
</mgrwt>
</event>
<event>
 5    1  0.8891499E-003  0.9014378E+02  0.7546771E-02  0.1430440E+00
         -2   -1    0    0    0  501 -0.00000000000E+00  0.00000000000E+00  0.62880676603E+02  0.62880676603E+02  0.00000000000E+00 0.  1.
          2   -1    0    0  502    0  0.00000000000E+00 -0.00000000000E+00 -0.25601091540E+04  0.25601091540E+04  0.00000000000E+00 0. -1.
         25    1    1    2    0    0 -0.11792078867E+03 -0.14741721609E+02 -0.67809988762E+03  0.69969070906E+03  0.12500000000E+03 0.  0.
          1    1    1    2  502    0  0.30942840593E+02 -0.20515715264E+01 -0.18333226067E+04  0.18335848626E+04  0.00000000000E+00 0. -1.
         -1    1    1    2    0  501  0.86977948073E+02  0.16793293135E+02  0.14194016853E+02  0.89714258954E+02  0.00000000000E+00 0.  1.
<mgrwt>
<rscale>  0 0.52871815E+02</rscale>
<asrwt>0</asrwt>
<pdfrwt beam="2">  1        2 0.39386287E+00 0.31010778E+02</pdfrwt>
<pdfrwt beam="1">  1       -2 0.96739520E-02 0.90143784E+02</pdfrwt>
<totfact> 0.33101583E+02</totfact>
</mgrwt>
</event>
<event>
 5    1  0.8891499E-003  0.6721845E+02  0.7546771E-02  0.1369901E+00
          1   -1    0    0  501    0 -0.00000000000E+00  0.00000000000E+00  0.31585658899E+03  0.31585658899E+03  0.00000000000E+00 0. -1.
          2   -1    0    0  502    0  0.00000000000E+00 -0.00000000000E+00 -0.14548651754E+03  0.14548651754E+03  0.00000000000E+00 0. -1.
         25    1    1    2    0    0 -0.41338786540E+02 -0.50851665001E+02 -0.66876857144E+02  0.15618034808E+03  0.12500000000E+03 0.  0.
          2    1    1    2  501    0  0.57769377019E+02 -0.34365954592E+02  0.19950442185E+03  0.21052395136E+03  0.00000000000E+00 0. -1.
          1    1    1    2  502    0 -0.16430590478E+02  0.85217619592E+02  0.37742506746E+02  0.94638807093E+02  0.00000000000E+00 0. -1.
<mgrwt>
<rscale>  0 0.67194715E+02</rscale>
<asrwt>0</asrwt>
<pdfrwt beam="2">  1        2 0.22382541E-01 0.67170990E+02</pdfrwt>
<pdfrwt beam="1">  1        1 0.48593321E-01 0.67218448E+02</pdfrwt>
<totfact> 0.26055928E+03</totfact>
</mgrwt>
</event>
<event>
 5    1  0.8891499E-003  0.7668255E+02  0.7546771E-02  0.1345809E+00
         -1   -1    0    0    0  501 -0.00000000000E+00  0.00000000000E+00  0.95032672867E+02  0.95032672867E+02  0.00000000000E+00 0.  1.
          1   -1    0    0  502    0  0.00000000000E+00 -0.00000000000E+00 -0.51370708800E+03  0.51370708800E+03  0.00000000000E+00 0. -1.
         25    1    1    2    0    0 -0.75360436520E+01 -0.20495338695E+02  0.26453374126E+02  0.12962110887E+03  0.12500000000E+03 0.  0.
          2    1    1    2  502    0  0.79343440860E+02  0.13553857030E+02 -0.35323862457E+03  0.36229354746E+03  0.00000000000E+00 0. -1.
         -2    1    1    2    0  501 -0.71807397208E+02  0.69414816650E+01 -0.91889164695E+02  0.11682510454E+03  0.00000000000E+00 0.  1.
<mgrwt>
<rscale>  0 0.74377701E+02</rscale>
<asrwt>0</asrwt>
<pdfrwt beam="2">  1        1 0.79031859E-01 0.76682552E+02</pdfrwt>
<pdfrwt beam="1">  1       -1 0.14620411E-01 0.72142127E+02</pdfrwt>
<totfact> 0.14181588E+03</totfact>
</mgrwt>
</event>
<event>
 5    1  0.8891499E-003  0.6937701E+02  0.7546771E-02  0.1422616E+00
         -2   -1    0    0    0  501 -0.00000000000E+00  0.00000000000E+00  0.16995175636E+03  0.16995175636E+03  0.00000000000E+00 0.  1.
          2   -1    0    0  502    0  0.00000000000E+00 -0.00000000000E+00 -0.11191360495E+04  0.11191360495E+04  0.00000000000E+00 0. -1.
         25    1    1    2    0    0 -0.39941302559E+02 -0.99388250018E+02 -0.15601964036E+03  0.22680489428E+03  0.12500000000E+03 0.  0.
          1    1    1    2  502    0  0.11941591416E+02  0.67060055919E+02 -0.92303855928E+03  0.92554839669E+03  0.00000000000E+00 0. -1.
         -1    1    1    2    0  501  0.27999711143E+02  0.32328194098E+02  0.12987390652E+03  0.13673451486E+03  0.00000000000E+00 0.  1.
<mgrwt>
<rscale>  0 0.54471195E+02</rscale>
<asrwt>0</asrwt>
<pdfrwt beam="2">  1        2 0.17217478E+00 0.69377006E+02</pdfrwt>
<pdfrwt beam="1">  1       -2 0.26146424E-01 0.42767931E+02</pdfrwt>
<totfact> 0.30270359E+02</totfact>
</mgrwt>
</event>
<event>
 5    1  0.8891499E-003  0.4637547E+02  0.7546771E-02  0.1540803E+00
          1   -1    0    0  501    0 -0.00000000000E+00  0.00000000000E+00  0.35348106584E+03  0.35348106584E+03  0.00000000000E+00 0. -1.
          2   -1    0    0  502    0  0.00000000000E+00 -0.00000000000E+00 -0.88366006309E+03  0.88366006309E+03  0.00000000000E+00 0. -1.
         25    1    1    2    0    0  0.39090715097E+02 -0.52476173217E+02 -0.42540670378E+03  0.44819381564E+03  0.12500000000E+03 0.  0.
          2    1    1    2  501    0 -0.26077811501E+02  0.95787329160E+01  0.34039593343E+03  0.34152773807E+03  0.00000000000E+00 0. -1.
          1    1    1    2  502    0 -0.13012903596E+02  0.42897440302E+02 -0.44516822690E+03  0.44741957521E+03  0.00000000000E+00 0. -1.
<mgrwt>
<rscale>  0 0.35893928E+02</rscale>
<asrwt>0</asrwt>
<pdfrwt beam="2">  1        2 0.13594770E+00 0.46375473E+02</pdfrwt>
<pdfrwt beam="1">  1        1 0.54381703E-01 0.27781367E+02</pdfrwt>
<totfact> 0.33058239E+02</totfact>
</mgrwt>
</event>
<event>
 5    1  0.8891499E-003  0.9275065E+02  0.7546771E-02  0.1436294E+00
          2   -1    0    0  502    0  0.00000000000E+00  0.00000000000E+00  0.11207453578E+04  0.11207453578E+04  0.00000000000E+00 0. -1.
          1   -1    0    0  501    0 -0.00000000000E+00 -0.00000000000E+00 -0.11169852426E+04  0.11169852426E+04  0.00000000000E+00 0. -1.
         25    1    1    2    0    0 -0.45909082685E+02 -0.82977593608E+02 -0.20689896212E+03  0.25966344649E+03  0.12500000000E+03 0.  0.
          2    1    1    2  501    0  0.27708114828E+02 -0.79898111478E+01 -0.88150177453E+03  0.88197333022E+03  0.00000000000E+00 0. -1.
          1    1    1    2  502    0  0.18200967857E+02  0.90967404756E+02  0.10921608519E+04  0.10960938237E+04  0.00000000000E+00 0. -1.
<mgrwt>
<rscale>  0 0.51717086E+02</rscale>
<asrwt>0</asrwt>
<pdfrwt beam="1">  1        2 0.17242236E+00 0.92750646E+02</pdfrwt>
<pdfrwt beam="2">  1        1 0.17184388E+00 0.28837072E+02</pdfrwt>
<totfact> 0.50277095E+01</totfact>
</mgrwt>
</event>
<event>
 5    1  0.8891499E-003  0.6357513E+02  0.7546771E-02  0.1483328E+00
          1   -1    0    0  501    0 -0.00000000000E+00  0.00000000000E+00  0.87053916385E+02  0.87053916385E+02  0.00000000000E+00 0. -1.
          2   -1    0    0  502    0  0.00000000000E+00 -0.00000000000E+00 -0.96491541925E+03  0.96491541925E+03  0.00000000000E+00 0. -1.
         25    1    1    2    0    0 -0.17636468388E+02 -0.40265376045E+02 -0.67035092522E+03  0.68332108739E+03  0.12500000000E+03 0.  0.
          2    1    1    2  501    0  0.47398070344E+02  0.43033709180E+02  0.66910614138E+02  0.92604035994E+02  0.00000000000E+00 0. -1.
          1    1    1    2  502    0 -0.29761601956E+02 -0.27683331344E+01 -0.27442119178E+03  0.27604421225E+03  0.00000000000E+00 0. -1.
<mgrwt>
<rscale>  0 0.43592034E+02</rscale>
<asrwt>0</asrwt>
<pdfrwt beam="2">  1        2 0.14844853E+00 0.29890076E+02</pdfrwt>
<pdfrwt beam="1">  1        1 0.13392910E-01 0.63575129E+02</pdfrwt>
<totfact> 0.16863221E+03</totfact>
</mgrwt>
</event>
<event>
 5    1  0.8891499E-003  0.4747867E+02  0.7546771E-02  0.1507480E+00
         -2   -1    0    0    0  501 -0.00000000000E+00  0.00000000000E+00  0.71945275129E+03  0.71945275129E+03  0.00000000000E+00 0.  1.
          2   -1    0    0  502    0  0.00000000000E+00 -0.00000000000E+00 -0.78118040326E+03  0.78118040326E+03  0.00000000000E+00 0. -1.
         25    1    1    2    0    0  0.45932881797E+02  0.12984736015E+02  0.15684284721E+03  0.20616282817E+03  0.12500000000E+03 0.  0.
          1    1    1    2  502    0 -0.26977393700E+01 -0.33759625974E+02 -0.75507080741E+03  0.75582995068E+03  0.00000000000E+00 0. -1.
         -1    1    1    2    0  501 -0.43235142427E+02  0.20774889960E+02  0.53650030824E+03  0.53864037570E+03  0.00000000000E+00 0.  1.
<mgrwt>
<rscale>  0 0.40099522E+02</rscale>
<asrwt>0</asrwt>
<pdfrwt beam="2">  1        2 0.12018160E+00 0.33867243E+02</pdfrwt>
<pdfrwt beam="1">  1       -2 0.11068504E+00 0.47478671E+02</pdfrwt>
<totfact> 0.28537360E+01</totfact>
</mgrwt>
</event>
<event>
 5    1  0.8891499E-003  0.1475711E+03  0.7546771E-02  0.1370986E+00
          1   -1    0    0  501    0 -0.00000000000E+00  0.00000000000E+00  0.18500051687E+04  0.18500051687E+04  0.00000000000E+00 0. -1.
          2   -1    0    0  502    0  0.00000000000E+00 -0.00000000000E+00 -0.68538524184E+03  0.68538524184E+03  0.00000000000E+00 0. -1.
         25    1    1    2    0    0  0.46377561352E+02  0.13403673974E+03  0.37949976516E+02  0.19282615620E+03  0.12500000000E+03 0.  0.
          2    1    1    2  501    0 -0.75868649994E+02 -0.12698340970E+03  0.17310827787E+04  0.17373912700E+04  0.00000000000E+00 0. -1.
          1    1    1    2  502    0  0.29491088641E+02 -0.70533300403E+01 -0.60441282840E+03  0.60517298428E+03  0.00000000000E+00 0. -1.
<mgrwt>
<rscale>  0 0.66893732E+02</rscale>
<asrwt>0</asrwt>
<pdfrwt beam="2">  1        2 0.10544388E+00 0.30322826E+02</pdfrwt>
<pdfrwt beam="1">  1        1 0.28461618E+00 0.14757105E+03</pdfrwt>
<totfact> 0.28402076E+01</totfact>
</mgrwt>
</event>
<event>
 5    1  0.8891499E-003  0.5620155E+02  0.7546771E-02  0.1439550E+00
          2   -1    0    0  502    0  0.00000000000E+00  0.00000000000E+00  0.11894310530E+04  0.11894310530E+04  0.00000000000E+00 0. -1.
          1   -1    0    0  501    0 -0.00000000000E+00 -0.00000000000E+00 -0.59028777831E+03  0.59028777831E+03  0.00000000000E+00 0. -1.
         25    1    1    2    0    0  0.69999075350E+02  0.72959524311E+00 -0.86784216846E+02  0.16750194970E+03  0.12500000000E+03 0.  0.
          2    1    1    2  501    0 -0.27442573383E+02 -0.37468445358E+02 -0.46129026659E+03  0.46362235633E+03  0.00000000000E+00 0. -1.
          1    1    1    2  502    0 -0.42556501967E+02  0.36738850115E+02  0.11472177582E+04  0.11485945253E+04  0.00000000000E+00 0. -1.
<mgrwt>
<rscale>  0 0.51089968E+02</rscale>
<asrwt>0</asrwt>
<pdfrwt beam="1">  1        2 0.18298939E+00 0.56201547E+02</pdfrwt>
<pdfrwt beam="2">  1        1 0.90813505E-01 0.46443290E+02</pdfrwt>
<totfact> 0.11678829E+02</totfact>
</mgrwt>
</event>
<event>
 5    1  0.8891499E-003  0.1317125E+03  0.7546771E-02  0.1260308E+00
         -2   -1    0    0    0  501 -0.00000000000E+00  0.00000000000E+00  0.52059177976E+03  0.52059177976E+03  0.00000000000E+00 0.  1.
          2   -1    0    0  502    0  0.00000000000E+00 -0.00000000000E+00 -0.46527113426E+03  0.46527113426E+03  0.00000000000E+00 0. -1.
         25    1    1    2    0    0 -0.15339191645E+03 -0.17097718398E+02 -0.10517598101E+03  0.22474073727E+03  0.12500000000E+03 0.  0.
          1    1    1    2  502    0  0.96806412341E+02  0.89769178382E+02 -0.28081513345E+03  0.31030166940E+03  0.00000000000E+00 0. -1.
         -1    1    1    2    0  501  0.56585504105E+02 -0.72671459984E+02  0.44131175996E+03  0.45082050736E+03  0.00000000000E+00 0.  1.
<mgrwt>
<rscale>  0 0.11014168E+03</rscale>
<asrwt>0</asrwt>
<pdfrwt beam="2">  1        2 0.71580174E-01 0.13171255E+03</pdfrwt>
<pdfrwt beam="1">  1       -2 0.80091043E-01 0.92103531E+02</pdfrwt>
<totfact> 0.99971464E+01</totfact>
</mgrwt>
</event>
<event>
 5    1  0.8891499E-003  0.9329803E+02  0.7546771E-02  0.1325667E+00
         -2   -1    0    0    0  501 -0.00000000000E+00  0.00000000000E+00  0.10492066684E+04  0.10492066684E+04  0.00000000000E+00 0.  1.
          2   -1    0    0  502    0  0.00000000000E+00 -0.00000000000E+00 -0.28722552494E+03  0.28722552494E+03  0.00000000000E+00 0. -1.
         25    1    1    2    0    0 -0.12440145731E+03 -0.10046100583E+03  0.36360886241E+03  0.41641870887E+03  0.12500000000E+03 0.  0.
          1    1    1    2  502    0  0.61386087819E+02  0.68452310486E+02 -0.25073901397E+03  0.26706557943E+03  0.00000000000E+00 0. -1.
         -1    1    1    2    0  501  0.63015369492E+02  0.32008695344E+02  0.64911129498E+03  0.65294790500E+03  0.00000000000E+00 0.  1.
<mgrwt>
<rscale>  0 0.81204639E+02</rscale>
<asrwt>0</asrwt>
<pdfrwt beam="2">  1        2 0.44188543E-01 0.93298033E+02</pdfrwt>
<pdfrwt beam="1">  1       -2 0.16141641E+00 0.70678804E+02</pdfrwt>
<totfact> 0.32276447E+01</totfact>
</mgrwt>
</event>
<event>
 5    1  0.8891499E-003  0.5076841E+02  0.7546771E-02  0.1485911E+00
         -2   -1    0    0    0  501 -0.00000000000E+00  0.00000000000E+00  0.56255569245E+01  0.56255569245E+01  0.00000000000E+00 0.  1.
          2   -1    0    0  502    0  0.00000000000E+00 -0.00000000000E+00 -0.42852932734E+04  0.42852932734E+04  0.00000000000E+00 0. -1.
         25    1    1    2    0    0 -0.39049135628E+01  0.73504090303E+02 -0.15555818235E+04  0.15623309218E+04  0.12500000000E+03 0.  0.
          1    1    1    2  502    0  0.22157400413E+02 -0.29328709445E+02 -0.24559558069E+04  0.24562308623E+04  0.00000000000E+00 0. -1.
         -1    1    1    2    0  501 -0.18252486850E+02 -0.44175380859E+02 -0.26813008609E+03  0.27235704620E+03  0.00000000000E+00 0.  1.
<mgrwt>
<rscale>  0 0.43198687E+02</rscale>
<asrwt>0</asrwt>
<pdfrwt beam="2">  1        2 0.65927486E+00 0.36757633E+02</pdfrwt>
<pdfrwt beam="1">  1       -2 0.86547165E-03 0.50768410E+02</pdfrwt>
<totfact> 0.85183469E+02</totfact>
</mgrwt>
</event>
<event>
 5    1  0.8891499E-003  0.9058638E+02  0.7546771E-02  0.1391594E+00
         -2   -1    0    0    0  501 -0.00000000000E+00  0.00000000000E+00  0.27803053628E+03  0.27803053628E+03  0.00000000000E+00 0.  1.
          2   -1    0    0  502    0  0.00000000000E+00 -0.00000000000E+00 -0.34982574487E+03  0.34982574487E+03  0.00000000000E+00 0. -1.
         25    1    1    2    0    0 -0.11146286755E+03 -0.64275431729E+02 -0.22057473934E+03  0.28431235921E+03  0.12500000000E+03 0.  0.
          1    1    1    2  502    0  0.28831490180E+02  0.30222723011E+02 -0.84210588675E+02  0.94000484345E+02  0.00000000000E+00 0. -1.
         -1    1    1    2    0  501  0.82631377369E+02  0.34052708718E+02  0.23299011942E+03  0.24954343759E+03  0.00000000000E+00 0.  1.
<mgrwt>
<rscale>  0 0.61511969E+02</rscale>
<asrwt>0</asrwt>
<pdfrwt beam="2">  1        2 0.53819345E-01 0.41769221E+02</pdfrwt>
<pdfrwt beam="1">  1       -2 0.42773929E-01 0.90586377E+02</pdfrwt>
<totfact> 0.48355209E+02</totfact>
</mgrwt>
</event>
<event>
 5    1  0.8891499E-003  0.8691523E+02  0.7546771E-02  0.1426015E+00
          2   -1    0    0  502    0  0.00000000000E+00  0.00000000000E+00  0.31022589629E+04  0.31022589629E+04  0.00000000000E+00 0. -1.
          1   -1    0    0  501    0 -0.00000000000E+00 -0.00000000000E+00 -0.32366897115E+03  0.32366897115E+03  0.00000000000E+00 0. -1.
         25    1    1    2    0    0 -0.96616137950E+02 -0.59832766291E+00  0.20648980895E+03  0.25999630249E+03  0.12500000000E+03 0.  0.
          2    1    1    2  501    0  0.14846223369E+02  0.29765537456E+02 -0.29532510710E+03  0.29719238963E+03  0.00000000000E+00 0. -1.
          1    1    1    2  502    0  0.81769914581E+02 -0.29167209793E+02  0.28674252899E+04  0.28687392419E+04  0.00000000000E+00 0. -1.
<mgrwt>
<rscale>  0 0.53768230E+02</rscale>
<asrwt>0</asrwt>
<pdfrwt beam="1">  1        2 0.47727059E+00 0.86915229E+02</pdfrwt>
<pdfrwt beam="2">  1        1 0.49795228E-01 0.33262555E+02</pdfrwt>
<totfact> 0.23737212E+01</totfact>
</mgrwt>
</event>
<event>
 5    1  0.1166112E-002  0.5277707E+02  0.7546771E-02  0.1436127E+00
         -2   -1    0    0    0  501 -0.00000000000E+00  0.00000000000E+00  0.30997205323E+02  0.30997205323E+02  0.00000000000E+00 0.  1.
          2   -1    0    0  502    0  0.00000000000E+00 -0.00000000000E+00 -0.78600677931E+03  0.78600677931E+03  0.00000000000E+00 0. -1.
         25    1    1    2    0    0 -0.33815103801E+02 -0.47855125205E+02 -0.15610109350E+03  0.20838936068E+03  0.12500000000E+03 0.  0.
          1    1    1    2  502    0  0.50226219033E+02 -0.72179625249E+01 -0.29030390009E+03  0.29470515175E+03  0.00000000000E+00 0. -1.
         -1    1    1    2    0  501 -0.16411115232E+02  0.55073087730E+02 -0.30860458040E+03  0.31390947220E+03  0.00000000000E+00 0.  1.
<mgrwt>
<rscale>  0 0.51749641E+02</rscale>
<asrwt>0</asrwt>
<pdfrwt beam="2">  1        2 0.12092411E+00 0.50742212E+02</pdfrwt>
<pdfrwt beam="1">  1       -2 0.47688011E-02 0.52777072E+02</pdfrwt>
<totfact> 0.69419549E+03</totfact>
</mgrwt>
</event>
<event>
 5    1  0.8891499E-003  0.5919657E+02  0.7546771E-02  0.1441124E+00
          2   -1    0    0  502    0  0.00000000000E+00  0.00000000000E+00  0.18341414014E+04  0.18341414014E+04  0.00000000000E+00 0. -1.
          1   -1    0    0  501    0 -0.00000000000E+00 -0.00000000000E+00 -0.38236229976E+02  0.38236229976E+02  0.00000000000E+00 0. -1.
         25    1    1    2    0    0  0.25383896135E+02  0.83460827998E+02  0.54351364946E+03  0.56448395827E+03  0.12500000000E+03 0.  0.
          2    1    1    2  501    0 -0.39794797031E+02 -0.42334530708E+02  0.34629602301E+01  0.58205072413E+02  0.00000000000E+00 0. -1.
          1    1    1    2  502    0  0.14410900896E+02 -0.41126297290E+02  0.12489285617E+04  0.12496886007E+04  0.00000000000E+00 0. -1.
<mgrwt>
<rscale>  0 0.50790461E+02</rscale>
<asrwt>0</asrwt>
<pdfrwt beam="1">  1        2 0.28217553E+00 0.43578049E+02</pdfrwt>
<pdfrwt beam="2">  1        1 0.58824983E-02 0.59196568E+02</pdfrwt>
<totfact> 0.17341952E+03</totfact>
</mgrwt>
</event>
<event>
 5    1  0.8891499E-003  0.2938548E+02  0.7546771E-02  0.1606127E+00
          1   -1    0    0  501    0 -0.00000000000E+00  0.00000000000E+00  0.11165647062E+04  0.11165647062E+04  0.00000000000E+00 0. -1.
          2   -1    0    0  502    0  0.00000000000E+00 -0.00000000000E+00 -0.23570887107E+03  0.23570887107E+03  0.00000000000E+00 0. -1.
         25    1    1    2    0    0 -0.56087332399E+02  0.28737569234E+01  0.26975171780E+03  0.30256410327E+03  0.12500000000E+03 0.  0.
          2    1    1    2  501    0  0.27565503557E+02 -0.95875411708E+01  0.82917016206E+03  0.82968363584E+03  0.00000000000E+00 0. -1.
          1    1    1    2  502    0  0.28521828842E+02  0.67137842475E+01 -0.21806604470E+03  0.22002583819E+03  0.00000000000E+00 0. -1.
<mgrwt>
<rscale>  0 0.29285186E+02</rscale>
<asrwt>0</asrwt>
<pdfrwt beam="2">  1        2 0.36262904E-01 0.29385479E+02</pdfrwt>
<pdfrwt beam="1">  1        1 0.17177918E+00 0.29185235E+02</pdfrwt>
<totfact> 0.28888806E+02</totfact>
</mgrwt>
</event>
<event>
 5    1  0.1072485E-002  0.7188221E+02  0.7546771E-02  0.1382201E+00
          2   -1    0    0  502    0  0.00000000000E+00  0.00000000000E+00  0.24553635896E+04  0.24553635896E+04  0.00000000000E+00 0. -1.
         -2   -1    0    0    0  501 -0.00000000000E+00 -0.00000000000E+00 -0.70675429741E+03  0.70675429741E+03  0.00000000000E+00 0.  1.
         25    1    1    2    0    0 -0.29890656651E+02  0.52352203097E+02 -0.13614724201E+03  0.19441007184E+03  0.12500000000E+03 0.  0.
          1    1    1    2  502    0  0.70808909516E+02 -0.12980614378E+02  0.24242076581E+04  0.24252763075E+04  0.00000000000E+00 0. -1.
         -1    1    1    2    0  501 -0.40918252866E+02 -0.39371588719E+02 -0.53945112392E+03  0.54243150767E+03  0.00000000000E+00 0.  1.
<mgrwt>
<rscale>  0 0.63888662E+02</rscale>
<asrwt>0</asrwt>
<pdfrwt beam="1">  1        2 0.37774824E+00 0.71882209E+02</pdfrwt>
<pdfrwt beam="2">  1       -2 0.10873143E+00 0.56784024E+02</pdfrwt>
<totfact> 0.37884477E+00</totfact>
</mgrwt>
</event>
<event>
 5    1  0.8891499E-003  0.1199731E+03  0.7546771E-02  0.1370565E+00
          1   -1    0    0  501    0 -0.00000000000E+00  0.00000000000E+00  0.23950305971E+03  0.23950305971E+03  0.00000000000E+00 0. -1.
          2   -1    0    0  502    0  0.00000000000E+00 -0.00000000000E+00 -0.14050268618E+04  0.14050268618E+04  0.00000000000E+00 0. -1.
         25    1    1    2    0    0 -0.88449030082E+02 -0.10469024169E+01 -0.27595681316E+03  0.31559703683E+03  0.12500000000E+03 0.  0.
          2    1    1    2  501    0  0.11997945144E+03  0.21213876883E+02  0.20244386541E+03  0.23628079901E+03  0.00000000000E+00 0. -1.
          1    1    1    2  502    0 -0.31530421358E+02 -0.20166974466E+02 -0.10920108543E+04  0.10926520857E+04  0.00000000000E+00 0. -1.
<mgrwt>
<rscale>  0 0.67010325E+02</rscale>
<asrwt>0</asrwt>
<pdfrwt beam="2">  1        2 0.21615798E+00 0.37428256E+02</pdfrwt>
<pdfrwt beam="1">  1        1 0.36846625E-01 0.11997309E+03</pdfrwt>
<totfact> 0.28295684E+02</totfact>
</mgrwt>
</event>
<event>
 5    1  0.8891499E-003  0.4442862E+02  0.7546771E-02  0.1539676E+00
          1   -1    0    0  501    0 -0.00000000000E+00  0.00000000000E+00  0.24803529396E+03  0.24803529396E+03  0.00000000000E+00 0. -1.
          2   -1    0    0  502    0  0.00000000000E+00 -0.00000000000E+00 -0.12980688336E+04  0.12980688336E+04  0.00000000000E+00 0. -1.
         25    1    1    2    0    0  0.51030223081E+02  0.34116850988E+02 -0.59748823550E+02  0.15153535926E+03  0.12500000000E+03 0.  0.
          2    1    1    2  501    0 -0.28894852384E+02  0.42941441075E+01  0.20067206131E+03  0.20278715038E+03  0.00000000000E+00 0. -1.
          1    1    1    2  502    0 -0.22135370697E+02 -0.38410995096E+02 -0.11909567774E+04  0.11917816179E+04  0.00000000000E+00 0. -1.
<mgrwt>
<rscale>  0 0.36025786E+02</rscale>
<asrwt>0</asrwt>
<pdfrwt beam="2">  1        2 0.19970290E+00 0.44428616E+02</pdfrwt>
<pdfrwt beam="1">  1        1 0.38159275E-01 0.29212192E+02</pdfrwt>
<totfact> 0.29720958E+02</totfact>
</mgrwt>
</event>
<event>
 5    1  0.8891499E-003  0.1179171E+03  0.7546771E-02  0.1389662E+00
          1   -1    0    0  501    0 -0.00000000000E+00  0.00000000000E+00  0.21628601898E+03  0.21628601898E+03  0.00000000000E+00 0. -1.
          2   -1    0    0  502    0  0.00000000000E+00 -0.00000000000E+00 -0.59020336224E+03  0.59020336224E+03  0.00000000000E+00 0. -1.
         25    1    1    2    0    0  0.46727985667E+02  0.10963597484E+03 -0.20413161617E+03  0.26739160111E+03  0.12500000000E+03 0.  0.
          2    1    1    2  501    0  0.27644055367E+02 -0.17259323468E+02  0.17317310222E+03  0.17621294327E+03  0.00000000000E+00 0. -1.
          1    1    1    2  502    0 -0.74372041034E+02 -0.92376651370E+02 -0.34295882932E+03  0.36288483684E+03  0.00000000000E+00 0. -1.
<mgrwt>
<rscale>  0 0.61990849E+02</rscale>
<asrwt>0</asrwt>
<pdfrwt beam="2">  1        2 0.90800515E-01 0.11791714E+03</pdfrwt>
<pdfrwt beam="1">  1        1 0.33274773E-01 0.32589539E+02</pdfrwt>
<totfact> 0.91578542E+02</totfact>
</mgrwt>
</event>
<event>
 5    1  0.8891499E-003  0.1175847E+03  0.7546771E-02  0.1316272E+00
          2   -1    0    0  502    0  0.00000000000E+00  0.00000000000E+00  0.34201199112E+03  0.34201199112E+03  0.00000000000E+00 0. -1.
         -2   -1    0    0    0  501 -0.00000000000E+00 -0.00000000000E+00 -0.12100284165E+04  0.12100284165E+04  0.00000000000E+00 0.  1.
         25    1    1    2    0    0  0.14341898210E+03 -0.97136271251E+02 -0.18638183419E+03  0.28349188302E+03  0.12500000000E+03 0.  0.
          1    1    1    2  502    0 -0.43367621775E+02  0.42873911384E+02  0.28692002359E+03  0.29332920556E+03  0.00000000000E+00 0. -1.
         -1    1    1    2    0  501 -0.10005136033E+03  0.54262359868E+02 -0.96855461478E+03  0.97521931903E+03  0.00000000000E+00 0.  1.
<mgrwt>
<rscale>  0 0.84679777E+02</rscale>
<asrwt>0</asrwt>
<pdfrwt beam="1">  1        2 0.52617228E-01 0.60982972E+02</pdfrwt>
<pdfrwt beam="2">  1       -2 0.18615822E+00 0.11758470E+03</pdfrwt>
<totfact> 0.17847154E+01</totfact>
</mgrwt>
</event>
<event>
 5    1  0.8891499E-003  0.1120575E+03  0.7546771E-02  0.1331129E+00
          2   -1    0    0  502    0  0.00000000000E+00  0.00000000000E+00  0.28329096731E+03  0.28329096731E+03  0.00000000000E+00 0. -1.
          1   -1    0    0  501    0 -0.00000000000E+00 -0.00000000000E+00 -0.12363854874E+04  0.12363854874E+04  0.00000000000E+00 0. -1.
         25    1    1    2    0    0  0.65808027914E+02  0.14756630089E+03 -0.22018529768E+03  0.30035491508E+03  0.12500000000E+03 0.  0.
          2    1    1    2  501    0 -0.57110437725E+02 -0.92165557292E+02 -0.96982090862E+03  0.97586304718E+03  0.00000000000E+00 0. -1.
          1    1    1    2  502    0 -0.86975901895E+01 -0.55400743599E+02  0.23691168623E+03  0.24345849244E+03  0.00000000000E+00 0. -1.
<mgrwt>
<rscale>  0 0.79272361E+02</rscale>
<asrwt>0</asrwt>
<pdfrwt beam="1">  1        2 0.43583225E-01 0.56079323E+02</pdfrwt>
<pdfrwt beam="2">  1        1 0.19021315E+00 0.11205747E+03</pdfrwt>
<totfact> 0.18151804E+02</totfact>
</mgrwt>
</event>
<event>
 5    1  0.8891499E-003  0.3235880E+02  0.7546771E-02  0.1618073E+00
          2   -1    0    0  502    0  0.00000000000E+00  0.00000000000E+00  0.14409293917E+03  0.14409293917E+03  0.00000000000E+00 0. -1.
          1   -1    0    0  501    0 -0.00000000000E+00 -0.00000000000E+00 -0.67978386087E+03  0.67978386087E+03  0.00000000000E+00 0. -1.
         25    1    1    2    0    0  0.22415415219E+01  0.24444571968E+02 -0.28938263829E+03  0.31618012738E+03  0.12500000000E+03 0.  0.
          2    1    1    2  501    0 -0.24673580032E+02 -0.97307496016E+00 -0.37457331407E+03  0.37538633438E+03  0.00000000000E+00 0. -1.
          1    1    1    2  502    0  0.22432038510E+02 -0.23471497007E+02  0.12826503066E+03  0.13231033827E+03  0.00000000000E+00 0. -1.
<mgrwt>
<rscale>  0 0.28267084E+02</rscale>
<asrwt>0</asrwt>
<pdfrwt beam="1">  1        2 0.22168144E-01 0.32358798E+02</pdfrwt>
<pdfrwt beam="2">  1        1 0.10458213E+00 0.24692761E+02</pdfrwt>
<totfact> 0.10076184E+03</totfact>
</mgrwt>
</event>
<event>
 5    1  0.8891499E-003  0.1086309E+03  0.7546771E-02  0.1264544E+00
          2   -1    0    0  502    0  0.00000000000E+00  0.00000000000E+00  0.85644550345E+03  0.85644550345E+03  0.00000000000E+00 0. -1.
          1   -1    0    0  501    0 -0.00000000000E+00 -0.00000000000E+00 -0.98940809527E+03  0.98940809527E+03  0.00000000000E+00 0. -1.
         25    1    1    2    0    0  0.19956329580E+03  0.22322886920E+01  0.44401139595E+03  0.50259487848E+03  0.12500000000E+03 0.  0.
          2    1    1    2  501    0 -0.10077032663E+03  0.39220194797E+02 -0.94949747939E+03  0.95563504843E+03  0.00000000000E+00 0. -1.
          1    1    1    2  502    0 -0.98792969166E+02 -0.41452483489E+02  0.37252349162E+03  0.38762367182E+03  0.00000000000E+00 0. -1.
<mgrwt>
<rscale>  0 0.10788143E+03</rscale>
<asrwt>0</asrwt>
<pdfrwt beam="1">  1        2 0.13176085E+00 0.10713710E+03</pdfrwt>
<pdfrwt beam="2">  1        1 0.15221663E+00 0.10863092E+03</pdfrwt>
<totfact> 0.79833552E+01</totfact>
</mgrwt>
</event>
<event>
 5    1  0.8891499E-003  0.5192156E+02  0.7546771E-02  0.1473549E+00
         -2   -1    0    0    0  501 -0.00000000000E+00  0.00000000000E+00  0.96426316134E+01  0.96426316134E+01  0.00000000000E+00 0.  1.
          2   -1    0    0  502    0  0.00000000000E+00 -0.00000000000E+00 -0.20240652364E+04  0.20240652364E+04  0.00000000000E+00 0. -1.
         25    1    1    2    0    0  0.63418835674E+01 -0.63986439365E+02 -0.15485158820E+04  0.15548829283E+04  0.12500000000E+03 0.  0.
          1    1    1    2  502    0 -0.33784538490E+02  0.19924314973E+02 -0.34531608935E+03  0.34753643684E+03  0.00000000000E+00 0. -1.
         -1    1    1    2    0  501  0.27442654922E+02  0.44062124392E+02 -0.12059063349E+03  0.13128850292E+03  0.00000000000E+00 0.  1.
<mgrwt>
<rscale>  0 0.45127294E+02</rscale>
<asrwt>0</asrwt>
<pdfrwt beam="2">  1        2 0.31139465E+00 0.39222103E+02</pdfrwt>
<pdfrwt beam="1">  1       -2 0.14834818E-02 0.51921558E+02</pdfrwt>
<totfact> 0.85141820E+03</totfact>
</mgrwt>
</event>
<event>
 5    1  0.8891499E-003  0.9428322E+02  0.7546771E-02  0.1319568E+00
          2   -1    0    0  502    0  0.00000000000E+00  0.00000000000E+00  0.18584055070E+04  0.18584055070E+04  0.00000000000E+00 0. -1.
         -2   -1    0    0    0  501 -0.00000000000E+00 -0.00000000000E+00 -0.56751622971E+02  0.56751622971E+02  0.00000000000E+00 0.  1.
         25    1    1    2    0    0  0.12354686560E+03  0.94019381881E+02  0.46903220917E+03  0.50962700616E+03  0.12500000000E+03 0.  0.
          1    1    1    2  502    0 -0.69663139185E+02 -0.24484860884E+02  0.13134149590E+04  0.13154890026E+04  0.00000000000E+00 0. -1.
         -1    1    1    2    0  501 -0.53883726411E+02 -0.69534520998E+02  0.19206715881E+02  0.90041121258E+02  0.00000000000E+00 0.  1.
<mgrwt>
<rscale>  0 0.83438281E+02</rscale>
<asrwt>0</asrwt>
<pdfrwt beam="1">  1        2 0.28590849E+00 0.73840784E+02</pdfrwt>
<pdfrwt beam="2">  1       -2 0.87310203E-02 0.94283218E+02</pdfrwt>
<totfact> 0.77204236E+02</totfact>
</mgrwt>
</event>
<event>
 5    1  0.8891499E-003  0.7117124E+02  0.7546771E-02  0.1386604E+00
          2   -1    0    0  502    0  0.00000000000E+00  0.00000000000E+00  0.39688022673E+03  0.39688022673E+03  0.00000000000E+00 0. -1.
          1   -1    0    0  501    0 -0.00000000000E+00 -0.00000000000E+00 -0.26288311401E+03  0.26288311401E+03  0.00000000000E+00 0. -1.
         25    1    1    2    0    0  0.65707359639E+02 -0.78912836860E+02  0.48878538683E+02  0.16899350424E+03  0.12500000000E+03 0.  0.
          2    1    1    2  501    0 -0.66061357111E+02  0.23572455974E+02 -0.19396216992E+03  0.20625490768E+03  0.00000000000E+00 0. -1.
          1    1    1    2  502    0  0.35399747157E+00  0.55340380886E+02  0.27908074396E+03  0.28451492881E+03  0.00000000000E+00 0. -1.
<mgrwt>
<rscale>  0 0.62759255E+02</rscale>
<asrwt>0</asrwt>
<pdfrwt beam="1">  1        2 0.61058497E-01 0.55341513E+02</pdfrwt>
<pdfrwt beam="2">  1        1 0.40443556E-01 0.71171239E+02</pdfrwt>
<totfact> 0.11349956E+03</totfact>
</mgrwt>
</event>
<event>
 5    1  0.8891499E-003  0.4659331E+02  0.7546771E-02  0.1475756E+00
          2   -1    0    0  502    0  0.00000000000E+00  0.00000000000E+00  0.18703468116E+04  0.18703468116E+04  0.00000000000E+00 0. -1.
         -2   -1    0    0    0  501 -0.00000000000E+00 -0.00000000000E+00 -0.23805517019E+02  0.23805517019E+02  0.00000000000E+00 0.  1.
         25    1    1    2    0    0  0.44163502722E+02 -0.75741049663E+02  0.87395598307E+03  0.88719286625E+03  0.12500000000E+03 0.  0.
          1    1    1    2  502    0 -0.25719875036E+02  0.34492452409E+02  0.95873520785E+03  0.95970018236E+03  0.00000000000E+00 0. -1.
         -1    1    1    2    0  501 -0.18443627686E+02  0.41248597254E+02  0.13850103684E+02  0.47259280038E+02  0.00000000000E+00 0.  1.
<mgrwt>
<rscale>  0 0.44774170E+02</rscale>
<asrwt>0</asrwt>
<pdfrwt beam="1">  1        2 0.28774555E+00 0.43026053E+02</pdfrwt>
<pdfrwt beam="2">  1       -2 0.36623887E-02 0.46593312E+02</pdfrwt>
<totfact> 0.27299537E+03</totfact>
</mgrwt>
</event>
<event>
 5    1  0.8891499E-003  0.2497716E+03  0.7546771E-02  0.1281916E+00
          1   -1    0    0  501    0 -0.00000000000E+00  0.00000000000E+00  0.18664836679E+03  0.18664836679E+03  0.00000000000E+00 0. -1.
          2   -1    0    0  502    0  0.00000000000E+00 -0.00000000000E+00 -0.12136161807E+04  0.12136161807E+04  0.00000000000E+00 0. -1.
         25    1    1    2    0    0  0.23176171330E+03  0.11833973411E+03 -0.28992669824E+03  0.40914578670E+03  0.12500000000E+03 0.  0.
          2    1    1    2  501    0 -0.20112866370E+03 -0.14315826008E+03  0.60831132193E+01  0.24694945041E+03  0.00000000000E+00 0. -1.
          1    1    1    2  502    0 -0.30633049603E+02  0.24818525966E+02 -0.74312422894E+03  0.74416931043E+03  0.00000000000E+00 0. -1.
<mgrwt>
<rscale>  0 0.99233480E+02</rscale>
<asrwt>0</asrwt>
<pdfrwt beam="2">  1        2 0.18671018E+00 0.39425156E+02</pdfrwt>
<pdfrwt beam="1">  1        1 0.28715134E-01 0.24977158E+03</pdfrwt>
<totfact> 0.48426602E+02</totfact>
</mgrwt>
</event>
<event>
 5    1  0.8891499E-003  0.7340066E+02  0.7546771E-02  0.1371491E+00
          2   -1    0    0  502    0  0.00000000000E+00  0.00000000000E+00  0.14529085125E+03  0.14529085125E+03  0.00000000000E+00 0. -1.
         -2   -1    0    0    0  501 -0.00000000000E+00 -0.00000000000E+00 -0.58537576638E+03  0.58537576638E+03  0.00000000000E+00 0.  1.
         25    1    1    2    0    0 -0.10860347941E+03  0.19471649154E+01 -0.17622816203E+03  0.24182611994E+03  0.12500000000E+03 0.  0.
          1    1    1    2  502    0  0.60687181920E+02 -0.39226336844E+02  0.98092524727E+02  0.12183506457E+03  0.00000000000E+00 0. -1.
         -1    1    1    2    0  501  0.47916297489E+02  0.37279171928E+02 -0.36194927782E+03  0.36700543312E+03  0.00000000000E+00 0.  1.
<mgrwt>
<rscale>  0 0.66754452E+02</rscale>
<asrwt>0</asrwt>
<pdfrwt beam="1">  1        2 0.22352438E-01 0.73400665E+02</pdfrwt>
<pdfrwt beam="2">  1       -2 0.90057811E-01 0.60710034E+02</pdfrwt>
<totfact> 0.26703543E+02</totfact>
</mgrwt>
</event>
<event>
 5    1  0.8891499E-003  0.1701516E+03  0.7546771E-02  0.1254140E+00
         -2   -1    0    0    0  501  0.00000000000E+00  0.00000000000E+00  0.80394201522E+02  0.80394201522E+02  0.00000000000E+00 0.  1.
         -1   -1    0    0    0  502 -0.00000000000E+00 -0.00000000000E+00 -0.98021284821E+03  0.98021284821E+03  0.00000000000E+00 0.  1.
         25    1    1    2    0    0  0.59753314627E+02  0.16064116844E+03 -0.32295046704E+03  0.38639105550E+03  0.12500000000E+03 0.  0.
         -2    1    1    2    0  502  0.14857594201E+02 -0.17385692360E+03 -0.57229619631E+03  0.59830587019E+03  0.00000000000E+00 0.  1.
         -1    1    1    2    0  501 -0.74610908828E+02  0.13215755159E+02 -0.45719833345E+01  0.75910124043E+02  0.00000000000E+00 0.  1.
<mgrwt>
<rscale>  0 0.11354637E+03</rscale>
<asrwt>0</asrwt>
<pdfrwt beam="1">  1       -2 0.12368338E-01 0.75772316E+02</pdfrwt>
<pdfrwt beam="2">  1       -1 0.15080198E+00 0.17015157E+03</pdfrwt>
<totfact> 0.12537132E+02</totfact>
</mgrwt>
</event>
<event>
 5    1  0.8891499E-003  0.1768381E+03  0.7546771E-02  0.1189067E+00
          1   -1    0    0  501    0 -0.00000000000E+00  0.00000000000E+00  0.56860695132E+03  0.56860695132E+03  0.00000000000E+00 0. -1.
          2   -1    0    0  502    0  0.00000000000E+00 -0.00000000000E+00 -0.41144145379E+04  0.41144145379E+04  0.00000000000E+00 0. -1.
         25    1    1    2    0    0  0.22735064597E+03  0.19344247636E+03 -0.29831092770E+03  0.44013942958E+03  0.12500000000E+03 0.  0.
          2    1    1    2  501    0 -0.13696455354E+03 -0.45019183719E+02  0.48518740833E+03  0.50615495358E+03  0.00000000000E+00 0. -1.
          1    1    1    2  502    0 -0.90386092423E+02 -0.14842329265E+03 -0.37326840672E+04  0.37367271061E+04  0.00000000000E+00 0. -1.
<mgrwt>
<rscale>  0 0.15967274E+03</rscale>
<asrwt>0</asrwt>
<pdfrwt beam="2">  1        2 0.63298686E+00 0.17683813E+03</pdfrwt>
<pdfrwt beam="1">  1        1 0.87477992E-01 0.14417356E+03</pdfrwt>
<totfact> 0.21112858E+00</totfact>
</mgrwt>
</event>
<event>
 5    1  0.8891499E-003  0.2135374E+03  0.7546771E-02  0.1333709E+00
          1   -1    0    0  501    0 -0.00000000000E+00  0.00000000000E+00  0.96487230417E+02  0.96487230417E+02  0.00000000000E+00 0. -1.
          2   -1    0    0  502    0  0.00000000000E+00 -0.00000000000E+00 -0.16868359428E+04  0.16868359428E+04  0.00000000000E+00 0. -1.
         25    1    1    2    0    0 -0.18491127668E+02 -0.23425968991E+03 -0.49607090070E+03  0.56296612921E+03  0.12500000000E+03 0.  0.
          2    1    1    2  501    0  0.11520910436E+02  0.20634596276E+03 -0.10711811720E+03  0.23277817500E+03  0.00000000000E+00 0. -1.
          1    1    1    2  502    0  0.69702172320E+01  0.27913727156E+02 -0.98715969447E+03  0.98757886899E+03  0.00000000000E+00 0. -1.
<mgrwt>
<rscale>  0 0.78381411E+02</rscale>
<asrwt>0</asrwt>
<pdfrwt beam="2">  1        2 0.25951320E+00 0.28770820E+02</pdfrwt>
<pdfrwt beam="1">  1        1 0.14844191E-01 0.21353738E+03</pdfrwt>
<totfact> 0.68087424E+02</totfact>
</mgrwt>
</event>
<event>
 5    1  0.8891499E-003  0.1108553E+03  0.7546771E-02  0.1299078E+00
          2   -1    0    0  502    0  0.00000000000E+00  0.00000000000E+00  0.66241746196E+03  0.66241746196E+03  0.00000000000E+00 0. -1.
         -2   -1    0    0    0  501 -0.00000000000E+00 -0.00000000000E+00 -0.22434642695E+03  0.22434642695E+03  0.00000000000E+00 0.  1.
         25    1    1    2    0    0 -0.51070453715E+01 -0.17054341094E+03  0.27134893357E+03  0.34404415513E+03  0.12500000000E+03 0.  0.
          1    1    1    2  502    0  0.35584826452E+02  0.66758501328E+02  0.33458159783E+03  0.34302743765E+03  0.00000000000E+00 0. -1.
         -1    1    1    2    0  501 -0.30477781081E+02  0.10378490961E+03 -0.16785949640E+03  0.19969229613E+03  0.00000000000E+00 0.  1.
<mgrwt>
<rscale>  0 0.91576442E+02</rscale>
<asrwt>0</asrwt>
<pdfrwt beam="1">  1        2 0.10191038E+00 0.75650363E+02</pdfrwt>
<pdfrwt beam="2">  1       -2 0.34514835E-01 0.11085531E+03</pdfrwt>
<totfact> 0.36539730E+02</totfact>
</mgrwt>
</event>
<event>
 5    1  0.1416028E-002  0.5229468E+02  0.7546771E-02  0.1434701E+00
         -2   -1    0    0    0  501 -0.00000000000E+00  0.00000000000E+00  0.90781592226E+03  0.90781592226E+03  0.00000000000E+00 0.  1.
          2   -1    0    0  502    0  0.00000000000E+00 -0.00000000000E+00 -0.20174886195E+04  0.20174886195E+04  0.00000000000E+00 0. -1.
         25    1    1    2    0    0 -0.68265071691E+02 -0.76766117850E+02  0.46735071568E+03  0.49456531248E+03  0.12500000000E+03 0.  0.
          1    1    1    2  502    0  0.40410411909E+02  0.33137405309E+02 -0.20019698481E+04  0.20026518323E+04  0.00000000000E+00 0. -1.
         -1    1    1    2    0  501  0.27854659782E+02  0.43628712541E+02  0.42494643518E+03  0.42808739692E+03  0.00000000000E+00 0.  1.
<mgrwt>
<rscale>  0 0.52027864E+02</rscale>
<asrwt>0</asrwt>
<pdfrwt beam="2">  1        2 0.31038286E+00 0.52294683E+02</pdfrwt>
<pdfrwt beam="1">  1       -2 0.13966399E+00 0.51762406E+02</pdfrwt>
<totfact> 0.36235945E+00</totfact>
</mgrwt>
</event>
<event>
 5    1  0.8891499E-003  0.6171623E+02  0.7546771E-02  0.1418696E+00
         -1   -1    0    0    0  501 -0.00000000000E+00  0.00000000000E+00  0.20300721514E+03  0.20300721514E+03  0.00000000000E+00 0.  1.
          1   -1    0    0  502    0  0.00000000000E+00 -0.00000000000E+00 -0.22157478755E+04  0.22157478755E+04  0.00000000000E+00 0. -1.
         25    1    1    2    0    0  0.33305949942E+02  0.95722738169E+02 -0.30357731414E+03  0.34359323999E+03  0.12500000000E+03 0.  0.
          2    1    1    2  502    0 -0.35496298009E+02 -0.34567164325E+02 -0.18867123910E+04  0.18873628487E+04  0.00000000000E+00 0. -1.
         -2    1    1    2    0  501  0.21903480677E+01 -0.61155573844E+02  0.17754904481E+03  0.18779900200E+03  0.00000000000E+00 0.  1.
<mgrwt>
<rscale>  0 0.55297702E+02</rscale>
<asrwt>0</asrwt>
<pdfrwt beam="2">  1        1 0.34088428E+00 0.49546705E+02</pdfrwt>
<pdfrwt beam="1">  1       -1 0.31231880E-01 0.61716229E+02</pdfrwt>
<totfact> 0.28872013E+01</totfact>
</mgrwt>
</event>
<event>
 5    1  0.8891499E-003  0.2600319E+02  0.7546771E-02  0.1666882E+00
         -2   -1    0    0    0  501  0.00000000000E+00  0.00000000000E+00  0.59106613373E+03  0.59106613373E+03  0.00000000000E+00 0.  1.
         -1   -1    0    0    0  502 -0.00000000000E+00 -0.00000000000E+00 -0.17822139187E+03  0.17822139187E+03  0.00000000000E+00 0.  1.
         25    1    1    2    0    0 -0.43902837349E+02 -0.10805528829E+02  0.17898568189E+03  0.22294639020E+03  0.12500000000E+03 0.  0.
         -2    1    1    2    0  502  0.21044113157E+02  0.15128244176E+02 -0.15481602956E+03  0.15697044779E+03  0.00000000000E+00 0.  1.
         -1    1    1    2    0  501  0.22858724193E+02 -0.43227153466E+01  0.38867508953E+03  0.38937068760E+03  0.00000000000E+00 0.  1.
<mgrwt>
<rscale>  0 0.24595418E+02</rscale>
<asrwt>0</asrwt>
<pdfrwt beam="1">  1       -2 0.90933250E-01 0.23263859E+02</pdfrwt>
<pdfrwt beam="2">  1       -1 0.27418676E-01 0.26003191E+02</pdfrwt>
<totfact> 0.94020303E+01</totfact>
</mgrwt>
</event>
<event>
 5    1  0.8891499E-003  0.7656402E+02  0.7546771E-02  0.1396926E+00
          1   -1    0    0  501    0 -0.00000000000E+00  0.00000000000E+00  0.46218022486E+03  0.46218022486E+03  0.00000000000E+00 0. -1.
          2   -1    0    0  502    0  0.00000000000E+00 -0.00000000000E+00 -0.17340344954E+03  0.17340344954E+03  0.00000000000E+00 0. -1.
         25    1    1    2    0    0  0.24111769065E+02  0.21250145754E+02  0.16072964378E+03  0.20613579139E+03  0.12500000000E+03 0.  0.
          2    1    1    2  501    0  0.40973654470E+02  0.23750119468E+02  0.26612406982E+03  0.27030525166E+03  0.00000000000E+00 0. -1.
          1    1    1    2  502    0 -0.65085423535E+02 -0.45000265222E+02 -0.13807693829E+03  0.15914263135E+03  0.00000000000E+00 0. -1.
<mgrwt>
<rscale>  0 0.60216466E+02</rscale>
<asrwt>0</asrwt>
<pdfrwt beam="2">  1        2 0.26677454E-01 0.76564022E+02</pdfrwt>
<pdfrwt beam="1">  1        1 0.71104650E-01 0.47359355E+02</pdfrwt>
<totfact> 0.13654766E+03</totfact>
</mgrwt>
</event>
<event>
 5    1  0.8891499E-003  0.1921392E+03  0.7546771E-02  0.1367686E+00
          2   -1    0    0  502    0  0.00000000000E+00  0.00000000000E+00  0.14263722515E+04  0.14263722515E+04  0.00000000000E+00 0. -1.
         -2   -1    0    0    0  501 -0.00000000000E+00 -0.00000000000E+00 -0.13723695479E+04  0.13723695479E+04  0.00000000000E+00 0.  1.
         25    1    1    2    0    0  0.20471297959E+03 -0.65586863379E+02  0.17753883505E+03  0.30553899687E+03  0.12500000000E+03 0.  0.
          1    1    1    2  502    0 -0.23742823164E+02  0.30256642663E+01  0.11777054026E+04  0.11779485947E+04  0.00000000000E+00 0. -1.
         -1    1    1    2    0  501 -0.18097015642E+03  0.62561199113E+02 -0.13012415341E+04  0.13152542079E+04  0.00000000000E+00 0.  1.
<mgrwt>
<rscale>  0 0.67814600E+02</rscale>
<asrwt>0</asrwt>
<pdfrwt beam="1">  1        2 0.21944189E+00 0.23934834E+02</pdfrwt>
<pdfrwt beam="2">  1       -2 0.21113378E+00 0.19213920E+03</pdfrwt>
<totfact> 0.23220787E+00</totfact>
</mgrwt>
</event>
<event>
 5    1  0.8891499E-003  0.1186416E+03  0.7546771E-02  0.1363168E+00
          1   -1    0    0  501    0 -0.00000000000E+00  0.00000000000E+00  0.17544907415E+04  0.17544907415E+04  0.00000000000E+00 0. -1.
          2   -1    0    0  502    0  0.00000000000E+00 -0.00000000000E+00 -0.90213165313E+02  0.90213165313E+02  0.00000000000E+00 0. -1.
         25    1    1    2    0    0 -0.10553774980E+03  0.93921549006E+02  0.10757695596E+03  0.21715725973E+03  0.12500000000E+03 0.  0.
          2    1    1    2  501    0  0.13368054891E+02 -0.37964955869E+02  0.15091750877E+04  0.15097117235E+04  0.00000000000E+00 0. -1.
          1    1    1    2  502    0  0.92169694906E+02 -0.55956593137E+02  0.47525532549E+02  0.11783492359E+03  0.00000000000E+00 0. -1.
<mgrwt>
<rscale>  0 0.69103520E+02</rscale>
<asrwt>0</asrwt>
<pdfrwt beam="2">  1        2 0.13878950E-01 0.11864163E+03</pdfrwt>
<pdfrwt beam="1">  1        1 0.26992163E+00 0.40249755E+02</pdfrwt>
<totfact> 0.33725367E+02</totfact>
</mgrwt>
</event>
<event>
 5    1  0.8891499E-003  0.2547658E+03  0.7546771E-02  0.1319872E+00
          2   -1    0    0  502    0  0.00000000000E+00  0.00000000000E+00  0.30320288048E+03  0.30320288048E+03  0.00000000000E+00 0. -1.
          1   -1    0    0  501    0 -0.00000000000E+00 -0.00000000000E+00 -0.16861698674E+04  0.16861698674E+04  0.00000000000E+00 0. -1.
         25    1    1    2    0    0 -0.16386860649E+03 -0.22410666964E+03 -0.10569635854E+04  0.10999426078E+04  0.12500000000E+03 0.  0.
          2    1    1    2  501    0  0.24250623279E+02  0.12434614171E+02 -0.55025116429E+03  0.55092563578E+03  0.00000000000E+00 0. -1.
          1    1    1    2  502    0  0.13961798322E+03  0.21167205547E+03  0.22424776279E+03  0.33850450428E+03  0.00000000000E+00 0. -1.
<mgrwt>
<rscale>  0 0.83325077E+02</rscale>
<asrwt>0</asrwt>
<pdfrwt beam="1">  1        2 0.46646596E-01 0.25476580E+03</pdfrwt>
<pdfrwt beam="2">  1        1 0.25941076E+00 0.27252750E+02</pdfrwt>
<totfact> 0.10249654E+02</totfact>
</mgrwt>
</event>
<event>
 5    1  0.8891499E-003  0.6279238E+02  0.7546771E-02  0.1479140E+00
          2   -1    0    0  502    0  0.00000000000E+00  0.00000000000E+00  0.13174848861E+04  0.13174848861E+04  0.00000000000E+00 0. -1.
          1   -1    0    0  501    0 -0.00000000000E+00 -0.00000000000E+00 -0.83556937589E+03  0.83556937589E+03  0.00000000000E+00 0. -1.
         25    1    1    2    0    0  0.54204470354E+02  0.69776137302E+02 -0.23274360119E+03  0.27857031040E+03  0.12500000000E+03 0.  0.
          2    1    1    2  501    0 -0.26799872031E+02 -0.54925769931E+02 -0.57811385696E+03  0.58133527757E+03  0.00000000000E+00 0. -1.
          1    1    1    2  502    0 -0.27404598322E+02 -0.14850367371E+02  0.12927729684E+04  0.12931486741E+04  0.00000000000E+00 0. -1.
<mgrwt>
<rscale>  0 0.44240420E+02</rscale>
<asrwt>0</asrwt>
<pdfrwt beam="1">  1        2 0.20268998E+00 0.31169623E+02</pdfrwt>
<pdfrwt beam="2">  1        1 0.12854914E+00 0.62792377E+02</pdfrwt>
<totfact> 0.63990584E+01</totfact>
</mgrwt>
</event>
<event>
 5    1  0.8891499E-003  0.5690123E+02  0.7546771E-02  0.1438242E+00
         -2   -1    0    0    0  501 -0.00000000000E+00  0.00000000000E+00  0.17448069991E+03  0.17448069991E+03  0.00000000000E+00 0.  1.
          2   -1    0    0  502    0  0.00000000000E+00 -0.00000000000E+00 -0.86476848005E+03  0.86476848005E+03  0.00000000000E+00 0. -1.
         25    1    1    2    0    0 -0.16226465413E+02 -0.55934546075E+01 -0.32312806454E+03  0.34688806697E+03  0.12500000000E+03 0.  0.
          1    1    1    2  502    0  0.56628201907E+02  0.28255240676E+02 -0.52452004607E+03  0.52832413403E+03  0.00000000000E+00 0. -1.
         -1    1    1    2    0  501 -0.40401736494E+02 -0.22661786068E+02  0.15736033047E+03  0.16403697895E+03  0.00000000000E+00 0.  1.
<mgrwt>
<rscale>  0 0.51340609E+02</rscale>
<asrwt>0</asrwt>
<pdfrwt beam="2">  1        2 0.13304130E+00 0.56901231E+02</pdfrwt>
<pdfrwt beam="1">  1       -2 0.26843185E-01 0.46323394E+02</pdfrwt>
<totfact> 0.41181057E+02</totfact>
</mgrwt>
</event>
<event>
 5    1  0.8891499E-003  0.3890869E+02  0.7546771E-02  0.1549673E+00
          2   -1    0    0  502    0  0.00000000000E+00  0.00000000000E+00  0.18981432114E+03  0.18981432114E+03  0.00000000000E+00 0. -1.
          1   -1    0    0  501    0 -0.00000000000E+00 -0.00000000000E+00 -0.24665277598E+03  0.24665277598E+03  0.00000000000E+00 0. -1.
         25    1    1    2    0    0 -0.13331648542E+02  0.28026832067E+01 -0.38816501916E+02  0.13159524576E+03  0.12500000000E+03 0.  0.
          2    1    1    2  501    0  0.35741561520E+02  0.19002403593E+02 -0.15714687373E+03  0.16227658637E+03  0.00000000000E+00 0. -1.
          1    1    1    2  502    0 -0.22409912978E+02 -0.21805086800E+02  0.13912492080E+03  0.14259526499E+03  0.00000000000E+00 0. -1.
<mgrwt>
<rscale>  0 0.34879557E+02</rscale>
<asrwt>0</asrwt>
<pdfrwt beam="1">  1        2 0.29202203E-01 0.31267651E+02</pdfrwt>
<pdfrwt beam="2">  1        1 0.37946581E-01 0.38908694E+02</pdfrwt>
<totfact> 0.25554210E+03</totfact>
</mgrwt>
</event>
<event>
 5    1  0.8891499E-003  0.6030353E+02  0.7546771E-02  0.1541389E+00
         -2   -1    0    0    0  501 -0.00000000000E+00  0.00000000000E+00  0.47486634352E+03  0.47486634352E+03  0.00000000000E+00 0.  1.
          2   -1    0    0  502    0  0.00000000000E+00 -0.00000000000E+00 -0.29236160759E+03  0.29236160759E+03  0.00000000000E+00 0. -1.
         25    1    1    2    0    0 -0.22267981568E+02  0.52780822854E+02  0.12055797725E+03  0.18286854334E+03  0.12500000000E+03 0.  0.
          1    1    1    2  502    0 -0.19516265073E+02 -0.84915671223E+01 -0.25789585838E+03  0.25877261270E+03  0.00000000000E+00 0. -1.
         -1    1    1    2    0  501  0.41784246641E+02 -0.44289255731E+02  0.31984261706E+03  0.32558679507E+03  0.00000000000E+00 0.  1.
<mgrwt>
<rscale>  0 0.35825629E+02</rscale>
<asrwt>0</asrwt>
<pdfrwt beam="2">  1        2 0.44978709E-01 0.21283593E+02</pdfrwt>
<pdfrwt beam="1">  1       -2 0.73056360E-01 0.60303528E+02</pdfrwt>
<totfact> 0.19628567E+02</totfact>
</mgrwt>
</event>
<event>
 5    1  0.1122822E-002  0.8172863E+02  0.7546771E-02  0.1325515E+00
          1   -1    0    0  501    0 -0.00000000000E+00  0.00000000000E+00  0.13044973519E+04  0.13044973519E+04  0.00000000000E+00 0. -1.
          2   -1    0    0  502    0  0.00000000000E+00 -0.00000000000E+00 -0.10412987693E+04  0.10412987693E+04  0.00000000000E+00 0. -1.
         25    1    1    2    0    0  0.97277357706E+00  0.78535202304E+02  0.35391600253E+03  0.38347133027E+03  0.12500000000E+03 0.  0.
          2    1    1    2  501    0  0.70765617185E+02 -0.38984016988E+02  0.93241968551E+03  0.93591345545E+03  0.00000000000E+00 0. -1.
          1    1    1    2  502    0 -0.71738390762E+02 -0.39551185316E+02 -0.10231371055E+04  0.10264113355E+04  0.00000000000E+00 0. -1.
<mgrwt>
<rscale>  0 0.81259521E+02</rscale>
<asrwt>0</asrwt>
<pdfrwt beam="2">  1        2 0.16019981E+00 0.81728627E+02</pdfrwt>
<pdfrwt beam="1">  1        1 0.20069190E+00 0.80793107E+02</pdfrwt>
<totfact> 0.38853626E+01</totfact>
</mgrwt>
</event>
<event>
 5    1  0.8891499E-003  0.3470782E+02  0.7546771E-02  0.1600068E+00
          1   -1    0    0  501    0 -0.00000000000E+00  0.00000000000E+00  0.20801887181E+03  0.20801887181E+03  0.00000000000E+00 0. -1.
          2   -1    0    0  502    0  0.00000000000E+00 -0.00000000000E+00 -0.93281173191E+02  0.93281173191E+02  0.00000000000E+00 0. -1.
         25    1    1    2    0    0 -0.46523951524E+02  0.90234769259E+01  0.11060897206E+03  0.17350863351E+03  0.12500000000E+03 0.  0.
          2    1    1    2  501    0  0.21194669586E+02  0.14399559825E+02  0.58234533317E+02  0.63622497692E+02  0.00000000000E+00 0. -1.
          1    1    1    2  502    0  0.25329281938E+02 -0.23423036751E+02 -0.54105806755E+02  0.64168913804E+02  0.00000000000E+00 0. -1.
<mgrwt>
<rscale>  0 0.29821705E+02</rscale>
<asrwt>0</asrwt>
<pdfrwt beam="2">  1        2 0.14350950E-01 0.34707816E+02</pdfrwt>
<pdfrwt beam="1">  1        1 0.32002903E-01 0.25623453E+02</pdfrwt>
<totfact> 0.66651425E+03</totfact>
</mgrwt>
</event>
<event>
 5    1  0.8891499E-003  0.1914506E+03  0.7546771E-02  0.1219435E+00
          2   -1    0    0  502    0  0.00000000000E+00  0.00000000000E+00  0.97506344822E+02  0.97506344822E+02  0.00000000000E+00 0. -1.
          1   -1    0    0  501    0 -0.00000000000E+00 -0.00000000000E+00 -0.86240232196E+03  0.86240232196E+03  0.00000000000E+00 0. -1.
         25    1    1    2    0    0 -0.11076229189E+03  0.13744114030E+03 -0.37333879787E+03  0.43146866671E+03  0.12500000000E+03 0.  0.
          2    1    1    2  501    0  0.72159440275E+02  0.63288713830E+02 -0.27909225563E+03  0.29513544903E+03  0.00000000000E+00 0. -1.
          1    1    1    2  502    0  0.38602851615E+02 -0.20072985413E+03 -0.11246492363E+03  0.23330455105E+03  0.00000000000E+00 0. -1.
<mgrwt>
<rscale>  0 0.13555705E+03</rscale>
<asrwt>0</asrwt>
<pdfrwt beam="1">  1        2 0.15000977E-01 0.19145061E+03</pdfrwt>
<pdfrwt beam="2">  1        1 0.13267728E+00 0.95981488E+02</pdfrwt>
<totfact> 0.11277387E+03</totfact>
</mgrwt>
</event>
<event>
 5    1  0.8891499E-003  0.7156794E+02  0.7546771E-02  0.1391939E+00
          2   -1    0    0  502    0  0.00000000000E+00  0.00000000000E+00  0.20766522840E+04  0.20766522840E+04  0.00000000000E+00 0. -1.
          1   -1    0    0  501    0 -0.00000000000E+00 -0.00000000000E+00 -0.51388788335E+02  0.51388788335E+02  0.00000000000E+00 0. -1.
         25    1    1    2    0    0  0.99377983733E+02  0.45061809397E+02  0.15697094025E+04  0.15784546742E+04  0.12500000000E+03 0.  0.
          2    1    1    2  501    0 -0.44704501120E+02 -0.27950340499E+02 -0.30002489651E+02  0.60661877152E+02  0.00000000000E+00 0. -1.
          1    1    1    2  502    0 -0.54673482614E+02 -0.17111468898E+02  0.48555658276E+03  0.48892452090E+03  0.00000000000E+00 0. -1.
<mgrwt>
<rscale>  0 0.61426998E+02</rscale>
<asrwt>0</asrwt>
<pdfrwt beam="1">  1        2 0.31948490E+00 0.71567942E+02</pdfrwt>
<pdfrwt beam="2">  1        1 0.79059690E-02 0.52722993E+02</pdfrwt>
<totfact> 0.83683800E+02</totfact>
</mgrwt>
</event>
<event>
 5    1  0.8891499E-003  0.5637954E+02  0.7546771E-02  0.1516778E+00
          2   -1    0    0  502    0  0.00000000000E+00  0.00000000000E+00  0.13423247666E+03  0.13423247666E+03  0.00000000000E+00 0. -1.
          1   -1    0    0  501    0 -0.00000000000E+00 -0.00000000000E+00 -0.35524075712E+03  0.35524075712E+03  0.00000000000E+00 0. -1.
         25    1    1    2    0    0 -0.17473120924E+02 -0.58904896183E+02 -0.24044022637E+03  0.27786975223E+03  0.12500000000E+03 0.  0.
          2    1    1    2  501    0  0.26586638755E+02  0.32420246282E+01 -0.87065247241E+02  0.91091807322E+02  0.00000000000E+00 0. -1.
          1    1    1    2  502    0 -0.91135178306E+01  0.55662871555E+02  0.10649719314E+03  0.12051167423E+03  0.00000000000E+00 0. -1.
<mgrwt>
<rscale>  0 0.38859309E+02</rscale>
<asrwt>0</asrwt>
<pdfrwt beam="1">  1        2 0.20651150E-01 0.56379542E+02</pdfrwt>
<pdfrwt beam="2">  1        1 0.54652424E-01 0.26783579E+02</pdfrwt>
<totfact> 0.24557729E+03</totfact>
</mgrwt>
</event>
<event>
 5    1  0.8891499E-003  0.1098055E+03  0.7546771E-02  0.1287290E+00
         -2   -1    0    0    0  501 -0.00000000000E+00  0.00000000000E+00  0.28131619399E+02  0.28131619399E+02  0.00000000000E+00 0.  1.
          2   -1    0    0  502    0  0.00000000000E+00 -0.00000000000E+00 -0.24845907048E+04  0.24845907048E+04  0.00000000000E+00 0. -1.
         25    1    1    2    0    0  0.10669178042E+03 -0.34349317888E+02 -0.47831249230E+03  0.50692292505E+03  0.12500000000E+03 0.  0.
          1    1    1    2  502    0 -0.48043053564E+02 -0.70411645561E+02 -0.17085806273E+04  0.17107056131E+04  0.00000000000E+00 0. -1.
         -1    1    1    2    0  501 -0.58648726857E+02  0.10476096345E+03 -0.26956596575E+03  0.29509378596E+03  0.00000000000E+00 0.  1.
<mgrwt>
<rscale>  0 0.96746443E+02</rscale>
<asrwt>0</asrwt>
<pdfrwt beam="2">  1        2 0.38224467E+00 0.85240453E+02</pdfrwt>
<pdfrwt beam="1">  1       -2 0.43279421E-02 0.10980554E+03</pdfrwt>
<totfact> 0.10683904E+03</totfact>
</mgrwt>
</event>
<event>
 5    1  0.8891499E-003  0.6720165E+02  0.7546771E-02  0.1492598E+00
          2   -1    0    0  502    0  0.00000000000E+00  0.00000000000E+00  0.25470077440E+04  0.25470077440E+04  0.00000000000E+00 0. -1.
         -2   -1    0    0    0  501 -0.00000000000E+00 -0.00000000000E+00 -0.45268070624E+03  0.45268070624E+03  0.00000000000E+00 0.  1.
         25    1    1    2    0    0  0.67558267445E+02 -0.48379020312E+02  0.22497870725E+03  0.27045344853E+03  0.12500000000E+03 0.  0.
          3    1    1    2  502    0 -0.63123764982E+02  0.22248824575E+02  0.22983955949E+04  0.22993698985E+04  0.00000000000E+00 0. -1.
         -1    1    1    2    0  501 -0.44345024634E+01  0.26130195737E+02 -0.42904726431E+03  0.42986510320E+03  0.00000000000E+00 0.  1.
<mgrwt>
<rscale>  0 0.42203077E+02</rscale>
<asrwt>0</asrwt>
<pdfrwt beam="1">  1        2 0.39184734E+00 0.67201647E+02</pdfrwt>
<pdfrwt beam="2">  1       -2 0.69643187E-01 0.26503810E+02</pdfrwt>
<totfact> 0.91394557E+00</totfact>
</mgrwt>
</event>
<event>
 5    1  0.8891499E-003  0.6716361E+02  0.7546771E-02  0.1453671E+00
          2   -1    0    0  502    0  0.00000000000E+00  0.00000000000E+00  0.19561450829E+04  0.19561450829E+04  0.00000000000E+00 0. -1.
          1   -1    0    0  501    0 -0.00000000000E+00 -0.00000000000E+00 -0.28741001593E+03  0.28741001593E+03  0.00000000000E+00 0. -1.
         25    1    1    2    0    0 -0.41628651900E+02  0.17517762288E+02  0.31032125911E+03  0.33758569358E+03  0.12500000000E+03 0.  0.
          2    1    1    2  501    0  0.67213487897E+02  0.63738011681E+01 -0.26942437612E+03  0.27775487888E+03  0.00000000000E+00 0. -1.
          1    1    1    2  502    0 -0.25584835997E+02 -0.23891563456E+02  0.16278381840E+04  0.16282145264E+04  0.00000000000E+00 0. -1.
<mgrwt>
<rscale>  0 0.48488153E+02</rscale>
<asrwt>0</asrwt>
<pdfrwt beam="1">  1        2 0.30094539E+00 0.35005580E+02</pdfrwt>
<pdfrwt beam="2">  1        1 0.44216927E-01 0.67163606E+02</pdfrwt>
<totfact> 0.12346135E+02</totfact>
</mgrwt>
</event>
<event>
 5    1  0.8891499E-003  0.9168958E+02  0.7546771E-02  0.1352087E+00
          2   -1    0    0  502    0  0.00000000000E+00  0.00000000000E+00  0.12075548289E+04  0.12075548289E+04  0.00000000000E+00 0. -1.
         -2   -1    0    0    0  501 -0.00000000000E+00 -0.00000000000E+00 -0.94782598864E+03  0.94782598864E+03  0.00000000000E+00 0.  1.
         25    1    1    2    0    0  0.46481839612E+02  0.96471348342E+02  0.42535508646E+02  0.17000456453E+03  0.12500000000E+03 0.  0.
          1    1    1    2  502    0 -0.56930980668E+02 -0.53621624270E+01  0.10981607252E+04  0.10996485201E+04  0.00000000000E+00 0. -1.
         -1    1    1    2    0  501  0.10449141056E+02 -0.91109185915E+02 -0.88096739359E+03  0.88572773292E+03  0.00000000000E+00 0.  1.
<mgrwt>
<rscale>  0 0.72409117E+02</rscale>
<asrwt>0</asrwt>
<pdfrwt beam="1">  1        2 0.18577767E+00 0.57182946E+02</pdfrwt>
<pdfrwt beam="2">  1       -2 0.14581938E+00 0.91689577E+02</pdfrwt>
<totfact> 0.79708562E+00</totfact>
</mgrwt>
</event>
<event>
 5    1  0.8891499E-003  0.1140308E+03  0.7546771E-02  0.1332869E+00
         -2   -1    0    0    0  501 -0.00000000000E+00  0.00000000000E+00  0.34136793398E+03  0.34136793398E+03  0.00000000000E+00 0.  1.
          2   -1    0    0  502    0  0.00000000000E+00 -0.00000000000E+00 -0.28275906155E+04  0.28275906155E+04  0.00000000000E+00 0. -1.
         25    1    1    2    0    0  0.14135324577E+03 -0.24769722199E+02 -0.85434214973E+03  0.87528269035E+03  0.12500000000E+03 0.  0.
          1    1    1    2  502    0 -0.96160863609E+02  0.54825327371E+02 -0.19589796913E+04  0.19621045230E+04  0.00000000000E+00 0. -1.
         -1    1    1    2    0  501 -0.45192382158E+02 -0.30055605172E+02  0.32709915950E+03  0.33157133615E+03  0.00000000000E+00 0.  1.
<mgrwt>
<rscale>  0 0.78669784E+02</rscale>
<asrwt>0</asrwt>
<pdfrwt beam="2">  1        2 0.43501392E+00 0.11403084E+03</pdfrwt>
<pdfrwt beam="1">  1       -2 0.52518146E-01 0.54274219E+02</pdfrwt>
<totfact> 0.10532441E+01</totfact>
</mgrwt>
</event>
<event>
 5    1  0.8891499E-003  0.1706727E+03  0.7546771E-02  0.1322005E+00
          2   -1    0    0  502    0  0.00000000000E+00  0.00000000000E+00  0.13065565426E+04  0.13065565426E+04  0.00000000000E+00 0. -1.
          1   -1    0    0  501    0 -0.00000000000E+00 -0.00000000000E+00 -0.81156783816E+03  0.81156783816E+03  0.00000000000E+00 0. -1.
         25    1    1    2    0    0 -0.28118681959E+01 -0.14995812448E+03 -0.14467376716E+03  0.24300379545E+03  0.12500000000E+03 0.  0.
          2    1    1    2  501    0  0.35474236661E+02 -0.18294507334E+02 -0.61123451073E+03  0.61253631531E+03  0.00000000000E+00 0. -1.
          1    1    1    2  502    0 -0.32662368465E+02  0.16825263181E+03  0.12508969823E+04  0.12625842700E+04  0.00000000000E+00 0. -1.
<mgrwt>
<rscale>  0 0.82536014E+02</rscale>
<asrwt>0</asrwt>
<pdfrwt beam="1">  1        2 0.20100870E+00 0.17067269E+03</pdfrwt>
<pdfrwt beam="2">  1        1 0.12485659E+00 0.39913788E+02</pdfrwt>
<totfact> 0.61304681E+01</totfact>
</mgrwt>
</event>
<event>
 5    1  0.8891499E-003  0.4063498E+02  0.7546771E-02  0.1554496E+00
          1   -1    0    0  502    0  0.00000000000E+00  0.00000000000E+00  0.15360117058E+04  0.15360117058E+04  0.00000000000E+00 0. -1.
         -1   -1    0    0    0  501 -0.00000000000E+00 -0.00000000000E+00 -0.18107556796E+02  0.18107556796E+02  0.00000000000E+00 0.  1.
         25    1    1    2    0    0  0.12357615990E+02  0.48828856900E+02  0.84860826327E+03  0.85924266214E+03  0.12500000000E+03 0.  0.
          2    1    1    2  502    0 -0.26895597039E+02 -0.10921544803E+02  0.64870480802E+03  0.64935397221E+03  0.00000000000E+00 0. -1.
         -2    1    1    2    0  501  0.14537981049E+02 -0.37907312096E+02  0.20591077755E+02  0.45522628290E+02  0.00000000000E+00 0.  1.
<mgrwt>
<rscale>  0 0.34344901E+02</rscale>
<asrwt>0</asrwt>
<pdfrwt beam="1">  1        1 0.23630939E+00 0.29028491E+02</pdfrwt>
<pdfrwt beam="2">  1       -1 0.27857792E-02 0.40634984E+02</pdfrwt>
<totfact> 0.28492855E+03</totfact>
</mgrwt>
</event>
<event>
 5    1  0.8891499E-003  0.5180074E+02  0.7546771E-02  0.1492791E+00
          1   -1    0    0  502    0  0.00000000000E+00  0.00000000000E+00  0.14979335599E+04  0.14979335599E+04  0.00000000000E+00 0. -1.
         -1   -1    0    0    0  501 -0.00000000000E+00 -0.00000000000E+00 -0.78365954994E+02  0.78365954994E+02  0.00000000000E+00 0.  1.
         25    1    1    2    0    0 -0.77904498634E+02 -0.16373224734E+02  0.58482333765E+02  0.15931847588E+03  0.12500000000E+03 0.  0.
          2    1    1    2  502    0  0.34324299386E+02 -0.95866369837E+00  0.13689889664E+04  0.13694195364E+04  0.00000000000E+00 0. -1.
         -2    1    1    2    0  501  0.43580199248E+02  0.17331888433E+02 -0.79036953316E+01  0.47561502532E+02  0.00000000000E+00 0.  1.
<mgrwt>
<rscale>  0 0.42174844E+02</rscale>
<asrwt>0</asrwt>
<pdfrwt beam="1">  1        1 0.23045130E+00 0.34337684E+02</pdfrwt>
<pdfrwt beam="2">  1       -1 0.12056302E-01 0.51800741E+02</pdfrwt>
<totfact> 0.36496463E+02</totfact>
</mgrwt>
</event>
<event>
 5    1  0.8891499E-003  0.1834707E+03  0.7546771E-02  0.1316839E+00
          2   -1    0    0  502    0  0.00000000000E+00  0.00000000000E+00  0.10650081863E+03  0.10650081863E+03  0.00000000000E+00 0. -1.
          1   -1    0    0  501    0 -0.00000000000E+00 -0.00000000000E+00 -0.21331818510E+04  0.21331818510E+04  0.00000000000E+00 0. -1.
         25    1    1    2    0    0  0.10922907914E+03  0.16756388989E+03 -0.31780289911E+03  0.39576802752E+03  0.12500000000E+03 0.  0.
          2    1    1    2  501    0 -0.38738513159E+02 -0.33702055500E+01 -0.16575460778E+04  0.16580021202E+04  0.00000000000E+00 0. -1.
          1    1    1    2  502    0 -0.70490565981E+02 -0.16419368434E+03 -0.51332055447E+02  0.18591252187E+03  0.00000000000E+00 0. -1.
<mgrwt>
<rscale>  0 0.84464354E+02</rscale>
<asrwt>0</asrwt>
<pdfrwt beam="1">  1        2 0.16384741E-01 0.18347066E+03</pdfrwt>
<pdfrwt beam="2">  1        1 0.32818183E+00 0.38884839E+02</pdfrwt>
<totfact> 0.16742249E+02</totfact>
</mgrwt>
</event>
<event>
 5    1  0.8891499E-003  0.4865849E+02  0.7546771E-02  0.1543648E+00
          1   -1    0    0  501    0 -0.00000000000E+00  0.00000000000E+00  0.77780307757E+03  0.77780307757E+03  0.00000000000E+00 0. -1.
          2   -1    0    0  502    0  0.00000000000E+00 -0.00000000000E+00 -0.14760553935E+04  0.14760553935E+04  0.00000000000E+00 0. -1.
         25    1    1    2    0    0  0.31185169899E+02 -0.51320671376E+02 -0.25520263020E+03  0.29044742828E+03  0.12500000000E+03 0.  0.
          2    1    1    2  501    0 -0.40439925618E+02  0.27030531608E+02  0.75926194224E+03  0.76081846334E+03  0.00000000000E+00 0. -1.
          1    1    1    2  502    0  0.92547557197E+01  0.24290139768E+02 -0.12023116279E+04  0.12025925794E+04  0.00000000000E+00 0. -1.
<mgrwt>
<rscale>  0 0.35564081E+02</rscale>
<asrwt>0</asrwt>
<pdfrwt beam="2">  1        2 0.22708544E+00 0.25993488E+02</pdfrwt>
<pdfrwt beam="1">  1        1 0.11966201E+00 0.48658491E+02</pdfrwt>
<totfact> 0.61204919E+01</totfact>
</mgrwt>
</event>
<event>
 5    1  0.8891499E-003  0.3765672E+02  0.7546771E-02  0.1527956E+00
         -1   -1    0    0    0  501 -0.00000000000E+00  0.00000000000E+00  0.36873983869E+02  0.36873983869E+02  0.00000000000E+00 0.  1.
          1   -1    0    0  502    0  0.00000000000E+00 -0.00000000000E+00 -0.52842214259E+03  0.52842214259E+03  0.00000000000E+00 0. -1.
         25    1    1    2    0    0  0.34195755145E+01 -0.35220623814E+01 -0.14521073622E+03  0.19166443680E+03  0.12500000000E+03 0.  0.
          2    1    1    2  502    0 -0.35310441895E+02 -0.16502950264E+02 -0.33048304489E+03  0.33277352304E+03  0.00000000000E+00 0. -1.
         -2    1    1    2    0  501  0.31890866381E+02  0.20025012646E+02 -0.15854377601E+02  0.40858166615E+02  0.00000000000E+00 0.  1.
<mgrwt>
<rscale>  0 0.37438339E+02</rscale>
<asrwt>0</asrwt>
<pdfrwt beam="2">  1        1 0.81295706E-01 0.37221225E+02</pdfrwt>
<pdfrwt beam="1">  1       -1 0.56729212E-02 0.37656719E+02</pdfrwt>
<totfact> 0.53490381E+03</totfact>
</mgrwt>
</event>
<event>
 5    1  0.8891499E-003  0.9317254E+02  0.7546771E-02  0.1417311E+00
          1   -1    0    0  501    0 -0.00000000000E+00  0.00000000000E+00  0.77153151632E+03  0.77153151632E+03  0.00000000000E+00 0. -1.
          2   -1    0    0  502    0  0.00000000000E+00 -0.00000000000E+00 -0.14517121898E+03  0.14517121898E+03  0.00000000000E+00 0. -1.
         25    1    1    2    0    0  0.17007003515E+02  0.75698150386E+02  0.38446647685E+03  0.41165388369E+03  0.12500000000E+03 0.  0.
          2    1    1    2  501    0  0.30919385020E+01 -0.10208719866E+03  0.36423850313E+03  0.37828698547E+03  0.00000000000E+00 0. -1.
          1    1    1    2  502    0 -0.20098942017E+02  0.26389048273E+02 -0.12234468264E+03  0.12676186615E+03  0.00000000000E+00 0. -1.
<mgrwt>
<rscale>  0 0.55593833E+02</rscale>
<asrwt>0</asrwt>
<pdfrwt beam="2">  1        2 0.22334034E-01 0.33171514E+02</pdfrwt>
<pdfrwt beam="1">  1        1 0.11869715E+00 0.93172541E+02</pdfrwt>
<totfact> 0.79181250E+02</totfact>
</mgrwt>
</event>
<event>
 5    1  0.8891499E-003  0.5485003E+02  0.7546771E-02  0.1453243E+00
          1   -1    0    0  502    0  0.00000000000E+00  0.00000000000E+00  0.10961760455E+03  0.10961760455E+03  0.00000000000E+00 0. -1.
         -1   -1    0    0    0  501 -0.00000000000E+00 -0.00000000000E+00 -0.89811857793E+03  0.89811857793E+03  0.00000000000E+00 0.  1.
         25    1    1    2    0    0  0.91680778329E+01 -0.21271186138E+02 -0.13405220529E+02  0.12783276946E+03  0.12500000000E+03 0.  0.
          2    1    1    2  502    0 -0.43741977096E+02  0.46835945178E+02  0.32022344544E+02  0.71640748678E+02  0.00000000000E+00 0. -1.
         -2    1    1    2    0  501  0.34573899263E+02 -0.25564759040E+02 -0.80711809740E+03  0.80826266434E+03  0.00000000000E+00 0.  1.
<mgrwt>
<rscale>  0 0.48564335E+02</rscale>
<asrwt>0</asrwt>
<pdfrwt beam="1">  1        1 0.16864248E-01 0.54850026E+02</pdfrwt>
<pdfrwt beam="2">  1       -1 0.13817208E+00 0.42998970E+02</pdfrwt>
<totfact> 0.15746034E+02</totfact>
</mgrwt>
</event>
<event>
 5    1  0.8891499E-003  0.1505841E+03  0.7546771E-02  0.1241124E+00
          1   -1    0    0  501    0 -0.00000000000E+00  0.00000000000E+00  0.21534493450E+04  0.21534493450E+04  0.00000000000E+00 0. -1.
          2   -1    0    0  502    0  0.00000000000E+00 -0.00000000000E+00 -0.32963369375E+03  0.32963369375E+03  0.00000000000E+00 0. -1.
         25    1    1    2    0    0  0.21558547676E+03 -0.40377662985E+02  0.19250583672E+03  0.31747590559E+03  0.12500000000E+03 0.  0.
          2    1    1    2  501    0 -0.12567851624E+03  0.78245012623E+02  0.18865544979E+04  0.18923544184E+04  0.00000000000E+00 0. -1.
          1    1    1    2  502    0 -0.89906960510E+02 -0.37867349638E+02 -0.25524468337E+03  0.27325271473E+03  0.00000000000E+00 0. -1.
<mgrwt>
<rscale>  0 0.12120396E+03</rscale>
<asrwt>0</asrwt>
<pdfrwt beam="2">  1        2 0.50712877E-01 0.97556126E+02</pdfrwt>
<pdfrwt beam="1">  1        1 0.33129989E+00 0.15058410E+03</pdfrwt>
<totfact> 0.38833725E+01</totfact>
</mgrwt>
</event>
<event>
 5    1  0.8891499E-003  0.1138684E+03  0.7546771E-02  0.1308792E+00
          1   -1    0    0  502    0  0.00000000000E+00  0.00000000000E+00  0.35329035778E+03  0.35329035778E+03  0.00000000000E+00 0. -1.
         -1   -1    0    0    0  501 -0.00000000000E+00 -0.00000000000E+00 -0.76484165287E+03  0.76484165287E+03  0.00000000000E+00 0.  1.
         25    1    1    2    0    0 -0.43939210510E+02  0.26865525001E+02 -0.13089889482E+03  0.18818058168E+03  0.12500000000E+03 0.  0.
          2    1    1    2  502    0  0.10787935160E+03 -0.48112161166E+02  0.31193241204E+03  0.33354844361E+03  0.00000000000E+00 0. -1.
         -2    1    1    2    0  501 -0.63940141086E+02  0.21246636165E+02 -0.59258481230E+03  0.59640298537E+03  0.00000000000E+00 0.  1.
<mgrwt>
<rscale>  0 0.87591067E+02</rscale>
<asrwt>0</asrwt>
<pdfrwt beam="1">  1        1 0.54352363E-01 0.11386838E+03</pdfrwt>
<pdfrwt beam="2">  1       -1 0.11766795E+00 0.67377750E+02</pdfrwt>
<totfact> 0.53938705E+01</totfact>
</mgrwt>
</event>
<event>
 5    1  0.8891499E-003  0.1191037E+03  0.7546771E-02  0.1435259E+00
          1   -1    0    0  501    0 -0.00000000000E+00  0.00000000000E+00  0.16395449748E+04  0.16395449748E+04  0.00000000000E+00 0. -1.
          2   -1    0    0  502    0  0.00000000000E+00 -0.00000000000E+00 -0.37127539880E+03  0.37127539880E+03  0.00000000000E+00 0. -1.
         25    1    1    2    0    0 -0.13093864947E+03  0.23131408750E+00  0.93062212923E+03  0.94806515116E+03  0.12500000000E+03 0.  0.
          2    1    1    2  501    0  0.13385825074E+02  0.18249083429E+02  0.69024667223E+03  0.69061760612E+03  0.00000000000E+00 0. -1.
          3    1    1    2  502    0  0.11755282440E+03 -0.18480397517E+02 -0.35259922551E+03  0.37213761627E+03  0.00000000000E+00 0. -1.
<mgrwt>
<rscale>  0 0.51918787E+02</rscale>
<asrwt>0</asrwt>
<pdfrwt beam="2">  1        2 0.57119293E-01 0.11910372E+03</pdfrwt>
<pdfrwt beam="1">  1        1 0.25223768E+00 0.22632043E+02</pdfrwt>
<totfact> 0.90070662E+01</totfact>
</mgrwt>
</event>
<event>
 5    1  0.8891499E-003  0.7254021E+02  0.7546771E-02  0.1465146E+00
          2   -1    0    0  502    0  0.00000000000E+00  0.00000000000E+00  0.14084525247E+03  0.14084525247E+03  0.00000000000E+00 0. -1.
          1   -1    0    0  501    0 -0.00000000000E+00 -0.00000000000E+00 -0.15547877324E+04  0.15547877324E+04  0.00000000000E+00 0. -1.
         25    1    1    2    0    0 -0.31678918938E+02 -0.33530479113E+02 -0.10466777810E+04  0.10551242696E+04  0.12500000000E+03 0.  0.
          2    1    1    2  501    0 -0.48915323436E+01 -0.29412792260E+02 -0.49370797842E+03  0.49460752865E+03  0.00000000000E+00 0. -1.
          1    1    1    2  502    0  0.36570451281E+02  0.62943271373E+02  0.12644327954E+03  0.14590118663E+03  0.00000000000E+00 0. -1.
<mgrwt>
<rscale>  0 0.46507144E+02</rscale>
<asrwt>0</asrwt>
<pdfrwt beam="1">  1        2 0.21668501E-01 0.72540213E+02</pdfrwt>
<pdfrwt beam="2">  1        1 0.23919810E+00 0.29816764E+02</pdfrwt>
<totfact> 0.27236411E+02</totfact>
</mgrwt>
</event>
<event>
 5    1  0.8891499E-003  0.1139691E+03  0.7546771E-02  0.1350081E+00
          2   -1    0    0  502    0  0.00000000000E+00  0.00000000000E+00  0.72582474706E+03  0.72582474706E+03  0.00000000000E+00 0. -1.
          1   -1    0    0  501    0 -0.00000000000E+00 -0.00000000000E+00 -0.21731824770E+03  0.21731824770E+03  0.00000000000E+00 0. -1.
         25    1    1    2    0    0 -0.73685128421E+02  0.13561081633E+03 -0.37987527354E+01  0.19864345491E+03  0.12500000000E+03 0.  0.
          2    1    1    2  501    0  0.35767931352E+02 -0.30176728972E+02 -0.10613363975E+03  0.11599279879E+03  0.00000000000E+00 0. -1.
          1    1    1    2  502    0  0.37917197069E+02 -0.10543408736E+03  0.61843889185E+03  0.62850674106E+03  0.00000000000E+00 0. -1.
<mgrwt>
<rscale>  0 0.73030374E+02</rscale>
<asrwt>0</asrwt>
<pdfrwt beam="1">  1        2 0.11166534E+00 0.11396906E+03</pdfrwt>
<pdfrwt beam="2">  1        1 0.33433577E-01 0.46797221E+02</pdfrwt>
<totfact> 0.72340266E+02</totfact>
</mgrwt>
</event>
<event>
 5    1  0.8891499E-003  0.7482260E+02  0.7546771E-02  0.1486222E+00
          1   -1    0    0  501    0 -0.00000000000E+00  0.00000000000E+00  0.12318274237E+04  0.12318274237E+04  0.00000000000E+00 0. -1.
          2   -1    0    0  502    0  0.00000000000E+00 -0.00000000000E+00 -0.13580876891E+04  0.13580876891E+04  0.00000000000E+00 0. -1.
         25    1    1    2    0    0 -0.55720966529E+02 -0.61154592121E+02 -0.20482973926E+03  0.25382066963E+03  0.12500000000E+03 0.  0.
          2    1    1    2  501    0  0.64506277419E+02  0.37870540967E+02  0.12060359203E+04  0.12083533750E+04  0.00000000000E+00 0. -1.
          1    1    1    2  502    0 -0.87853108897E+01  0.23284051154E+02 -0.11274664465E+04  0.11277410681E+04  0.00000000000E+00 0. -1.
<mgrwt>
<rscale>  0 0.43151580E+02</rscale>
<asrwt>0</asrwt>
<pdfrwt beam="2">  1        2 0.20893657E+00 0.24886316E+02</pdfrwt>
<pdfrwt beam="1">  1        1 0.18951191E+00 0.74822599E+02</pdfrwt>
<totfact> 0.32278229E+01</totfact>
</mgrwt>
</event>
<event>
 5    1  0.8891499E-003  0.5440271E+02  0.7546771E-02  0.1459559E+00
          1   -1    0    0  501    0 -0.00000000000E+00  0.00000000000E+00  0.77029094823E+03  0.77029094823E+03  0.00000000000E+00 0. -1.
          2   -1    0    0  502    0  0.00000000000E+00 -0.00000000000E+00 -0.12001477400E+03  0.12001477400E+03  0.00000000000E+00 0. -1.
         25    1    1    2    0    0 -0.82662464943E+02  0.16012388246E+02  0.99321828240E+02  0.18049738295E+03  0.12500000000E+03 0.  0.
          2    1    1    2  501    0  0.52354091202E+02  0.12187845929E+02  0.62375128288E+03  0.62606322153E+03  0.00000000000E+00 0. -1.
          3    1    1    2  502    0  0.30308373741E+02 -0.28200234175E+02 -0.72796936890E+02  0.83745117750E+02  0.00000000000E+00 0. -1.
<mgrwt>
<rscale>  0 0.47457353E+02</rscale>
<asrwt>0</asrwt>
<pdfrwt beam="2">  1        2 0.18463812E-01 0.41398680E+02</pdfrwt>
<pdfrwt beam="1">  1        1 0.11850630E+00 0.54402710E+02</pdfrwt>
<totfact> 0.10113041E+03</totfact>
</mgrwt>
</event>
<event>
 5    1  0.8891499E-003  0.6205170E+02  0.7546771E-02  0.1395351E+00
          1   -1    0    0  501    0 -0.00000000000E+00  0.00000000000E+00  0.38883907336E+03  0.38883907336E+03  0.00000000000E+00 0. -1.
          2   -1    0    0  502    0  0.00000000000E+00 -0.00000000000E+00 -0.90476031261E+03  0.90476031261E+03  0.00000000000E+00 0. -1.
         25    1    1    2    0    0 -0.73378010552E+02 -0.20570836484E+02  0.96834610637E+02  0.17552616205E+03  0.12500000000E+03 0.  0.
          2    1    1    2  501    0  0.52547948017E+02 -0.34814251784E+02  0.24769518828E+03  0.25558995533E+03  0.00000000000E+00 0. -1.
          1    1    1    2  502    0  0.20830062535E+02  0.55385088268E+02 -0.86045103817E+03  0.86248326859E+03  0.00000000000E+00 0. -1.
<mgrwt>
<rscale>  0 0.60595064E+02</rscale>
<asrwt>0</asrwt>
<pdfrwt beam="2">  1        2 0.13919389E+00 0.59172625E+02</pdfrwt>
<pdfrwt beam="1">  1        1 0.59821396E-01 0.62051698E+02</pdfrwt>
<totfact> 0.28223761E+02</totfact>
</mgrwt>
</event>
<event>
 5    1  0.8891499E-003  0.9372693E+02  0.7546771E-02  0.1402601E+00
          1   -1    0    0  501    0 -0.00000000000E+00  0.00000000000E+00  0.20456719669E+04  0.20456719669E+04  0.00000000000E+00 0. -1.
          2   -1    0    0  502    0  0.00000000000E+00 -0.00000000000E+00 -0.12145910487E+04  0.12145910487E+04  0.00000000000E+00 0. -1.
         25    1    1    2    0    0 -0.80190037671E+02 -0.98498990373E+02 -0.17074009100E+03  0.24679884911E+03  0.12500000000E+03 0.  0.
          2    1    1    2  501    0  0.47978774637E+02  0.80321292685E+02  0.20062119962E+04  0.20083924035E+04  0.00000000000E+00 0. -1.
          1    1    1    2  502    0  0.32211263035E+02  0.18177697688E+02 -0.10043909869E+04  0.10050717630E+04  0.00000000000E+00 0. -1.
<mgrwt>
<rscale>  0 0.58878027E+02</rscale>
<asrwt>0</asrwt>
<pdfrwt beam="2">  1        2 0.18686016E+00 0.36986405E+02</pdfrwt>
<pdfrwt beam="1">  1        1 0.31471876E+00 0.93726926E+02</pdfrwt>
<totfact> 0.10991147E+01</totfact>
</mgrwt>
</event>
<event>
 5    1  0.8891499E-003  0.3373379E+02  0.7546771E-02  0.1602490E+00
          1   -1    0    0  501    0 -0.00000000000E+00  0.00000000000E+00  0.14796470773E+03  0.14796470773E+03  0.00000000000E+00 0. -1.
          2   -1    0    0  502    0  0.00000000000E+00 -0.00000000000E+00 -0.10581578278E+04  0.10581578278E+04  0.00000000000E+00 0. -1.
         25    1    1    2    0    0  0.18868538542E+02  0.55684199157E+02  0.35319508857E+02  0.14258057192E+03  0.12500000000E+03 0.  0.
          2    1    1    2  501    0 -0.12880841266E+02 -0.22564940675E+02  0.55858333016E+02  0.61605567822E+02  0.00000000000E+00 0. -1.
          3    1    1    2  502    0 -0.59876972764E+01 -0.33119258482E+02 -0.10013709619E+04  0.10019363958E+04  0.00000000000E+00 0. -1.
<mgrwt>
<rscale>  0 0.29605571E+02</rscale>
<asrwt>0</asrwt>
<pdfrwt beam="2">  1        2 0.16279352E+00 0.33733794E+02</pdfrwt>
<pdfrwt beam="1">  1        1 0.22763800E-01 0.25982545E+02</pdfrwt>
<totfact> 0.73866404E+02</totfact>
</mgrwt>
</event>
<event>
 5    1  0.8891499E-003  0.1500168E+03  0.7546771E-02  0.1214152E+00
          1   -1    0    0  502    0  0.00000000000E+00  0.00000000000E+00  0.15148496380E+04  0.15148496380E+04  0.00000000000E+00 0. -1.
         -1   -1    0    0    0  501 -0.00000000000E+00 -0.00000000000E+00 -0.32423050792E+03  0.32423050792E+03  0.00000000000E+00 0.  1.
         25    1    1    2    0    0  0.14728883220E+03  0.11783059776E+03  0.65979111752E+03  0.69751513863E+03  0.12500000000E+03 0.  0.
          2    1    1    2  502    0  0.25749927285E+01 -0.12949017109E+03  0.81225167024E+03  0.82251268124E+03  0.00000000000E+00 0. -1.
         -2    1    1    2    0  501 -0.14986382493E+03  0.11659573336E+02 -0.28142365766E+03  0.31905232606E+03  0.00000000000E+00 0.  1.
<mgrwt>
<rscale>  0 0.13938990E+03</rscale>
<asrwt>0</asrwt>
<pdfrwt beam="1">  1        1 0.23305379E+00 0.12951577E+03</pdfrwt>
<pdfrwt beam="2">  1       -1 0.49881617E-01 0.15001681E+03</pdfrwt>
<totfact> 0.31521944E+01</totfact>
</mgrwt>
</event>
<event>
 5    1  0.8891499E-003  0.5561473E+02  0.7546771E-02  0.1469398E+00
          1   -1    0    0  501    0 -0.00000000000E+00  0.00000000000E+00  0.53424077844E+02  0.53424077844E+02  0.00000000000E+00 0. -1.
          2   -1    0    0  502    0  0.00000000000E+00 -0.00000000000E+00 -0.23273812616E+04  0.23273812616E+04  0.00000000000E+00 0. -1.
         25    1    1    2    0    0  0.47604213442E+02 -0.59354916098E+02 -0.15195051311E+04  0.15265352962E+04  0.12500000000E+03 0.  0.
          2    1    1    2  501    0 -0.18138459062E+00  0.37719785700E+02  0.41806005613E+02  0.56307701418E+02  0.00000000000E+00 0. -1.
          1    1    1    2  502    0 -0.47422828851E+02  0.21635130398E+02 -0.79625805828E+03  0.79796234180E+03  0.00000000000E+00 0. -1.
<mgrwt>
<rscale>  0 0.45801746E+02</rscale>
<asrwt>0</asrwt>
<pdfrwt beam="2">  1        2 0.35805868E+00 0.55614729E+02</pdfrwt>
<pdfrwt beam="1">  1        1 0.82190883E-02 0.37720222E+02</pdfrwt>
<totfact> 0.59752675E+02</totfact>
</mgrwt>
</event>
<event>
 5    1  0.8891499E-003  0.6830517E+02  0.7546771E-02  0.1424292E+00
          1   -1    0    0  502    0  0.00000000000E+00  0.00000000000E+00  0.63552970116E+03  0.63552970116E+03  0.00000000000E+00 0. -1.
         -1   -1    0    0    0  501 -0.00000000000E+00 -0.00000000000E+00 -0.10492174349E+03  0.10492174349E+03  0.00000000000E+00 0.  1.
         25    1    1    2    0    0  0.28805195216E+02 -0.16966572460E+02  0.26750497474E+02  0.13212945534E+03  0.12500000000E+03 0.  0.
          2    1    1    2  502    0 -0.69799123244E+02  0.43703793563E+01  0.54465742057E+03  0.54912905915E+03  0.00000000000E+00 0. -1.
         -2    1    1    2    0  501  0.40993928028E+02  0.12596193104E+02 -0.40799960364E+02  0.59192930166E+02  0.00000000000E+00 0.  1.
<mgrwt>
<rscale>  0 0.54123022E+02</rscale>
<asrwt>0</asrwt>
<pdfrwt beam="1">  1        1 0.97773798E-01 0.68305173E+02</pdfrwt>
<pdfrwt beam="2">  1       -1 0.16141807E-01 0.42885501E+02</pdfrwt>
<totfact> 0.89785531E+02</totfact>
</mgrwt>
</event>
<event>
 5    1  0.8891499E-003  0.4486965E+02  0.7546771E-02  0.1510161E+00
         -1   -1    0    0    0  502 -0.00000000000E+00  0.00000000000E+00  0.11244383024E+03  0.11244383024E+03  0.00000000000E+00 0.  1.
         -2   -1    0    0    0  501  0.00000000000E+00 -0.00000000000E+00 -0.41869712401E+03  0.41869712401E+03  0.00000000000E+00 0.  1.
         25    1    1    2    0    0  0.71287392758E+01  0.15418816380E+02  0.58507371279E+01  0.12628455942E+03  0.12500000000E+03 0.  0.
         -2    1    1    2    0  502 -0.21512614546E+02  0.27848755415E+02  0.38002546421E+02  0.51793236018E+02  0.00000000000E+00 0.  1.
         -1    1    1    2    0  501  0.14383875270E+02 -0.43267571795E+02 -0.35010657731E+03  0.35306315882E+03  0.00000000000E+00 0.  1.
<mgrwt>
<rscale>  0 0.39736243E+02</rscale>
<asrwt>0</asrwt>
<pdfrwt beam="2">  1       -2 0.64414941E-01 0.44869646E+02</pdfrwt>
<pdfrwt beam="1">  1       -1 0.17299051E-01 0.35190137E+02</pdfrwt>
<totfact> 0.40104053E+02</totfact>
</mgrwt>
</event>
<event>
 5    1  0.8891499E-003  0.1225562E+03  0.7546771E-02  0.1402412E+00
          2   -1    0    0  502    0  0.00000000000E+00  0.00000000000E+00  0.74290140101E+02  0.74290140101E+02  0.00000000000E+00 0. -1.
          1   -1    0    0  501    0 -0.00000000000E+00 -0.00000000000E+00 -0.59426802035E+03  0.59426802035E+03  0.00000000000E+00 0. -1.
         25    1    1    2    0    0 -0.10860446890E+03 -0.78580034219E+02 -0.23617147855E+03  0.29895103232E+03  0.12500000000E+03 0.  0.
          2    1    1    2  501    0  0.81512978280E+02  0.86859273256E+02 -0.30933253003E+03  0.33147475487E+03  0.00000000000E+00 0. -1.
          1    1    1    2  502    0  0.27091490624E+02 -0.82792390375E+01  0.25526128332E+02  0.38132373266E+02  0.00000000000E+00 0. -1.
<mgrwt>
<rscale>  0 0.58922096E+02</rscale>
<asrwt>0</asrwt>
<pdfrwt beam="1">  1        2 0.11429252E-01 0.28328337E+02</pdfrwt>
<pdfrwt beam="2">  1        1 0.91425850E-01 0.12255620E+03</pdfrwt>
<totfact> 0.23401222E+03</totfact>
</mgrwt>
</event>
<event>
 5    1  0.8891499E-003  0.1358509E+03  0.7546771E-02  0.1229706E+00
          1   -1    0    0  501    0 -0.00000000000E+00  0.00000000000E+00  0.23983360775E+04  0.23983360775E+04  0.00000000000E+00 0. -1.
          2   -1    0    0  502    0  0.00000000000E+00 -0.00000000000E+00 -0.13617037566E+04  0.13617037566E+04  0.00000000000E+00 0. -1.
         25    1    1    2    0    0 -0.18425562875E+03  0.17444397619E+03  0.62791960513E+02  0.28973896503E+03  0.12500000000E+03 0.  0.
          2    1    1    2  501    0  0.10635285711E+03 -0.81156568575E+02  0.22170910886E+04  0.22211236377E+04  0.00000000000E+00 0. -1.
          1    1    1    2  502    0  0.77902771642E+02 -0.93287407616E+02 -0.12432507282E+04  0.12491772314E+04  0.00000000000E+00 0. -1.
<mgrwt>
<rscale>  0 0.12849509E+03</rscale>
<asrwt>0</asrwt>
<pdfrwt beam="2">  1        2 0.20949289E+00 0.12153758E+03</pdfrwt>
<pdfrwt beam="1">  1        1 0.36897478E+00 0.13585090E+03</pdfrwt>
<totfact> 0.48041070E+00</totfact>
</mgrwt>
</event>
<event>
 5    1  0.8891499E-003  0.8369610E+02  0.7546771E-02  0.1451008E+00
          1   -1    0    0  501    0 -0.00000000000E+00  0.00000000000E+00  0.21448434878E+03  0.21448434878E+03  0.00000000000E+00 0. -1.
          2   -1    0    0  502    0  0.00000000000E+00 -0.00000000000E+00 -0.18922042953E+03  0.18922042953E+03  0.00000000000E+00 0. -1.
         25    1    1    2    0    0  0.98464497071E+02 -0.29901526633E+02  0.45140325748E+02  0.16808333495E+03  0.12500000000E+03 0.  0.
          2    1    1    2  501    0 -0.17214986369E+02  0.22895717660E+02  0.92465174223E+02  0.96800713256E+02  0.00000000000E+00 0. -1.
          1    1    1    2  502    0 -0.81249510702E+02  0.70058089729E+01 -0.11234158072E+03  0.13882073010E+03  0.00000000000E+00 0. -1.
<mgrwt>
<rscale>  0 0.48964517E+02</rscale>
<asrwt>0</asrwt>
<pdfrwt beam="2">  1        2 0.29110835E-01 0.83696101E+02</pdfrwt>
<pdfrwt beam="1">  1        1 0.32997592E-01 0.28645587E+02</pdfrwt>
<totfact> 0.30932705E+03</totfact>
</mgrwt>
</event>
<event>
 5    1  0.8891499E-003  0.1050644E+03  0.7546771E-02  0.1365577E+00
         -1   -1    0    0    0  501 -0.00000000000E+00  0.00000000000E+00  0.58274028710E+02  0.58274028710E+02  0.00000000000E+00 0.  1.
          1   -1    0    0  502    0  0.00000000000E+00 -0.00000000000E+00 -0.26898366779E+04  0.26898366779E+04  0.00000000000E+00 0. -1.
         25    1    1    2    0    0 -0.50258729076E+02  0.13279716760E+03 -0.11396991253E+04  0.11552922244E+04  0.12500000000E+03 0.  0.
          2    1    1    2  502    0 -0.35000390384E+01 -0.44408793267E+02 -0.14886492675E+04  0.14893156257E+04  0.00000000000E+00 0. -1.
         -2    1    1    2    0  501  0.53758768114E+02 -0.88388374335E+02 -0.32142563799E+01  0.10350285653E+03  0.00000000000E+00 0.  1.
<mgrwt>
<rscale>  0 0.68412372E+02</rscale>
<asrwt>0</asrwt>
<pdfrwt beam="2">  1        1 0.41382105E+00 0.44546506E+02</pdfrwt>
<pdfrwt beam="1">  1       -1 0.89652347E-02 0.10506442E+03</pdfrwt>
<totfact> 0.10711563E+02</totfact>
</mgrwt>
</event>
<event>
 5    1  0.8891499E-003  0.7311353E+02  0.7546771E-02  0.1408747E+00
          2   -1    0    0  502    0  0.00000000000E+00  0.00000000000E+00  0.13049763161E+04  0.13049763161E+04  0.00000000000E+00 0. -1.
          1   -1    0    0  501    0 -0.00000000000E+00 -0.00000000000E+00 -0.64806133786E+02  0.64806133786E+02  0.00000000000E+00 0. -1.
         25    1    1    2    0    0 -0.88841775878E+02  0.68738356346E+02  0.61773623199E+03  0.64018815601E+03  0.12500000000E+03 0.  0.
          2    1    1    2  501    0  0.34710447823E+02 -0.28921826626E+02 -0.42050077810E+02  0.61721117029E+02  0.00000000000E+00 0. -1.
          1    1    1    2  502    0  0.54131328055E+02 -0.39816529720E+02  0.66448402813E+03  0.66787317685E+03  0.00000000000E+00 0. -1.
<mgrwt>
<rscale>  0 0.57474461E+02</rscale>
<asrwt>0</asrwt>
<pdfrwt beam="1">  1        2 0.20076557E+00 0.73113531E+02</pdfrwt>
<pdfrwt beam="2">  1        1 0.99701754E-02 0.45180607E+02</pdfrwt>
<totfact> 0.14905817E+03</totfact>
</mgrwt>
</event>
<event>
 5    1  0.8891499E-003  0.8219344E+02  0.7546771E-02  0.1433758E+00
          1   -1    0    0  501    0 -0.00000000000E+00  0.00000000000E+00  0.25869579382E+04  0.25869579382E+04  0.00000000000E+00 0. -1.
          2   -1    0    0  502    0  0.00000000000E+00 -0.00000000000E+00 -0.11261348676E+03  0.11261348676E+03  0.00000000000E+00 0. -1.
         25    1    1    2    0    0 -0.62628427661E+02 -0.54356279368E+02  0.33850827076E+03  0.37025636312E+03  0.12500000000E+03 0.  0.
          2    1    1    2  501    0  0.78507886828E+02  0.25236362652E+02  0.22289475487E+04  0.22304724919E+04  0.00000000000E+00 0. -1.
          1    1    1    2  502    0 -0.15879459167E+02  0.29119916715E+02 -0.93111368025E+02  0.98842569920E+02  0.00000000000E+00 0. -1.
<mgrwt>
<rscale>  0 0.52213075E+02</rscale>
<asrwt>0</asrwt>
<pdfrwt beam="2">  1        2 0.17325154E-01 0.33168159E+02</pdfrwt>
<pdfrwt beam="1">  1        1 0.39799348E+00 0.82193442E+02</pdfrwt>
<totfact> 0.67268382E+01</totfact>
</mgrwt>
</event>
<event>
 5    1  0.8891499E-003  0.4876832E+02  0.7546771E-02  0.1479011E+00
          2   -1    0    0  502    0  0.00000000000E+00  0.00000000000E+00  0.97050080623E+03  0.97050080623E+03  0.00000000000E+00 0. -1.
         -2   -1    0    0    0  501 -0.00000000000E+00 -0.00000000000E+00 -0.13549158023E+02  0.13549158023E+02  0.00000000000E+00 0.  1.
         25    1    1    2    0    0 -0.35664067634E+02  0.97692898877E+01  0.53983797735E+03  0.55535340688E+03  0.12500000000E+03 0.  0.
          1    1    1    2  502    0  0.49299364782E+01  0.39865806654E+02  0.15073733961E+03  0.15599786013E+03  0.00000000000E+00 0. -1.
         -1    1    1    2    0  501  0.30734131156E+02 -0.49635096542E+02  0.26637633126E+03  0.27269869725E+03  0.00000000000E+00 0.  1.
<mgrwt>
<rscale>  0 0.44260569E+02</rscale>
<asrwt>0</asrwt>
<pdfrwt beam="1">  1        2 0.14930776E+00 0.40169476E+02</pdfrwt>
<pdfrwt beam="2">  1       -2 0.20844866E-02 0.48768322E+02</pdfrwt>
<totfact> 0.17546630E+04</totfact>
</mgrwt>
</event>
<event>
 5    1  0.8891499E-003  0.3288033E+03  0.7546771E-02  0.1123302E+00
          2   -1    0    0  502    0  0.00000000000E+00  0.00000000000E+00  0.29414498625E+04  0.29414498625E+04  0.00000000000E+00 0. -1.
          1   -1    0    0  501    0 -0.00000000000E+00 -0.00000000000E+00 -0.38041790066E+03  0.38041790066E+03  0.00000000000E+00 0. -1.
         25    1    1    2    0    0 -0.60476877259E+02  0.21037727348E+03  0.29548119792E+03  0.38839437200E+03  0.12500000000E+03 0.  0.
          2    1    1    2  501    0 -0.84903134508E+01 -0.36321855746E+03 -0.23149672161E+03  0.43080220290E+03  0.00000000000E+00 0. -1.
          1    1    1    2  502    0  0.68967190710E+02  0.15284128398E+03  0.24970474856E+04  0.25026711883E+04  0.00000000000E+00 0. -1.
<mgrwt>
<rscale>  0 0.23480647E+03</rscale>
<asrwt>0</asrwt>
<pdfrwt beam="1">  1        2 0.45253073E+00 0.16768104E+03</pdfrwt>
<pdfrwt beam="2">  1        1 0.58525833E-01 0.32880330E+03</pdfrwt>
<totfact> 0.21392399E+01</totfact>
</mgrwt>
</event>
<event>
 5    1  0.8891499E-003  0.3619839E+02  0.7546771E-02  0.1572045E+00
          1   -1    0    0  501    0 -0.00000000000E+00  0.00000000000E+00  0.49593442967E+03  0.49593442967E+03  0.00000000000E+00 0. -1.
          2   -1    0    0  502    0  0.00000000000E+00 -0.00000000000E+00 -0.17396079202E+03  0.17396079202E+03  0.00000000000E+00 0. -1.
         25    1    1    2    0    0  0.16429843560E+02  0.57520170729E+02  0.13580556579E+03  0.19402747615E+03  0.12500000000E+03 0.  0.
          2    1    1    2  501    0 -0.20950803069E+02 -0.28702857763E+02  0.32858158616E+03  0.33049757783E+03  0.00000000000E+00 0. -1.
          1    1    1    2  502    0  0.45209595090E+01 -0.28817312966E+02 -0.14241351431E+03  0.14537016771E+03  0.00000000000E+00 0. -1.
<mgrwt>
<rscale>  0 0.32494608E+02</rscale>
<asrwt>0</asrwt>
<pdfrwt beam="2">  1        2 0.26763199E-01 0.29169789E+02</pdfrwt>
<pdfrwt beam="1">  1        1 0.76297604E-01 0.36198394E+02</pdfrwt>
<totfact> 0.12122049E+03</totfact>
</mgrwt>
</event>
<event>
 5    1  0.8891499E-003  0.8364604E+02  0.7546771E-02  0.1388293E+00
          1   -1    0    0  501    0 -0.00000000000E+00  0.00000000000E+00  0.13327003000E+03  0.13327003000E+03  0.00000000000E+00 0. -1.
          2   -1    0    0  502    0  0.00000000000E+00 -0.00000000000E+00 -0.14897900312E+04  0.14897900312E+04  0.00000000000E+00 0. -1.
         25    1    1    2    0    0  0.79479073763E+02 -0.35368523104E+02 -0.58923849146E+02  0.16329383207E+03  0.12500000000E+03 0.  0.
          2    1    1    2  501    0  0.36758651067E+01  0.46305383120E+02  0.73043751792E+02  0.86562637241E+02  0.00000000000E+00 0. -1.
          1    1    1    2  502    0 -0.83154938870E+02 -0.10936860016E+02 -0.13706399038E+04  0.13732035919E+04  0.00000000000E+00 0. -1.
<mgrwt>
<rscale>  0 0.62333351E+02</rscale>
<asrwt>0</asrwt>
<pdfrwt beam="2">  1        2 0.22919849E+00 0.83646036E+02</pdfrwt>
<pdfrwt beam="1">  1        1 0.20503080E-01 0.46451055E+02</pdfrwt>
<totfact> 0.48120374E+02</totfact>
</mgrwt>
</event>
<event>
 5    1  0.8891499E-003  0.7510950E+02  0.7546771E-02  0.1414479E+00
          2   -1    0    0  502    0  0.00000000000E+00  0.00000000000E+00  0.29901519405E+03  0.29901519405E+03  0.00000000000E+00 0. -1.
          1   -1    0    0  501    0 -0.00000000000E+00 -0.00000000000E+00 -0.86194888597E+02  0.86194888597E+02  0.00000000000E+00 0. -1.
         25    1    1    2    0    0  0.86397001543E+02  0.42636933315E+02  0.12044254548E+03  0.19852898206E+03  0.12500000000E+03 0.  0.
          2    1    1    2  501    0 -0.40388549815E+02  0.11740464565E+02 -0.25330320896E+02  0.49098865782E+02  0.00000000000E+00 0. -1.
          1    1    1    2  502    0 -0.46008451728E+02 -0.54377397880E+02  0.11770808087E+03  0.13758223480E+03  0.00000000000E+00 0. -1.
<mgrwt>
<rscale>  0 0.56206159E+02</rscale>
<asrwt>0</asrwt>
<pdfrwt beam="1">  1        2 0.46002337E-01 0.75109502E+02</pdfrwt>
<pdfrwt beam="2">  1        1 0.13260752E-01 0.42060355E+02</pdfrwt>
<totfact> 0.58604463E+03</totfact>
</mgrwt>
</event>
<event>
 5    1  0.8891499E-003  0.9815809E+02  0.7546771E-02  0.1411994E+00
          1   -1    0    0  501    0 -0.00000000000E+00  0.00000000000E+00  0.11543915573E+04  0.11543915573E+04  0.00000000000E+00 0. -1.
          2   -1    0    0  502    0  0.00000000000E+00 -0.00000000000E+00 -0.21245326052E+04  0.21245326052E+04  0.00000000000E+00 0. -1.
         25    1    1    2    0    0  0.95601942886E+02 -0.41266117855E+02 -0.58742377780E+02  0.17296904611E+03  0.12500000000E+03 0.  0.
          2    1    1    2  501    0 -0.22337430441E+02 -0.24034008673E+02  0.10958337472E+04  0.10963248587E+04  0.00000000000E+00 0. -1.
          1    1    1    2  502    0 -0.73264512445E+02  0.65300126529E+02 -0.20072324173E+04  0.20096302576E+04  0.00000000000E+00 0. -1.
<mgrwt>
<rscale>  0 0.56751334E+02</rscale>
<asrwt>0</asrwt>
<pdfrwt beam="2">  1        2 0.32685116E+00 0.98158088E+02</pdfrwt>
<pdfrwt beam="1">  1        1 0.17759871E+00 0.32811498E+02</pdfrwt>
<totfact> 0.14243026E+01</totfact>
</mgrwt>
</event>
<event>
 5    1  0.8891499E-003  0.2544302E+03  0.7546771E-02  0.1151711E+00
          2   -1    0    0  502    0  0.00000000000E+00  0.00000000000E+00  0.78142534749E+03  0.78142534749E+03  0.00000000000E+00 0. -1.
          1   -1    0    0  501    0 -0.00000000000E+00 -0.00000000000E+00 -0.10692458465E+04  0.10692458465E+04  0.00000000000E+00 0. -1.
         25    1    1    2    0    0 -0.18024793574E+03 -0.11181482654E+03  0.13800866573E+03  0.28224681679E+03  0.12500000000E+03 0.  0.
          2    1    1    2  501    0  0.50792021619E+02 -0.14494721676E+03 -0.95441087565E+03  0.96669004581E+03  0.00000000000E+00 0. -1.
          1    1    1    2  502    0  0.12945591412E+03  0.25676204330E+03  0.52858171085E+03  0.60173433144E+03  0.00000000000E+00 0. -1.
<mgrwt>
<rscale>  0 0.19768064E+03</rscale>
<asrwt>0</asrwt>
<pdfrwt beam="1">  1        2 0.12021928E+00 0.25443022E+03</pdfrwt>
<pdfrwt beam="2">  1        1 0.16449936E+00 0.15358882E+03</pdfrwt>
<totfact> 0.74301460E+01</totfact>
</mgrwt>
</event>
<event>
 5    1  0.8891499E-003  0.5460205E+02  0.7546771E-02  0.1485904E+00
          1   -1    0    0  501    0 -0.00000000000E+00  0.00000000000E+00  0.38035337242E+03  0.38035337242E+03  0.00000000000E+00 0. -1.
          2   -1    0    0  502    0  0.00000000000E+00 -0.00000000000E+00 -0.52798670600E+03  0.52798670600E+03  0.00000000000E+00 0. -1.
         25    1    1    2    0    0 -0.12182241763E+01 -0.26016462501E+02  0.30204357070E+02  0.13120839751E+03  0.12500000000E+03 0.  0.
          2    1    1    2  501    0  0.24083148176E+02 -0.24252298551E+02  0.29706707526E+03  0.29902678679E+03  0.00000000000E+00 0. -1.
          1    1    1    2  502    0 -0.22864924000E+02  0.50268761051E+02 -0.47490476592E+03  0.47810489412E+03  0.00000000000E+00 0. -1.
<mgrwt>
<rscale>  0 0.43199744E+02</rscale>
<asrwt>0</asrwt>
<pdfrwt beam="2">  1        2 0.81228724E-01 0.54602050E+02</pdfrwt>
<pdfrwt beam="1">  1        1 0.58515903E-01 0.34178531E+02</pdfrwt>
<totfact> 0.54061157E+02</totfact>
</mgrwt>
</event>
<event>
 5    1  0.8891499E-003  0.6412441E+02  0.7546771E-02  0.1444295E+00
         -2   -1    0    0    0  501 -0.00000000000E+00  0.00000000000E+00  0.94561821722E+03  0.94561821722E+03  0.00000000000E+00 0.  1.
          2   -1    0    0  502    0  0.00000000000E+00 -0.00000000000E+00 -0.24768062499E+03  0.24768062499E+03  0.00000000000E+00 0. -1.
         25    1    1    2    0    0 -0.46297654692E+02  0.91539934541E+02  0.19289136495E+03  0.25170441219E+03  0.12500000000E+03 0.  0.
          1    1    1    2  502    0  0.29774052393E+02 -0.55892524075E+02 -0.21313239924E+03  0.22234182703E+03  0.00000000000E+00 0. -1.
         -1    1    1    2    0  501  0.16523602300E+02 -0.35647410466E+02  0.71817862652E+03  0.71925260298E+03  0.00000000000E+00 0.  1.
<mgrwt>
<rscale>  0 0.50194618E+02</rscale>
<asrwt>0</asrwt>
<pdfrwt beam="2">  1        2 0.38104712E-01 0.64124410E+02</pdfrwt>
<pdfrwt beam="1">  1       -2 0.14547972E+00 0.39290804E+02</pdfrwt>
<totfact> 0.50013065E+01</totfact>
</mgrwt>
</event>
<event>
 5    1  0.8891499E-003  0.3854873E+02  0.7546771E-02  0.1529274E+00
         -1   -1    0    0    0  501 -0.00000000000E+00  0.00000000000E+00  0.50250976687E+03  0.50250976687E+03  0.00000000000E+00 0.  1.
          1   -1    0    0  502    0  0.00000000000E+00 -0.00000000000E+00 -0.69833268046E+03  0.69833268046E+03  0.00000000000E+00 0. -1.
         25    1    1    2    0    0  0.55234426389E+02  0.45251358164E+02  0.70104058061E+02  0.16011903769E+03  0.12500000000E+03 0.  0.
          2    1    1    2  502    0 -0.20759222472E+02 -0.29466117272E+02 -0.65189833999E+03  0.65289405194E+03  0.00000000000E+00 0. -1.
         -2    1    1    2    0  501 -0.34475203917E+02 -0.15785240892E+02  0.38597136833E+03  0.38782935769E+03  0.00000000000E+00 0.  1.
<mgrwt>
<rscale>  0 0.37275532E+02</rscale>
<asrwt>0</asrwt>
<pdfrwt beam="2">  1        1 0.10743580E+00 0.36044381E+02</pdfrwt>
<pdfrwt beam="1">  1       -1 0.77309195E-01 0.38548734E+02</pdfrwt>
<totfact> 0.57695613E+01</totfact>
</mgrwt>
</event>
<event>
 5    1  0.8891499E-003  0.1120629E+03  0.7546771E-02  0.1454309E+00
          2   -1    0    0  502    0  0.00000000000E+00  0.00000000000E+00  0.13853327684E+04  0.13853327684E+04  0.00000000000E+00 0. -1.
         -2   -1    0    0    0  501 -0.00000000000E+00 -0.00000000000E+00 -0.52867754736E+03  0.52867754736E+03  0.00000000000E+00 0.  1.
         25    1    1    2    0    0 -0.66539887384E+02 -0.78887150410E+02 -0.20253649539E+03  0.25941621206E+03  0.12500000000E+03 0.  0.
          1    1    1    2  502    0  0.56237420237E+02  0.97051144020E+02  0.13542051209E+04  0.13588425521E+04  0.00000000000E+00 0. -1.
         -1    1    1    2    0  501  0.10302467147E+02 -0.18163993610E+02 -0.29501340443E+03  0.29575155162E+03  0.00000000000E+00 0.  1.
<mgrwt>
<rscale>  0 0.48374927E+02</rscale>
<asrwt>0</asrwt>
<pdfrwt beam="1">  1        2 0.21312812E+00 0.11206289E+03</pdfrwt>
<pdfrwt beam="2">  1       -2 0.81335008E-01 0.20882325E+02</pdfrwt>
<totfact> 0.24366626E+01</totfact>
</mgrwt>
</event>
<event>
 5    1  0.8891499E-003  0.6409344E+02  0.7546771E-02  0.1525053E+00
          2   -1    0    0  502    0  0.00000000000E+00  0.00000000000E+00  0.12690327853E+04  0.12690327853E+04  0.00000000000E+00 0. -1.
          1   -1    0    0  501    0 -0.00000000000E+00 -0.00000000000E+00 -0.43240483013E+03  0.43240483013E+03  0.00000000000E+00 0. -1.
         25    1    1    2    0    0  0.38503032643E+02  0.74591622663E+02  0.65765054851E+03  0.67466705689E+03  0.12500000000E+03 0.  0.
          2    1    1    2  501    0 -0.36844638087E+02 -0.52360005688E+02 -0.42127096058E+03  0.42610834277E+03  0.00000000000E+00 0. -1.
          3    1    1    2  502    0 -0.16583945552E+01 -0.22231616975E+02  0.60024836728E+03  0.60066221580E+03  0.00000000000E+00 0. -1.
<mgrwt>
<rscale>  0 0.37800261E+02</rscale>
<asrwt>0</asrwt>
<pdfrwt beam="1">  1        2 0.19523581E+00 0.22293386E+02</pdfrwt>
<pdfrwt beam="2">  1        1 0.66523820E-01 0.64093435E+02</pdfrwt>
<totfact> 0.16703937E+02</totfact>
</mgrwt>
</event>
<event>
 5    1  0.8891499E-003  0.8828579E+02  0.7546771E-02  0.1381652E+00
          1   -1    0    0  501    0 -0.00000000000E+00  0.00000000000E+00  0.10131154307E+03  0.10131154307E+03  0.00000000000E+00 0. -1.
          2   -1    0    0  502    0  0.00000000000E+00 -0.00000000000E+00 -0.42524479904E+03  0.42524479904E+03  0.00000000000E+00 0. -1.
         25    1    1    2    0    0  0.16291684926E+01  0.47401625707E+02 -0.19729050460E+03  0.23832354377E+03  0.12500000000E+03 0.  0.
          2    1    1    2  501    0  0.40296263389E+01 -0.93495882545E+02  0.49641575412E+02  0.10593396033E+03  0.00000000000E+00 0. -1.
          1    1    1    2  502    0 -0.56587948315E+01  0.46094256837E+02 -0.17628432678E+03  0.18229883801E+03  0.00000000000E+00 0. -1.
<mgrwt>
<rscale>  0 0.64031395E+02</rscale>
<asrwt>0</asrwt>
<pdfrwt beam="2">  1        2 0.65422277E-01 0.46440311E+02</pdfrwt>
<pdfrwt beam="1">  1        1 0.15586391E-01 0.88285789E+02</pdfrwt>
<totfact> 0.34571407E+03</totfact>
</mgrwt>
</event>
<event>
 5    1  0.8891499E-003  0.1760402E+03  0.7546771E-02  0.1246338E+00
          2   -1    0    0  502    0  0.00000000000E+00  0.00000000000E+00  0.24028707742E+04  0.24028707742E+04  0.00000000000E+00 0. -1.
         -2   -1    0    0    0  501 -0.00000000000E+00 -0.00000000000E+00 -0.24975585518E+03  0.24975585518E+03  0.00000000000E+00 0.  1.
         25    1    1    2    0    0  0.17076001857E+03 -0.16082183938E+03  0.29828480347E+03  0.39952655975E+03  0.12500000000E+03 0.  0.
          1    1    1    2  502    0 -0.23026423207E+02  0.75748628519E+02  0.20165592965E+04  0.20181128479E+04  0.00000000000E+00 0. -1.
         -1    1    1    2    0  501 -0.14773359536E+03  0.85073210857E+02 -0.16172918090E+03  0.23498722170E+03  0.00000000000E+00 0.  1.
<mgrwt>
<rscale>  0 0.11805635E+03</rscale>
<asrwt>0</asrwt>
<pdfrwt beam="1">  1        2 0.36967241E+00 0.79171149E+02</pdfrwt>
<pdfrwt beam="2">  1       -2 0.38423979E-01 0.17604017E+03</pdfrwt>
<totfact> 0.34356696E+01</totfact>
</mgrwt>
</event>
<event>
 5    1  0.8891499E-003  0.1015344E+03  0.7546771E-02  0.1340370E+00
          2   -1    0    0  502    0  0.00000000000E+00  0.00000000000E+00  0.63415156513E+03  0.63415156513E+03  0.00000000000E+00 0. -1.
         -2   -1    0    0    0  501 -0.00000000000E+00 -0.00000000000E+00 -0.10529916880E+03  0.10529916880E+03  0.00000000000E+00 0.  1.
         25    1    1    2    0    0  0.23582989843E+01  0.10561576843E+03  0.22155705843E+03  0.27545014478E+03  0.12500000000E+03 0.  0.
          1    1    1    2  502    0 -0.56380851039E+02 -0.87122336927E+02  0.36699809435E+03  0.38138786454E+03  0.00000000000E+00 0. -1.
         -1    1    1    2    0  501  0.54022552054E+02 -0.18493431506E+02 -0.59702756459E+02  0.82612724614E+02  0.00000000000E+00 0.  1.
<mgrwt>
<rscale>  0 0.76142254E+02</rscale>
<asrwt>0</asrwt>
<pdfrwt beam="1">  1        2 0.97561777E-01 0.10153438E+03</pdfrwt>
<pdfrwt beam="2">  1       -2 0.16199873E-01 0.57100290E+02</pdfrwt>
<totfact> 0.13619633E+03</totfact>
</mgrwt>
</event>
<event>
 5    1  0.8891499E-003  0.5819825E+02  0.7546771E-02  0.1409178E+00
          2   -1    0    0  502    0  0.00000000000E+00  0.00000000000E+00  0.21595677165E+04  0.21595677165E+04  0.00000000000E+00 0. -1.
          1   -1    0    0  501    0 -0.00000000000E+00 -0.00000000000E+00 -0.87476130835E+03  0.87476130835E+03  0.00000000000E+00 0. -1.
         25    1    1    2    0    0  0.10841134701E+03  0.21030438459E+02  0.13719737471E+04  0.13820753461E+04  0.12500000000E+03 0.  0.
          2    1    1    2  501    0 -0.52056803050E+02 -0.25945312204E+02 -0.86771331454E+03  0.86966054653E+03  0.00000000000E+00 0. -1.
          1    1    1    2  502    0 -0.56354543962E+02  0.49148737447E+01  0.78054597561E+03  0.78259313225E+03  0.00000000000E+00 0. -1.
<mgrwt>
<rscale>  0 0.57377571E+02</rscale>
<asrwt>0</asrwt>
<pdfrwt beam="1">  1        2 0.33224119E+00 0.56568459E+02</pdfrwt>
<pdfrwt beam="2">  1        1 0.13457866E+00 0.58198255E+02</pdfrwt>
<totfact> 0.21961702E+01</totfact>
</mgrwt>
</event>
<event>
 5    1  0.8891499E-003  0.6493793E+02  0.7546771E-02  0.1386513E+00
          1   -1    0    0  501    0 -0.00000000000E+00  0.00000000000E+00  0.63624199677E+03  0.63624199677E+03  0.00000000000E+00 0. -1.
          2   -1    0    0  502    0  0.00000000000E+00 -0.00000000000E+00 -0.21243832616E+04  0.21243832616E+04  0.00000000000E+00 0. -1.
         25    1    1    2    0    0  0.87719986687E+02  0.81721619649E+01 -0.16372366946E+03  0.22403575661E+03  0.12500000000E+03 0.  0.
          2    1    1    2  501    0 -0.51025311642E+02  0.40178501855E+02  0.60386722727E+03  0.60734958847E+03  0.00000000000E+00 0. -1.
          1    1    1    2  502    0 -0.36694675046E+02 -0.48350663820E+02 -0.19282848227E+04  0.19292399133E+04  0.00000000000E+00 0. -1.
<mgrwt>
<rscale>  0 0.62782348E+02</rscale>
<asrwt>0</asrwt>
<pdfrwt beam="2">  1        2 0.32682819E+00 0.60698318E+02</pdfrwt>
<pdfrwt beam="1">  1        1 0.97883386E-01 0.64937931E+02</pdfrwt>
<totfact> 0.35434636E+01</totfact>
</mgrwt>
</event>
<event>
 5    1  0.8891499E-003  0.3739877E+03  0.7546771E-02  0.1148648E+00
          1   -1    0    0  501    0 -0.00000000000E+00  0.00000000000E+00  0.13854704043E+04  0.13854704043E+04  0.00000000000E+00 0. -1.
          2   -1    0    0  502    0  0.00000000000E+00 -0.00000000000E+00 -0.10997355723E+04  0.10997355723E+04  0.00000000000E+00 0. -1.
         25    1    1    2    0    0  0.44508378446E+03  0.38904471892E+02  0.41717545420E+03  0.62391785734E+03  0.12500000000E+03 0.  0.
          2    1    1    2  501    0 -0.34957678128E+03  0.12260870906E+02  0.82637842009E+03  0.89736032236E+03  0.00000000000E+00 0. -1.
          3    1    1    2  502    0 -0.95507003184E+02 -0.51165342799E+02 -0.95781904223E+03  0.96392779690E+03  0.00000000000E+00 0. -1.
<mgrwt>
<rscale>  0 0.20129867E+03</rscale>
<asrwt>0</asrwt>
<pdfrwt beam="2">  1        2 0.16919009E+00 0.10834888E+03</pdfrwt>
<pdfrwt beam="1">  1        1 0.21314929E+00 0.37398774E+03</pdfrwt>
<totfact> 0.27602655E+01</totfact>
</mgrwt>
</event>
<event>
 5    1  0.8891499E-003  0.7415043E+02  0.7546771E-02  0.1503234E+00
         -2   -1    0    0    0  501 -0.00000000000E+00  0.00000000000E+00  0.70145609884E+02  0.70145609884E+02  0.00000000000E+00 0.  1.
          2   -1    0    0  502    0  0.00000000000E+00 -0.00000000000E+00 -0.22421687096E+04  0.22421687096E+04  0.00000000000E+00 0. -1.
         25    1    1    2    0    0 -0.65520877160E+02 -0.18232286006E+02 -0.51253049177E+03  0.53191907899E+03  0.12500000000E+03 0.  0.
          1    1    1    2  502    0  0.63062023789E+02  0.40418978304E+02 -0.17170384800E+04  0.17186714795E+04  0.00000000000E+00 0. -1.
         -1    1    1    2    0  501  0.24588533708E+01 -0.22186692297E+02  0.57545872079E+02  0.61723760970E+02  0.00000000000E+00 0.  1.
<mgrwt>
<rscale>  0 0.40684456E+02</rscale>
<asrwt>0</asrwt>
<pdfrwt beam="2">  1        2 0.34494908E+00 0.74150425E+02</pdfrwt>
<pdfrwt beam="1">  1       -2 0.10791631E-01 0.22322528E+02</pdfrwt>
<totfact> 0.31748952E+02</totfact>
</mgrwt>
</event>
<event>
 5    1  0.8891499E-003  0.5159122E+02  0.7546771E-02  0.1506855E+00
          2   -1    0    0  502    0  0.00000000000E+00  0.00000000000E+00  0.22037473046E+04  0.22037473046E+04  0.00000000000E+00 0. -1.
         -2   -1    0    0    0  501 -0.00000000000E+00 -0.00000000000E+00 -0.22047079382E+02  0.22047079382E+02  0.00000000000E+00 0.  1.
         25    1    1    2    0    0 -0.13688211503E+02  0.21510936843E+02  0.90117422582E+03  0.91015936672E+03  0.12500000000E+03 0.  0.
          1    1    1    2  502    0  0.16204857276E+02 -0.52710068964E+02  0.12830485624E+04  0.12842330639E+04  0.00000000000E+00 0. -1.
         -1    1    1    2    0  501 -0.25166457733E+01  0.31199132121E+02 -0.25225630646E+01  0.31401953370E+02  0.00000000000E+00 0.  1.
<mgrwt>
<rscale>  0 0.40184940E+02</rscale>
<asrwt>0</asrwt>
<pdfrwt beam="1">  1        2 0.33903787E+00 0.51591221E+02</pdfrwt>
<pdfrwt beam="2">  1       -2 0.33918601E-02 0.31300469E+02</pdfrwt>
<totfact> 0.19372817E+03</totfact>
</mgrwt>
</event>
<event>
 5    1  0.8891499E-003  0.4725628E+02  0.7546771E-02  0.1484691E+00
         -2   -1    0    0    0  501 -0.00000000000E+00  0.00000000000E+00  0.97996524918E+02  0.97996524918E+02  0.00000000000E+00 0.  1.
          2   -1    0    0  502    0  0.00000000000E+00 -0.00000000000E+00 -0.14975622932E+04  0.14975622932E+04  0.00000000000E+00 0. -1.
         25    1    1    2    0    0  0.15060278968E-01 -0.69426662063E+02 -0.51795487089E+03  0.53732886569E+03  0.12500000000E+03 0.  0.
          1    1    1    2  502    0  0.25594335760E+02  0.38922928226E+02 -0.96483891311E+03  0.96596283190E+03  0.00000000000E+00 0. -1.
         -1    1    1    2    0  501 -0.25609396039E+02  0.30503733837E+02  0.83228015675E+02  0.92267120562E+02  0.00000000000E+00 0.  1.
<mgrwt>
<rscale>  0 0.43383780E+02</rscale>
<asrwt>0</asrwt>
<pdfrwt beam="2">  1        2 0.23039418E+00 0.47256279E+02</pdfrwt>
<pdfrwt beam="1">  1       -2 0.15076390E-01 0.39828620E+02</pdfrwt>
<totfact> 0.48766489E+02</totfact>
</mgrwt>
</event>
<event>
 5    1  0.8891499E-003  0.8305594E+02  0.7546771E-02  0.1384471E+00
         -2   -1    0    0    0  501 -0.00000000000E+00  0.00000000000E+00  0.42053083885E+03  0.42053083885E+03  0.00000000000E+00 0.  1.
          2   -1    0    0  502    0  0.00000000000E+00 -0.00000000000E+00 -0.23502507759E+04  0.23502507759E+04  0.00000000000E+00 0. -1.
         25    1    1    2    0    0  0.38158468931E+02  0.39069951977E+01 -0.33802065500E+03  0.36242833301E+03  0.12500000000E+03 0.  0.
          1    1    1    2  502    0 -0.85374459812E+02 -0.13832843789E+02 -0.19976620841E+04  0.19995334327E+04  0.00000000000E+00 0. -1.
         -1    1    1    2    0  501  0.47215990881E+02  0.99258485915E+01  0.40596280212E+03  0.40881984904E+03  0.00000000000E+00 0.  1.
<mgrwt>
<rscale>  0 0.63303123E+02</rscale>
<asrwt>0</asrwt>
<pdfrwt beam="2">  1        2 0.36157704E+00 0.83055940E+02</pdfrwt>
<pdfrwt beam="1">  1       -2 0.64697052E-01 0.48248029E+02</pdfrwt>
<totfact> 0.13037447E+01</totfact>
</mgrwt>
</event>
<event>
 5    1  0.8891499E-003  0.7575051E+02  0.7546771E-02  0.1435991E+00
         -2   -1    0    0    0  501 -0.00000000000E+00  0.00000000000E+00  0.43608347407E+03  0.43608347407E+03  0.00000000000E+00 0.  1.
          2   -1    0    0  502    0  0.00000000000E+00 -0.00000000000E+00 -0.20390617891E+04  0.20390617891E+04  0.00000000000E+00 0. -1.
         25    1    1    2    0    0 -0.54113597846E+01 -0.10968509770E+03  0.35132002085E+02  0.17005693471E+03  0.12500000000E+03 0.  0.
          1    1    1    2  502    0 -0.34887159745E+01  0.75433156491E+02 -0.19699350106E+04  0.19713818195E+04  0.00000000000E+00 0. -1.
         -1    1    1    2    0  501  0.89000757591E+01  0.34251941204E+02  0.33182469356E+03  0.33370650890E+03  0.00000000000E+00 0.  1.
<mgrwt>
<rscale>  0 0.51776077E+02</rscale>
<asrwt>0</asrwt>
<pdfrwt beam="2">  1        2 0.31370182E+00 0.75750512E+02</pdfrwt>
<pdfrwt beam="1">  1       -2 0.67089764E-01 0.35389360E+02</pdfrwt>
<totfact> 0.17597222E+01</totfact>
</mgrwt>
</event>
<event>
 5    1  0.8891499E-003  0.1370894E+03  0.7546771E-02  0.1285108E+00
          1   -1    0    0  501    0 -0.00000000000E+00  0.00000000000E+00  0.46114920280E+03  0.46114920280E+03  0.00000000000E+00 0. -1.
          2   -1    0    0  502    0  0.00000000000E+00 -0.00000000000E+00 -0.12466493322E+04  0.12466493322E+04  0.00000000000E+00 0. -1.
         25    1    1    2    0    0  0.16894575139E+03 -0.92727488594E+02 -0.88967151394E+02  0.24633555992E+03  0.12500000000E+03 0.  0.
          2    1    1    2  501    0 -0.99339462428E+02  0.89232560334E+02  0.36963731992E+03  0.39301720941E+03  0.00000000000E+00 0. -1.
          1    1    1    2  502    0 -0.69606288959E+02  0.34949282598E+01 -0.10661702979E+04  0.10684457656E+04  0.00000000000E+00 0. -1.
<mgrwt>
<rscale>  0 0.97746124E+02</rscale>
<asrwt>0</asrwt>
<pdfrwt beam="2">  1        2 0.19179221E+00 0.69693974E+02</pdfrwt>
<pdfrwt beam="1">  1        1 0.70946030E-01 0.13708940E+03</pdfrwt>
<totfact> 0.14359203E+02</totfact>
</mgrwt>
</event>
<event>
 5    1  0.8891499E-003  0.8079949E+02  0.7546771E-02  0.1376320E+00
          1   -1    0    0  501    0 -0.00000000000E+00  0.00000000000E+00  0.35284346682E+03  0.35284346682E+03  0.00000000000E+00 0. -1.
          2   -1    0    0  502    0  0.00000000000E+00 -0.00000000000E+00 -0.32197238321E+03  0.32197238321E+03  0.00000000000E+00 0. -1.
         25    1    1    2    0    0  0.20961876690E+02  0.88357228731E+01  0.20130005458E+03  0.23804239591E+03  0.12500000000E+03 0.  0.
          2    1    1    2  501    0 -0.82110324768E+00 -0.87084733319E+02  0.11265030664E+03  0.14238861111E+03  0.00000000000E+00 0. -1.
          1    1    1    2  502    0 -0.20140773442E+02  0.78249010446E+02 -0.28307927761E+03  0.29438484302E+03  0.00000000000E+00 0. -1.
<mgrwt>
<rscale>  0 0.65440962E+02</rscale>
<asrwt>0</asrwt>
<pdfrwt beam="2">  1        2 0.49534212E-01 0.80799495E+02</pdfrwt>
<pdfrwt beam="1">  1        1 0.54283611E-01 0.53001811E+02</pdfrwt>
<totfact> 0.98872264E+02</totfact>
</mgrwt>
</event>
<event>
 5    1  0.8891499E-003  0.5649819E+02  0.7546771E-02  0.1523891E+00
         -2   -1    0    0    0  501 -0.00000000000E+00  0.00000000000E+00  0.71363592159E+01  0.71363592159E+01  0.00000000000E+00 0.  1.
          2   -1    0    0  502    0  0.00000000000E+00 -0.00000000000E+00 -0.23222330475E+04  0.23222330475E+04  0.00000000000E+00 0. -1.
         25    1    1    2    0    0 -0.43853565960E+02 -0.39991956332E+01 -0.80606277098E+03  0.81688513242E+03  0.12500000000E+03 0.  0.
          1    1    1    2  502    0 -0.23493819822E+02 -0.98792188302E+01 -0.72279131789E+03  0.72324051860E+03  0.00000000000E+00 0. -1.
         -1    1    1    2    0  501  0.67347385782E+02  0.13878414463E+02 -0.78624259941E+03  0.78924375568E+03  0.00000000000E+00 0.  1.
<mgrwt>
<rscale>  0 0.37946509E+02</rscale>
<asrwt>0</asrwt>
<pdfrwt beam="2">  1        2 0.35726613E+00 0.25486438E+02</pdfrwt>
<pdfrwt beam="1">  1       -2 0.10979029E-02 0.56498186E+02</pdfrwt>
<totfact> 0.10041602E+04</totfact>
</mgrwt>
</event>
<event>
 5    1  0.8891499E-003  0.9470975E+02  0.7546771E-02  0.1344906E+00
          2   -1    0    0  502    0  0.00000000000E+00  0.00000000000E+00  0.13564865807E+03  0.13564865807E+03  0.00000000000E+00 0. -1.
          1   -1    0    0  501    0 -0.00000000000E+00 -0.00000000000E+00 -0.32664749910E+03  0.32664749910E+03  0.00000000000E+00 0. -1.
         25    1    1    2    0    0  0.13126238719E+03 -0.26233228769E+02 -0.51587747309E+02  0.19027425536E+03  0.12500000000E+03 0.  0.
          2    1    1    2  501    0 -0.45770701457E+02  0.37016187478E+02 -0.17053142858E+03  0.18040544166E+03  0.00000000000E+00 0. -1.
          1    1    1    2  502    0 -0.85491685733E+02 -0.10782958709E+02  0.31120334864E+02  0.91616460148E+02  0.00000000000E+00 0. -1.
<mgrwt>
<rscale>  0 0.74666882E+02</rscale>
<asrwt>0</asrwt>
<pdfrwt beam="1">  1        2 0.20869024E-01 0.94709750E+02</pdfrwt>
<pdfrwt beam="2">  1        1 0.50253461E-01 0.58865569E+02</pdfrwt>
<totfact> 0.27366910E+03</totfact>
</mgrwt>
</event>
<event>
 5    1  0.8891499E-003  0.3116700E+03  0.7546771E-02  0.1289217E+00
          1   -1    0    0  501    0 -0.00000000000E+00  0.00000000000E+00  0.78597456863E+03  0.78597456863E+03  0.00000000000E+00 0. -1.
          2   -1    0    0  502    0  0.00000000000E+00 -0.00000000000E+00 -0.86551634595E+03  0.86551634595E+03  0.00000000000E+00 0. -1.
         25    1    1    2    0    0  0.28326375534E+03  0.12056016507E+03 -0.27729768243E+03  0.43277258829E+03  0.12500000000E+03 0.  0.
          2    1    1    2  501    0 -0.64185608454E+01  0.28786038535E+02  0.65941821999E+03  0.66007743696E+03  0.00000000000E+00 0. -1.
          1    1    1    2  502    0 -0.27684519450E+03 -0.14934620361E+03 -0.46166231488E+03  0.55864088932E+03  0.00000000000E+00 0. -1.
<mgrwt>
<rscale>  0 0.95875265E+02</rscale>
<asrwt>0</asrwt>
<pdfrwt beam="2">  1        2 0.13315636E+00 0.31166998E+03</pdfrwt>
<pdfrwt beam="1">  1        1 0.12091916E+00 0.29492947E+02</pdfrwt>
<totfact> 0.11539695E+02</totfact>
</mgrwt>
</event>
<event>
 5    1  0.8891499E-003  0.1026896E+03  0.7546771E-02  0.1449602E+00
         -1   -1    0    0    0  501 -0.00000000000E+00  0.00000000000E+00  0.66110597072E+02  0.66110597072E+02  0.00000000000E+00 0.  1.
          1   -1    0    0  502    0  0.00000000000E+00 -0.00000000000E+00 -0.10497472526E+04  0.10497472526E+04  0.00000000000E+00 0. -1.
         25    1    1    2    0    0  0.10978485867E+03  0.52152133464E+02 -0.40861589619E+03  0.44425725749E+03  0.12500000000E+03 0.  0.
          2    1    1    2  502    0 -0.91002726765E+02 -0.37878633658E+02 -0.61625857762E+03  0.62409207787E+03  0.00000000000E+00 0. -1.
         -2    1    1    2    0  501 -0.18782131908E+02 -0.14273499806E+02  0.41237818279E+02  0.47508514312E+02  0.00000000000E+00 0.  1.
<mgrwt>
<rscale>  0 0.49218647E+02</rscale>
<asrwt>0</asrwt>
<pdfrwt beam="2">  1        1 0.16149958E+00 0.10268955E+03</pdfrwt>
<pdfrwt beam="1">  1       -1 0.10170861E-01 0.23590279E+02</pdfrwt>
<totfact> 0.78173447E+02</totfact>
</mgrwt>
</event>
<event>
 5    1  0.8891499E-003  0.1669106E+03  0.7546771E-02  0.1406392E+00
         -1   -1    0    0    0  501 -0.00000000000E+00  0.00000000000E+00  0.16757989571E+04  0.16757989571E+04  0.00000000000E+00 0.  1.
          1   -1    0    0  502    0  0.00000000000E+00 -0.00000000000E+00 -0.64869597082E+02  0.64869597082E+02  0.00000000000E+00 0. -1.
         25    1    1    2    0    0 -0.13498878965E+03 -0.73577114543E+02  0.44412270332E+03  0.48631835326E+03  0.12500000000E+03 0.  0.
          2    1    1    2  502    0  0.15514761648E+03  0.73686474810E+02  0.12519233439E+03  0.21254081975E+03  0.00000000000E+00 0. -1.
         -2    1    1    2    0  501 -0.20158826830E+02 -0.10936026681E+00  0.10416143224E+04  0.10418093812E+04  0.00000000000E+00 0.  1.
<mgrwt>
<rscale>  0 0.58006657E+02</rscale>
<asrwt>0</asrwt>
<pdfrwt beam="2">  1        1 0.99799393E-02 0.16691064E+03</pdfrwt>
<pdfrwt beam="1">  1       -1 0.25781519E+00 0.20159123E+02</pdfrwt>
<totfact> 0.59685415E+01</totfact>
</mgrwt>
</event>
<event>
 5    1  0.8891499E-003  0.1281335E+03  0.7546771E-02  0.1299226E+00
         -2   -1    0    0    0  501 -0.00000000000E+00  0.00000000000E+00  0.24417469707E+03  0.24417469707E+03  0.00000000000E+00 0.  1.
          2   -1    0    0  502    0  0.00000000000E+00 -0.00000000000E+00 -0.20864214932E+03  0.20864214932E+03  0.00000000000E+00 0. -1.
         25    1    1    2    0    0  0.39940520545E+02  0.99159067424E+02 -0.61424609811E+02  0.17557263034E+03  0.12500000000E+03 0.  0.
          3    1    1    2  502    0 -0.17225434218E+02 -0.16044527588E+03  0.12789835078E+01  0.16137235803E+03  0.00000000000E+00 0. -1.
         -1    1    1    2    0  501 -0.22715086327E+02  0.61286208455E+02  0.95678174045E+02  0.11587185803E+03  0.00000000000E+00 0.  1.
<mgrwt>
<rscale>  0 0.91514200E+02</rscale>
<asrwt>0</asrwt>
<pdfrwt beam="2">  1        2 0.32098792E-01 0.12813349E+03</pdfrwt>
<pdfrwt beam="1">  1       -2 0.37565338E-01 0.65360343E+02</pdfrwt>
<totfact> 0.10661812E+03</totfact>
</mgrwt>
</event>
