<event>
 5    1  0.7156190E-003  0.3645669E+02  0.7546771E-02  0.1551239E+00
          2   -1    0    0  501    0  0.00000000000E+00  0.00000000000E+00  0.14979038135E+04  0.14979038135E+04  0.00000000000E+00 0. -1.
          2   -1    0    0  502    0 -0.00000000000E+00 -0.00000000000E+00 -0.19089292212E+04  0.19089292212E+04  0.00000000000E+00 0. -1.
         25    1    1    2    0    0  0.56230523648E+02  0.26599329691E+02 -0.34134164735E+03  0.36879332470E+03  0.12500000000E+03 0.  0.
          2    1    1    2  501    0 -0.36443873915E+02 -0.14333220842E+00  0.14837786007E+04  0.14842260988E+04  0.00000000000E+00 0. -1.
          2    1    1    2  502    0 -0.19786649733E+02 -0.26455997483E+02 -0.15534623611E+04  0.15538136113E+04  0.00000000000E+00 0. -1.
<mgrwt>
<rscale>  0 0.34704652E+02</rscale>
<asrwt>0</asrwt>
<pdfrwt beam="1">  1        2 0.23044674E+00 0.36456686E+02</pdfrwt>
<pdfrwt beam="2">  1        2 0.29368142E+00 0.33036817E+02</pdfrwt>
<totfact> 0.26185347E+01</totfact>
</mgrwt>
</event>
<event>
 5    1  0.7156190E-003  0.8163903E+02  0.7546771E-02  0.1442469E+00
          2   -1    0    0  502    0  0.00000000000E+00  0.00000000000E+00  0.62149355150E+03  0.62149355150E+03  0.00000000000E+00 0.  1.
          2   -1    0    0  501    0 -0.00000000000E+00 -0.00000000000E+00 -0.45139006566E+02  0.45139006566E+02  0.00000000000E+00 0. -1.
         25    1    1    2    0    0  0.44727356533E+02 -0.45548254303E+02  0.21741514713E+03  0.25878470993E+03  0.12500000000E+03 0.  0.
          2    1    1    2  501    0 -0.43764309013E+02  0.76816863834E+02  0.59014985166E+02  0.10629634889E+03  0.00000000000E+00 0. -1.
          2    1    1    2  502    0 -0.96304751993E+00 -0.31268609531E+02  0.29992441264E+03  0.30155149925E+03  0.00000000000E+00 0.  1.
<mgrwt>
<rscale>  0 0.50536615E+02</rscale>
<asrwt>0</asrwt>
<pdfrwt beam="1">  1        2 0.95614387E-01 0.31283437E+02</pdfrwt>
<pdfrwt beam="2">  1        2 0.69444630E-02 0.81639030E+02</pdfrwt>
<totfact> 0.73424515E+03</totfact>
</mgrwt>
</event>
<event>
 5    1  0.7156190E-003  0.9955926E+02  0.7546771E-02  0.1361572E+00
         -1   -1    0    0    0  501 -0.00000000000E+00  0.00000000000E+00  0.27105997508E+02  0.27105997508E+02  0.00000000000E+00 0.  1.
          2   -1    0    0  502    0  0.00000000000E+00 -0.00000000000E+00 -0.12033130483E+04  0.12033130483E+04  0.00000000000E+00 0. -1.
         25    1    1    2    0    0 -0.20559259333E+02  0.11623735805E+03 -0.96496561052E+03  0.98016194378E+03  0.12500000000E+03 0.  0.
          2    1    1    2  502    0 -0.10711018492E+02 -0.79020449308E+02 -0.16455470931E+03  0.18285844165E+03  0.00000000000E+00 0. -1.
         -1    1    1    2    0  501  0.31270277825E+02 -0.37216908746E+02 -0.46686730937E+02  0.67398660354E+02  0.00000000000E+00 0.  1.
<mgrwt>
<rscale>  0 0.69567033E+02</rscale>
<asrwt>0</asrwt>
<pdfrwt beam="2">  1        2 0.18512510E+00 0.99559261E+02</pdfrwt>
<pdfrwt beam="1">  1       -1 0.41701530E-02 0.48609964E+02</pdfrwt>
<totfact> 0.46860782E+03</totfact>
</mgrwt>
</event>
<event>
 5    1  0.7156190E-003  0.2197738E+03  0.7546771E-02  0.1187598E+00
          2   -1    0    0  502    0  0.00000000000E+00  0.00000000000E+00  0.31764749048E+04  0.31764749048E+04  0.00000000000E+00 0. -1.
         -1   -1    0    0    0  501 -0.00000000000E+00 -0.00000000000E+00 -0.18376525143E+03  0.18376525143E+03  0.00000000000E+00 0.  1.
         25    1    1    2    0    0  0.26790972766E+03  0.72277165137E+02  0.44822185676E+03  0.54178173064E+03  0.12500000000E+03 0.  0.
          2    1    1    2  502    0 -0.56965834208E+02 -0.10323603250E+03  0.25963594572E+04  0.25990354395E+04  0.00000000000E+00 0. -1.
         -1    1    1    2    0  501 -0.21094389345E+03  0.30958867362E+02 -0.51871660610E+02  0.21942298610E+03  0.00000000000E+00 0.  1.
<mgrwt>
<rscale>  0 0.16097685E+03</rscale>
<asrwt>0</asrwt>
<pdfrwt beam="1">  1        2 0.48868841E+00 0.11791007E+03</pdfrwt>
<pdfrwt beam="2">  1       -1 0.28271580E-01 0.21977381E+03</pdfrwt>
<totfact> 0.24151902E+01</totfact>
</mgrwt>
</event>
<event>
 5    1  0.7156190E-003  0.1770178E+03  0.7546771E-02  0.1255685E+00
          1   -1    0    0  502    0 -0.00000000000E+00  0.00000000000E+00  0.17850682901E+04  0.17850682901E+04  0.00000000000E+00 0. -1.
          2   -1    0    0  501    0  0.00000000000E+00 -0.00000000000E+00 -0.98927408105E+03  0.98927408105E+03  0.00000000000E+00 0. -1.
         25    1    1    2    0    0 -0.45481825677E+02  0.10405746148E+03  0.66812269090E+02  0.18161891713E+03  0.12500000000E+03 0.  0.
          2    1    1    2  501    0 -0.46987831315E+01  0.71572680879E+02 -0.92545673244E+03  0.92823213198E+03  0.00000000000E+00 0. -1.
          1    1    1    2  502    0  0.50180608809E+02 -0.17563014236E+03  0.16544386724E+04  0.16644913221E+04  0.00000000000E+00 0. -1.
<mgrwt>
<rscale>  0 0.11268058E+03</rscale>
<asrwt>0</asrwt>
<pdfrwt beam="2">  1        2 0.15219601E+00 0.71726754E+02</pdfrwt>
<pdfrwt beam="1">  1        1 0.27462589E+00 0.17701780E+03</pdfrwt>
<totfact> 0.19068091E+01</totfact>
</mgrwt>
</event>
<event>
 5    1  0.7156190E-003  0.1304417E+03  0.7546771E-02  0.1280772E+00
          2   -1    0    0  501    0  0.00000000000E+00  0.00000000000E+00  0.59849926117E+03  0.59849926117E+03  0.00000000000E+00 0. -1.
          1   -1    0    0  502    0 -0.00000000000E+00 -0.00000000000E+00 -0.10155086974E+04  0.10155086974E+04  0.00000000000E+00 0. -1.
         25    1    1    2    0    0  0.75610238944E+02  0.31442790555E+02 -0.74009846764E+02  0.16675735285E+03  0.12500000000E+03 0.  0.
          2    1    1    2  501    0 -0.13320574827E+03  0.18626373784E+02  0.54226798143E+03  0.55869963026E+03  0.00000000000E+00 0. -1.
          1    1    1    2  502    0  0.57595509326E+02 -0.50069164339E+02 -0.88526757094E+03  0.88855097550E+03  0.00000000000E+00 0. -1.
<mgrwt>
<rscale>  0 0.99773820E+02</rscale>
<asrwt>0</asrwt>
<pdfrwt beam="1">  1        2 0.92076811E-01 0.13044169E+03</pdfrwt>
<pdfrwt beam="2">  1        1 0.15623210E+00 0.76316210E+02</pdfrwt>
<totfact> 0.11918713E+02</totfact>
</mgrwt>
</event>
<event>
 5    1  0.7156190E-003  0.1355429E+03  0.7546771E-02  0.1373889E+00
          2   -1    0    0  501    0  0.00000000000E+00  0.00000000000E+00  0.11815400361E+03  0.11815400361E+03  0.00000000000E+00 0. -1.
          2   -1    0    0  502    0 -0.00000000000E+00 -0.00000000000E+00 -0.61108133193E+03  0.61108133193E+03  0.00000000000E+00 0.  1.
         25    1    1    2    0    0  0.12996523601E+03 -0.82862483830E+02 -0.12377355149E+03  0.23388468493E+03  0.12500000000E+03 0.  0.
          2    1    1    2  501    0 -0.97760064493E+02  0.84192915903E+02 -0.43136368297E+01  0.12908944481E+03  0.00000000000E+00 0. -1.
          2    1    1    2  502    0 -0.32205171518E+02 -0.13304320738E+01 -0.36484014000E+03  0.36626120581E+03  0.00000000000E+00 0.  1.
<mgrwt>
<rscale>  0 0.66097706E+02</rscale>
<asrwt>0</asrwt>
<pdfrwt beam="1">  1        2 0.18177539E-01 0.13554294E+03</pdfrwt>
<pdfrwt beam="2">  1        2 0.94012511E-01 0.32232641E+02</pdfrwt>
<totfact> 0.24224425E+03</totfact>
</mgrwt>
</event>
<event>
 5    1  0.7156190E-003  0.1318955E+03  0.7546771E-02  0.1282594E+00
         -2   -1    0    0    0  501 -0.00000000000E+00  0.00000000000E+00  0.54330269651E+02  0.54330269651E+02  0.00000000000E+00 0.  1.
          2   -1    0    0  502    0  0.00000000000E+00 -0.00000000000E+00 -0.79496158375E+03  0.79496158375E+03  0.00000000000E+00 0. -1.
         25    1    1    2    0    0 -0.17339696498E+01  0.93511221146E+02 -0.20223655737E+03  0.25548381606E+03  0.12500000000E+03 0.  0.
          2    1    1    2  502    0  0.60094230073E+02 -0.13930395225E+03 -0.46631937484E+03  0.49037808572E+03  0.00000000000E+00 0. -1.
         -2    1    1    2    0  501 -0.58360260424E+02  0.45792731104E+02 -0.72075381887E+02  0.10342995162E+03  0.00000000000E+00 0.  1.
<mgrwt>
<rscale>  0 0.98915140E+02</rscale>
<asrwt>0</asrwt>
<pdfrwt beam="2">  1        2 0.12230178E+00 0.13189549E+03</pdfrwt>
<pdfrwt beam="1">  1       -2 0.83585032E-02 0.74181495E+02</pdfrwt>
<totfact> 0.29616207E+03</totfact>
</mgrwt>
</event>
<event>
 5    1  0.7156190E-003  0.7804048E+02  0.7546771E-02  0.1465771E+00
         -1   -1    0    0    0  501 -0.00000000000E+00  0.00000000000E+00  0.72781756319E+01  0.72781756319E+01  0.00000000000E+00 0.  1.
          2   -1    0    0  502    0  0.00000000000E+00 -0.00000000000E+00 -0.29061468848E+04  0.29061468848E+04  0.00000000000E+00 0. -1.
         25    1    1    2    0    0  0.92910939519E+02 -0.30299986331E+02 -0.18679857318E+04  0.18747123049E+04  0.12500000000E+03 0.  0.
          2    1    1    2  502    0 -0.68140141108E+02  0.18148634946E+02 -0.96095084638E+03  0.96353462883E+03  0.00000000000E+00 0. -1.
         -1    1    1    2    0  501 -0.24770798411E+02  0.12151351385E+02 -0.69932130991E+02  0.75178126735E+02  0.00000000000E+00 0.  1.
<mgrwt>
<rscale>  0 0.46402509E+02</rscale>
<asrwt>0</asrwt>
<pdfrwt beam="2">  1        2 0.44710016E+00 0.78040476E+02</pdfrwt>
<pdfrwt beam="1">  1       -1 0.11197177E-02 0.27590719E+02</pdfrwt>
<totfact> 0.35781818E+03</totfact>
</mgrwt>
</event>
<event>
 5    1  0.7156190E-003  0.1695728E+03  0.7546771E-02  0.1374235E+00
          1   -1    0    0  502    0  0.00000000000E+00  0.00000000000E+00  0.13854159826E+03  0.13854159826E+03  0.00000000000E+00 0. -1.
          1   -1    0    0  501    0 -0.00000000000E+00 -0.00000000000E+00 -0.49255657546E+03  0.49255657546E+03  0.00000000000E+00 0. -1.
         25    1    1    2    0    0  0.14586063960E+03 -0.38458096520E+02 -0.18184577753E+03  0.26729616192E+03  0.12500000000E+03 0.  0.
          1    1    1    2  501    0  0.25396509179E+02 -0.38784335016E+01 -0.18513929113E+03  0.18691330087E+03  0.00000000000E+00 0. -1.
          1    1    1    2  502    0 -0.17125714877E+03  0.42336530022E+02  0.12970091455E+02  0.17688871093E+03  0.00000000000E+00 0. -1.
<mgrwt>
<rscale>  0 0.66003690E+02</rscale>
<asrwt>0</asrwt>
<pdfrwt beam="1">  1        1 0.21314091E-01 0.16957283E+03</pdfrwt>
<pdfrwt beam="2">  1        1 0.75777937E-01 0.25690950E+02</pdfrwt>
<totfact> 0.13420662E+03</totfact>
</mgrwt>
</event>
<event>
 5    1  0.7156190E-003  0.7048201E+02  0.7546771E-02  0.1430082E+00
          2   -1    0    0  502    0  0.00000000000E+00  0.00000000000E+00  0.89685918245E+03  0.89685918245E+03  0.00000000000E+00 0. -1.
         -3   -1    0    0    0  501 -0.00000000000E+00 -0.00000000000E+00 -0.17536147094E+03  0.17536147094E+03  0.00000000000E+00 0.  1.
         25    1    1    2    0    0 -0.97827056507E+02  0.40055945986E+02  0.12131580847E+03  0.20375754508E+03  0.12500000000E+03 0.  0.
          2    1    1    2  502    0  0.67699347217E+02 -0.14096096178E+02  0.72970386254E+03  0.73297314313E+03  0.00000000000E+00 0. -1.
         -3    1    1    2    0  501  0.30127709290E+02 -0.25959849808E+02 -0.12952195950E+03  0.13548996517E+03  0.00000000000E+00 0.  1.
<mgrwt>
<rscale>  0 0.52943518E+02</rscale>
<asrwt>0</asrwt>
<pdfrwt beam="1">  1        2 0.13797833E+00 0.70482007E+02</pdfrwt>
<pdfrwt beam="2">  1       -3 0.26978688E-01 0.39769243E+02</pdfrwt>
<totfact> 0.22838571E+02</totfact>
</mgrwt>
</event>
<event>
 5    1  0.7156190E-003  0.6221479E+02  0.7546771E-02  0.1427630E+00
          2   -1    0    0  502    0  0.00000000000E+00  0.00000000000E+00  0.43960188240E+04  0.43960188240E+04  0.00000000000E+00 0. -1.
          2   -1    0    0  501    0 -0.00000000000E+00 -0.00000000000E+00 -0.87086602578E+03  0.87086602578E+03  0.00000000000E+00 0. -1.
         25    1    1    2    0    0  0.76105694501E+02 -0.13789789535E+02 -0.33125506941E+03  0.36240468546E+03  0.12500000000E+03 0.  0.
          2    1    1    2  501    0 -0.20250546720E+02  0.41191951990E+02 -0.52280965435E+03  0.52482072771E+03  0.00000000000E+00 0. -1.
          2    1    1    2  502    0 -0.55855147781E+02 -0.27402162455E+02  0.43792175219E+04  0.43796594366E+04  0.00000000000E+00 0. -1.
<mgrwt>
<rscale>  0 0.53438691E+02</rscale>
<asrwt>0</asrwt>
<pdfrwt beam="1">  1        2 0.67631057E+00 0.62214788E+02</pdfrwt>
<pdfrwt beam="2">  1        2 0.13397939E+00 0.45900562E+02</pdfrwt>
<totfact> 0.15992152E+00</totfact>
</mgrwt>
</event>
<event>
 5    1  0.7156190E-003  0.6226074E+02  0.7546771E-02  0.1436092E+00
         -3   -1    0    0    0  501 -0.00000000000E+00  0.00000000000E+00  0.29334313023E+03  0.29334313023E+03  0.00000000000E+00 0.  1.
          3   -1    0    0  502    0  0.00000000000E+00 -0.00000000000E+00 -0.71346253458E+02  0.71346253458E+02  0.00000000000E+00 0. -1.
         25    1    1    2    0    0 -0.69630478349E+02 -0.61338122077E+02  0.15298933647E+03  0.21826934235E+03  0.12500000000E+03 0.  0.
          3    1    1    2  502    0  0.54780829834E+02  0.20957895172E+02 -0.70112599958E+01  0.59070554882E+02  0.00000000000E+00 0. -1.
         -3    1    1    2    0  501  0.14849648515E+02  0.40380226905E+02  0.76018800295E+02  0.87349486456E+02  0.00000000000E+00 0.  1.
<mgrwt>
<rscale>  0 0.51756290E+02</rscale>
<asrwt>0</asrwt>
<pdfrwt beam="2">  1        3 0.10976347E-01 0.62260743E+02</pdfrwt>
<pdfrwt beam="1">  1       -3 0.45129712E-01 0.43024119E+02</pdfrwt>
<totfact> 0.60665064E+02</totfact>
</mgrwt>
</event>
<event>
 5    1  0.7156190E-003  0.1286225E+03  0.7546771E-02  0.1434757E+00
         -1   -1    0    0    0  501 -0.00000000000E+00  0.00000000000E+00  0.30608691889E+03  0.30608691889E+03  0.00000000000E+00 0.  1.
          2   -1    0    0  502    0  0.00000000000E+00 -0.00000000000E+00 -0.25753228992E+04  0.25753228992E+04  0.00000000000E+00 0. -1.
         25    1    1    2    0    0  0.13108068918E+03  0.70107074595E+02 -0.19568046391E+03  0.27570453921E+03  0.12500000000E+03 0.  0.
          2    1    1    2  502    0 -0.11159085834E+03 -0.62190247033E+02 -0.23374676669E+04  0.23409560526E+04  0.00000000000E+00 0. -1.
         -1    1    1    2    0  501 -0.19489830840E+02 -0.79168275623E+01  0.26391215046E+03  0.26474922630E+03  0.00000000000E+00 0.  1.
<mgrwt>
<rscale>  0 0.52016850E+02</rscale>
<asrwt>0</asrwt>
<pdfrwt beam="2">  1        2 0.39620352E+00 0.12862249E+03</pdfrwt>
<pdfrwt beam="1">  1       -1 0.47090296E-01 0.21036389E+02</pdfrwt>
<totfact> 0.21285347E+01</totfact>
</mgrwt>
</event>
<event>
 5    1  0.7156190E-003  0.4308740E+03  0.7546771E-02  0.1162833E+00
          3   -1    0    0  502    0 -0.00000000000E+00  0.00000000000E+00  0.12409796487E+04  0.12409796487E+04  0.00000000000E+00 0. -1.
          1   -1    0    0  501    0  0.00000000000E+00 -0.00000000000E+00 -0.53988802913E+03  0.53988802913E+03  0.00000000000E+00 0. -1.
         25    1    1    2    0    0  0.85893095756E+02  0.46874626451E+03  0.49516172348E+03  0.69850613225E+03  0.12500000000E+03 0.  0.
          1    1    1    2  501    0 -0.40604322241E+02 -0.68501199000E+02 -0.37060039941E+03  0.37905907361E+03  0.00000000000E+00 0. -1.
          3    1    1    2  502    0 -0.45288773515E+02 -0.40024506550E+03  0.57653029551E+03  0.70330247199E+03  0.00000000000E+00 0. -1.
<mgrwt>
<rscale>  0 0.18523230E+03</rscale>
<asrwt>0</asrwt>
<pdfrwt beam="2">  1        1 0.83059697E-01 0.79631183E+02</pdfrwt>
<pdfrwt beam="1">  1        3 0.19091995E+00 0.43087399E+03</pdfrwt>
<totfact> 0.40533581E+00</totfact>
</mgrwt>
</event>
<event>
 5    1  0.7156190E-003  0.1104101E+03  0.7546771E-02  0.1365409E+00
         -1   -1    0    0    0  501  0.00000000000E+00  0.00000000000E+00  0.42487755320E+02  0.42487755320E+02  0.00000000000E+00 0.  1.
         -1   -1    0    0    0  502 -0.00000000000E+00 -0.00000000000E+00 -0.12372497885E+04  0.12372497885E+04  0.00000000000E+00 0.  1.
         25    1    1    2    0    0  0.35594344672E+02  0.92772167282E+02 -0.22295637808E+03  0.27424109634E+03  0.12500000000E+03 0.  0.
         -1    1    1    2    0  501 -0.37498672941E+02  0.19894067786E+02 -0.19790359556E+02  0.46835699384E+02  0.00000000000E+00 0.  1.
         -1    1    1    2    0  502  0.19043282689E+01 -0.11266623507E+03 -0.95201529558E+03  0.95866074814E+03  0.00000000000E+00 0.  1.
<mgrwt>
<rscale>  0 0.68460266E+02</rscale>
<asrwt>0</asrwt>
<pdfrwt beam="1">  1       -1 0.65365788E-02 0.42449080E+02</pdfrwt>
<pdfrwt beam="2">  1       -1 0.19034609E+00 0.11041012E+03</pdfrwt>
<totfact> 0.17656695E+02</totfact>
</mgrwt>
</event>
<event>
 5    1  0.7156190E-003  0.6703952E+02  0.7546771E-02  0.1527166E+00
         -2   -1    0    0    0  501 -0.00000000000E+00  0.00000000000E+00  0.39750324559E+03  0.39750324559E+03  0.00000000000E+00 0.  1.
          1   -1    0    0  502    0  0.00000000000E+00 -0.00000000000E+00 -0.46073561652E+02  0.46073561652E+02  0.00000000000E+00 0. -1.
         25    1    1    2    0    0  0.68314516811E+02 -0.31613821793E+02  0.27373405832E+03  0.31019613412E+03  0.12500000000E+03 0.  0.
          1    1    1    2  502    0 -0.65302634583E+02  0.10813715467E+02  0.15852348671E+02  0.68063701663E+02  0.00000000000E+00 0. -1.
         -2    1    1    2    0  501 -0.30118822278E+01  0.20800106326E+02  0.61843276943E+02  0.65316971460E+02  0.00000000000E+00 0.  1.
<mgrwt>
<rscale>  0 0.37536276E+02</rscale>
<asrwt>0</asrwt>
<pdfrwt beam="2">  1        1 0.70882405E-02 0.67039515E+02</pdfrwt>
<pdfrwt beam="1">  1       -2 0.61154343E-01 0.21017037E+02</pdfrwt>
<totfact> 0.20888563E+03</totfact>
</mgrwt>
</event>
<event>
 5    1  0.7156190E-003  0.4198452E+02  0.7546771E-02  0.1495350E+00
          1   -1    0    0  502    0  0.00000000000E+00  0.00000000000E+00  0.37925492367E+02  0.37925492367E+02  0.00000000000E+00 0. -1.
         -2   -1    0    0    0  501 -0.00000000000E+00 -0.00000000000E+00 -0.33119072194E+03  0.33119072194E+03  0.00000000000E+00 0.  1.
         25    1    1    2    0    0  0.16206952610E+02  0.36906303324E+02 -0.20938935204E+03  0.24717127925E+03  0.12500000000E+03 0.  0.
          1    1    1    2  502    0 -0.45553880243E+02 -0.68820195388E+01 -0.50081959906E+02  0.68049400483E+02  0.00000000000E+00 0. -1.
         -2    1    1    2    0  501  0.29346927633E+02 -0.30024283785E+02 -0.33793917625E+02  0.53895534571E+02  0.00000000000E+00 0.  1.
<mgrwt>
<rscale>  0 0.41802580E+02</rscale>
<asrwt>0</asrwt>
<pdfrwt beam="1">  1        1 0.58346910E-02 0.41621430E+02</pdfrwt>
<pdfrwt beam="2">  1       -2 0.50952420E-01 0.41984518E+02</pdfrwt>
<totfact> 0.37098871E+03</totfact>
</mgrwt>
</event>
<event>
 5    1  0.7156190E-003  0.5809974E+02  0.7546771E-02  0.1493748E+00
         -2   -1    0    0    0  501 -0.00000000000E+00  0.00000000000E+00  0.18935408427E+03  0.18935408427E+03  0.00000000000E+00 0.  1.
          2   -1    0    0  502    0  0.00000000000E+00 -0.00000000000E+00 -0.45450818177E+03  0.45450818177E+03  0.00000000000E+00 0.  1.
         25    1    1    2    0    0  0.25194181748E+02  0.52712552719E+02 -0.17158039081E+03  0.22017763401E+03  0.12500000000E+03 0.  0.
          2    1    1    2  502    0  0.22993472336E+02 -0.19904894823E+02 -0.25254090821E+03  0.25436551443E+03  0.00000000000E+00 0.  1.
         -2    1    1    2    0  501 -0.48187654085E+02 -0.32807657896E+02  0.15896720153E+03  0.16931911760E+03  0.00000000000E+00 0.  1.
<mgrwt>
<rscale>  0 0.42035028E+02</rscale>
<asrwt>0</asrwt>
<pdfrwt beam="2">  1        2 0.69924336E-01 0.30412244E+02</pdfrwt>
<pdfrwt beam="1">  1       -2 0.29131397E-01 0.58099742E+02</pdfrwt>
<totfact> 0.74137161E+02</totfact>
</mgrwt>
</event>
<event>
 5    1  0.7156190E-003  0.1447712E+03  0.7546771E-02  0.1213256E+00
          1   -1    0    0  502    0  0.00000000000E+00  0.00000000000E+00  0.38764356481E+03  0.38764356481E+03  0.00000000000E+00 0. -1.
          1   -1    0    0  501    0 -0.00000000000E+00 -0.00000000000E+00 -0.24794956837E+04  0.24794956837E+04  0.00000000000E+00 0. -1.
         25    1    1    2    0    0 -0.10825984480E+03 -0.90908620627E+02  0.22396084126E+01  0.18871827454E+03  0.12500000000E+03 0.  0.
          1    1    1    2  501    0 -0.15766728641E+02  0.14545508939E+03 -0.23681679053E+04  0.23726830804E+04  0.00000000000E+00 0. -1.
          1    1    1    2  502    0  0.12402657344E+03 -0.54546468765E+02  0.27407617799E+03  0.30573789349E+03  0.00000000000E+00 0. -1.
<mgrwt>
<rscale>  0 0.14005443E+03</rscale>
<asrwt>0</asrwt>
<pdfrwt beam="1">  1        1 0.59637474E-01 0.13549136E+03</pdfrwt>
<pdfrwt beam="2">  1        1 0.38146086E+00 0.14477118E+03</pdfrwt>
<totfact> 0.13672751E+01</totfact>
</mgrwt>
</event>
<event>
 5    1  0.7156190E-003  0.1529721E+03  0.7546771E-02  0.1417850E+00
         -1   -1    0    0    0  501 -0.00000000000E+00  0.00000000000E+00  0.26269061818E+03  0.26269061818E+03  0.00000000000E+00 0.  1.
          2   -1    0    0  502    0  0.00000000000E+00 -0.00000000000E+00 -0.35717191877E+03  0.35717191877E+03  0.00000000000E+00 0. -1.
         25    1    1    2    0    0  0.10053071699E+03  0.12819798976E+03 -0.25789746791E+03  0.32966233268E+03  0.12500000000E+03 0.  0.
          2    1    1    2  502    0  0.57448561357E+01 -0.19282818467E+02 -0.34865703713E+02  0.40254785498E+02  0.00000000000E+00 0. -1.
         -1    1    1    2    0  501 -0.10627557313E+03 -0.10891517129E+03  0.19828187104E+03  0.24994541877E+03  0.00000000000E+00 0.  1.
<mgrwt>
<rscale>  0 0.55478454E+02</rscale>
<asrwt>0</asrwt>
<pdfrwt beam="2">  1        2 0.54949526E-01 0.20120399E+02</pdfrwt>
<pdfrwt beam="1">  1       -1 0.40413941E-01 0.15297206E+03</pdfrwt>
<totfact> 0.62271412E+02</totfact>
</mgrwt>
</event>
<event>
 5    1  0.7156190E-003  0.8343055E+02  0.7546771E-02  0.1432360E+00
         -1   -1    0    0    0  501 -0.00000000000E+00  0.00000000000E+00  0.42586906957E+02  0.42586906957E+02  0.00000000000E+00 0.  1.
          1   -1    0    0  502    0  0.00000000000E+00 -0.00000000000E+00 -0.44827771130E+03  0.44827771130E+03  0.00000000000E+00 0. -1.
         25    1    1    2    0    0 -0.26930249077E+02  0.81412542423E+02 -0.21982459303E+03  0.26702264339E+03  0.12500000000E+03 0.  0.
          1    1    1    2  502    0  0.32906256264E+02  0.27734540439E+01 -0.91313098367E+02  0.97100956134E+02  0.00000000000E+00 0. -1.
         -1    1    1    2    0  501 -0.59760071869E+01 -0.84185996467E+02 -0.94553112945E+02  0.12674101874E+03  0.00000000000E+00 0.  1.
<mgrwt>
<rscale>  0 0.52489246E+02</rscale>
<asrwt>0</asrwt>
<pdfrwt beam="2">  1        1 0.68965803E-01 0.33022928E+02</pdfrwt>
<pdfrwt beam="1">  1       -1 0.65518317E-02 0.83430548E+02</pdfrwt>
<totfact> 0.57657789E+03</totfact>
</mgrwt>
</event>
<event>
 5    1  0.7156190E-003  0.3038530E+02  0.7546771E-02  0.1625151E+00
          1   -1    0    0  502    0  0.00000000000E+00  0.00000000000E+00  0.18018440161E+04  0.18018440161E+04  0.00000000000E+00 0. -1.
          1   -1    0    0  501    0 -0.00000000000E+00 -0.00000000000E+00 -0.53576305122E+01  0.53576305122E+01  0.00000000000E+00 0. -1.
         25    1    1    2    0    0  0.71112511838E+01  0.15965291243E+02  0.95072167526E+03  0.95906317009E+03  0.12500000000E+03 0.  0.
          1    1    1    2  501    0 -0.31978185635E+02 -0.20227377476E+02  0.46336148585E+03  0.46490388009E+03  0.00000000000E+00 0. -1.
          1    1    1    2  502    0  0.24866934451E+02  0.42620862325E+01  0.38240322453E+03  0.38323459648E+03  0.00000000000E+00 0. -1.
<mgrwt>
<rscale>  0 0.27687673E+02</rscale>
<asrwt>0</asrwt>
<pdfrwt beam="1">  1        1 0.27720629E+00 0.25229542E+02</pdfrwt>
<pdfrwt beam="2">  1        1 0.82425228E-03 0.30385302E+02</pdfrwt>
<totfact> 0.10461034E+04</totfact>
</mgrwt>
</event>
<event>
 5    1  0.7156190E-003  0.9704672E+02  0.7546771E-02  0.1329048E+00
          2   -1    0    0  501    0  0.00000000000E+00  0.00000000000E+00  0.58903867999E+03  0.58903867999E+03  0.00000000000E+00 0. -1.
          2   -1    0    0  502    0 -0.00000000000E+00 -0.00000000000E+00 -0.14319975911E+04  0.14319975911E+04  0.00000000000E+00 0. -1.
         25    1    1    2    0    0 -0.27272211256E+01  0.12563043129E+03  0.89916314432E+02  0.19874704175E+03  0.12500000000E+03 0.  0.
          2    1    1    2  501    0  0.51277560591E+02 -0.80995953432E+02  0.43873931960E+03  0.44909010594E+03  0.00000000000E+00 0. -1.
          2    1    1    2  502    0 -0.48550339465E+02 -0.44634477859E+02 -0.13716145451E+04  0.13731991234E+04  0.00000000000E+00 0. -1.
<mgrwt>
<rscale>  0 0.80001303E+02</rscale>
<asrwt>0</asrwt>
<pdfrwt beam="1">  1        2 0.90621336E-01 0.97046716E+02</pdfrwt>
<pdfrwt beam="2">  1        2 0.22030732E+00 0.65949769E+02</pdfrwt>
<totfact> 0.13611746E+02</totfact>
</mgrwt>
</event>
<event>
 5    1  0.7156190E-003  0.8415433E+02  0.7546771E-02  0.1494468E+00
          1   -1    0    0  502    0 -0.00000000000E+00  0.00000000000E+00  0.42865058591E+03  0.42865058591E+03  0.00000000000E+00 0. -1.
          2   -1    0    0  501    0  0.00000000000E+00 -0.00000000000E+00 -0.94382753310E+03  0.94382753310E+03  0.00000000000E+00 0. -1.
         25    1    1    2    0    0  0.88615152361E+02 -0.40674961169E+02  0.23679230581E+03  0.28496086360E+03  0.12500000000E+03 0.  0.
          2    1    1    2  501    0 -0.20890212095E+02 -0.27358762399E+00 -0.91028355688E+03  0.91052327248E+03  0.00000000000E+00 0. -1.
          1    1    1    2  502    0 -0.67724940265E+02  0.40948548793E+02  0.15831430388E+03  0.17699398293E+03  0.00000000000E+00 0. -1.
<mgrwt>
<rscale>  0 0.41930331E+02</rscale>
<asrwt>0</asrwt>
<pdfrwt beam="2">  1        2 0.14520423E+00 0.20892004E+02</pdfrwt>
<pdfrwt beam="1">  1        1 0.65946244E-01 0.84154335E+02</pdfrwt>
<totfact> 0.24882025E+02</totfact>
</mgrwt>
</event>
<event>
 5    1  0.7156190E-003  0.1234031E+03  0.7546771E-02  0.1405765E+00
          1   -1    0    0  502    0  0.00000000000E+00  0.00000000000E+00  0.81057905076E+03  0.81057905076E+03  0.00000000000E+00 0. -1.
         -1   -1    0    0    0  501 -0.00000000000E+00 -0.00000000000E+00 -0.38628759132E+02  0.38628759132E+02  0.00000000000E+00 0.  1.
         25    1    1    2    0    0  0.89930102761E+02 -0.10028349465E+03  0.31983463347E+03  0.36886772080E+03  0.12500000000E+03 0.  0.
          1    1    1    2  502    0  0.16222288252E-01  0.27401195349E+02  0.21211102528E+03  0.21387359074E+03  0.00000000000E+00 0.  1.
         -1    1    1    2    0  501 -0.89946325049E+02  0.72882299303E+02  0.24000463288E+03  0.26646649835E+03  0.00000000000E+00 0. -1.
<mgrwt>
<rscale>  0 0.58149751E+02</rscale>
<asrwt>0</asrwt>
<pdfrwt beam="1">  1        1 0.12470446E+00 0.27401200E+02</pdfrwt>
<pdfrwt beam="2">  1       -1 0.59428866E-02 0.12340312E+03</pdfrwt>
<totfact> 0.32360042E+03</totfact>
</mgrwt>
</event>
<event>
 5    1  0.7156190E-003  0.6787951E+02  0.7546771E-02  0.1493284E+00
          1   -1    0    0  502    0  0.00000000000E+00  0.00000000000E+00  0.52615560588E+03  0.52615560588E+03  0.00000000000E+00 0. -1.
         -1   -1    0    0    0  501 -0.00000000000E+00 -0.00000000000E+00 -0.11952618576E+03  0.11952618576E+03  0.00000000000E+00 0.  1.
         25    1    1    2    0    0  0.36182585817E+02 -0.30894500444E+02  0.25866811428E+02  0.13622680209E+03  0.12500000000E+03 0.  0.
          1    1    1    2  502    0  0.23446755150E+02 -0.11498719069E+02  0.42377909296E+03  0.42458296068E+03  0.00000000000E+00 0. -1.
         -1    1    1    2    0  501 -0.59629340967E+02  0.42393219514E+02 -0.43016484274E+02  0.84872028868E+02  0.00000000000E+00 0.  1.
<mgrwt>
<rscale>  0 0.42102782E+02</rscale>
<asrwt>0</asrwt>
<pdfrwt beam="1">  1        1 0.80947015E-01 0.26114572E+02</pdfrwt>
<pdfrwt beam="2">  1       -1 0.18388644E-01 0.67879508E+02</pdfrwt>
<totfact> 0.98668177E+02</totfact>
</mgrwt>
</event>
<event>
 5    1  0.7156190E-003  0.6136140E+02  0.7546771E-02  0.1464576E+00
          1   -1    0    0  502    0  0.00000000000E+00  0.00000000000E+00  0.29305402508E+04  0.29305402508E+04  0.00000000000E+00 0. -1.
         -2   -1    0    0    0  501 -0.00000000000E+00 -0.00000000000E+00 -0.67619012396E+01  0.67619012396E+01  0.00000000000E+00 0.  1.
         25    1    1    2    0    0 -0.72861852179E+02 -0.43156798219E+02  0.20907512247E+04  0.20961958501E+04  0.12500000000E+03 0.  0.
          1    1    1    2  502    0  0.14791188287E+02  0.32155306802E+02  0.58751563019E+03  0.58858080051E+03  0.00000000000E+00 0. -1.
         -2    1    1    2    0  501  0.58070663892E+02  0.11001491417E+02  0.24551149471E+03  0.25252550139E+03  0.00000000000E+00 0.  1.
<mgrwt>
<rscale>  0 0.46602921E+02</rscale>
<asrwt>0</asrwt>
<pdfrwt beam="1">  1        1 0.45085133E+00 0.35394110E+02</pdfrwt>
<pdfrwt beam="2">  1       -2 0.10402948E-02 0.61361403E+02</pdfrwt>
<totfact> 0.16237934E+03</totfact>
</mgrwt>
</event>
<event>
 5    1  0.7156190E-003  0.5277303E+02  0.7546771E-02  0.1570843E+00
         -1   -1    0    0    0  501 -0.00000000000E+00  0.00000000000E+00  0.15283242243E+02  0.15283242243E+02  0.00000000000E+00 0.  1.
          2   -1    0    0  502    0  0.00000000000E+00 -0.00000000000E+00 -0.10781687116E+04  0.10781687116E+04  0.00000000000E+00 0. -1.
         25    1    1    2    0    0  0.44600088349E+02 -0.38911500208E+02 -0.82306867326E+03  0.83460788017E+03  0.12500000000E+03 0.  0.
          2    1    1    2  502    0  0.42270577756E+01  0.19710896222E+02 -0.17162116577E+03  0.17280107635E+03  0.00000000000E+00 0. -1.
         -1    1    1    2    0  501 -0.48827146124E+02  0.19200603987E+02 -0.68195630281E+02  0.86042997283E+02  0.00000000000E+00 0.  1.
<mgrwt>
<rscale>  0 0.32616779E+02</rscale>
<asrwt>0</asrwt>
<pdfrwt beam="2">  1        2 0.16587208E+00 0.20159054E+02</pdfrwt>
<pdfrwt beam="1">  1       -1 0.23512684E-02 0.52773026E+02</pdfrwt>
<totfact> 0.13767188E+04</totfact>
</mgrwt>
</event>
<event>
 5    1  0.7156190E-003  0.1549231E+03  0.7546771E-02  0.1215751E+00
          1   -1    0    0  501    0  0.00000000000E+00  0.00000000000E+00  0.21966470852E+04  0.21966470852E+04  0.00000000000E+00 0. -1.
          1   -1    0    0  502    0 -0.00000000000E+00 -0.00000000000E+00 -0.15027722942E+04  0.15027722942E+04  0.00000000000E+00 0. -1.
         25    1    1    2    0    0 -0.12986051259E+03  0.70068969900E+02 -0.14556739746E+03  0.24205016108E+03  0.12500000000E+03 0.  0.
          1    1    1    2  501    0  0.89476747116E+02  0.84847582433E+02  0.21417305659E+04  0.21452773754E+04  0.00000000000E+00 0. -1.
          1    1    1    2  502    0  0.40383765475E+02 -0.15491655233E+03 -0.13022883773E+04  0.13120918430E+04  0.00000000000E+00 0. -1.
<mgrwt>
<rscale>  0 0.13821529E+03</rscale>
<asrwt>0</asrwt>
<pdfrwt beam="1">  1        1 0.33794570E+00 0.12330937E+03</pdfrwt>
<pdfrwt beam="2">  1        1 0.23119574E+00 0.15492306E+03</pdfrwt>
<totfact> 0.25194115E+00</totfact>
</mgrwt>
</event>
<event>
 5    1  0.7156190E-003  0.7986414E+02  0.7546771E-02  0.1360898E+00
         -1   -1    0    0    0  501  0.00000000000E+00  0.00000000000E+00  0.10686301917E+03  0.10686301917E+03  0.00000000000E+00 0.  1.
         -3   -1    0    0    0  502 -0.00000000000E+00 -0.00000000000E+00 -0.27202819143E+03  0.27202819143E+03  0.00000000000E+00 0.  1.
         25    1    1    2    0    0  0.43334543759E+02 -0.94985429953E+01 -0.89598657210E+02  0.16006568769E+03  0.12500000000E+03 0.  0.
         -1    1    1    2    0  501 -0.83605900463E+02 -0.36240030289E+02  0.30843206005E+02  0.96200778293E+02  0.00000000000E+00 0.  1.
         -3    1    1    2    0  502  0.40271356704E+02  0.45738573284E+02 -0.10640972106E+03  0.12262474462E+03  0.00000000000E+00 0.  1.
<mgrwt>
<rscale>  0 0.69763863E+02</rscale>
<asrwt>0</asrwt>
<pdfrwt beam="1">  1       -1 0.16440464E-01 0.79864141E+02</pdfrwt>
<pdfrwt beam="2">  1       -3 0.41850491E-01 0.60940949E+02</pdfrwt>
<totfact> 0.63440451E+02</totfact>
</mgrwt>
</event>
<event>
 5    1  0.7156190E-003  0.5946859E+02  0.7546771E-02  0.1425244E+00
          2   -1    0    0  501    0  0.00000000000E+00  0.00000000000E+00  0.52810816122E+02  0.52810816122E+02  0.00000000000E+00 0.  1.
          1   -1    0    0  502    0 -0.00000000000E+00 -0.00000000000E+00 -0.66051089177E+03  0.66051089177E+03  0.00000000000E+00 0. -1.
         25    1    1    2    0    0 -0.30413470522E+02 -0.53552273090E+02 -0.74604139044E+02  0.15806202170E+03  0.12500000000E+03 0.  0.
          2    1    1    2  501    0 -0.17216768419E+02  0.64628121312E+02 -0.10575033716E+03  0.12512531714E+03  0.00000000000E+00 0.  1.
          1    1    1    2  502    0  0.47630238941E+02 -0.11075848222E+02 -0.42734559945E+03  0.43013436906E+03  0.00000000000E+00 0. -1.
<mgrwt>
<rscale>  0 0.53926590E+02</rscale>
<asrwt>0</asrwt>
<pdfrwt beam="1">  1        2 0.81247408E-02 0.59468585E+02</pdfrwt>
<pdfrwt beam="2">  1        1 0.10161706E+00 0.48901064E+02</pdfrwt>
<totfact> 0.33346620E+03</totfact>
</mgrwt>
</event>
<event>
 5    1  0.7156190E-003  0.9697334E+02  0.7546771E-02  0.1356426E+00
          2   -1    0    0  502    0  0.00000000000E+00  0.00000000000E+00  0.17438497787E+04  0.17438497787E+04  0.00000000000E+00 0. -1.
         -2   -1    0    0    0  501 -0.00000000000E+00 -0.00000000000E+00 -0.16691075417E+03  0.16691075417E+03  0.00000000000E+00 0.  1.
         25    1    1    2    0    0 -0.58917227032E+02 -0.45616989475E+02  0.51568017257E+02  0.15439044586E+03  0.12500000000E+03 0.  0.
          2    1    1    2  502    0  0.97365701026E+02  0.10436196024E+02  0.16334499201E+04  0.16363824845E+04  0.00000000000E+00 0. -1.
         -2    1    1    2    0  501 -0.38448473994E+02  0.35180793451E+02 -0.10807891281E+03  0.11998760259E+03  0.00000000000E+00 0.  1.
<mgrwt>
<rscale>  0 0.71089842E+02</rscale>
<asrwt>0</asrwt>
<pdfrwt beam="1">  1        2 0.26828457E+00 0.96973337E+02</pdfrwt>
<pdfrwt beam="2">  1       -2 0.25678579E-01 0.52115001E+02</pdfrwt>
<totfact> 0.14554545E+02</totfact>
</mgrwt>
</event>
<event>
 5    1  0.7156190E-003  0.9450536E+02  0.7546771E-02  0.1315581E+00
         -3   -1    0    0    0  501 -0.00000000000E+00  0.00000000000E+00  0.87096312236E+03  0.87096312236E+03  0.00000000000E+00 0.  1.
          3   -1    0    0  502    0  0.00000000000E+00 -0.00000000000E+00 -0.98089378585E+02  0.98089378585E+02  0.00000000000E+00 0. -1.
         25    1    1    2    0    0  0.74877385000E+02  0.26966510718E+01  0.12830924095E+03  0.19417043036E+03  0.12500000000E+03 0.  0.
          3    1    1    2  502    0 -0.77863388178E+01 -0.75950307351E+02 -0.37891954971E+02  0.85234244940E+02  0.00000000000E+00 0. -1.
         -3    1    1    2    0  501 -0.67091046182E+02  0.73253656280E+02  0.68245645779E+03  0.68964782564E+03  0.00000000000E+00 0.  1.
<mgrwt>
<rscale>  0 0.84943111E+02</rscale>
<asrwt>0</asrwt>
<pdfrwt beam="2">  1        3 0.15090674E-01 0.76348387E+02</pdfrwt>
<pdfrwt beam="1">  1       -3 0.13399432E+00 0.94505363E+02</pdfrwt>
<totfact> 0.37283601E+01</totfact>
</mgrwt>
</event>
<event>
 5    1  0.7156190E-003  0.1227600E+03  0.7546771E-02  0.1286030E+00
          2   -1    0    0  501    0  0.00000000000E+00  0.00000000000E+00  0.69671630529E+03  0.69671630529E+03  0.00000000000E+00 0. -1.
          2   -1    0    0  502    0 -0.00000000000E+00 -0.00000000000E+00 -0.71366840915E+03  0.71366840915E+03  0.00000000000E+00 0. -1.
         25    1    1    2    0    0 -0.44629257519E+02  0.18589241489E+03 -0.71390162138E+02  0.23931008293E+03  0.12500000000E+03 0.  0.
          2    1    1    2  501    0 -0.75951433749E+00 -0.77151694935E+02  0.60405793959E+03  0.60896547955E+03  0.00000000000E+00 0. -1.
          2    1    1    2  502    0  0.45388771856E+02 -0.10874071996E+03 -0.54961988131E+03  0.56210915196E+03  0.00000000000E+00 0. -1.
<mgrwt>
<rscale>  0 0.97322143E+02</rscale>
<asrwt>0</asrwt>
<pdfrwt beam="1">  1        2 0.10718712E+00 0.77155433E+02</pdfrwt>
<pdfrwt beam="2">  1        2 0.10979514E+00 0.12275998E+03</pdfrwt>
<totfact> 0.28648451E+02</totfact>
</mgrwt>
</event>
<event>
 5    1  0.7156190E-003  0.7906318E+02  0.7546771E-02  0.1335072E+00
          2   -1    0    0  502    0  0.00000000000E+00  0.00000000000E+00  0.16982066739E+04  0.16982066739E+04  0.00000000000E+00 0. -1.
          2   -1    0    0  501    0 -0.00000000000E+00 -0.00000000000E+00 -0.26928993763E+03  0.26928993763E+03  0.00000000000E+00 0. -1.
         25    1    1    2    0    0  0.65266205079E+02 -0.59626185185E+02  0.12597566918E+04  0.12690259580E+04  0.12500000000E+03 0.  0.
          2    1    1    2  501    0 -0.75262113868E+02 -0.24219827504E+02 -0.25448946648E+03  0.26648803796E+03  0.00000000000E+00 0. -1.
          2    1    1    2  502    0  0.99959087895E+01  0.83846012689E+02  0.42364951096E+03  0.43198261559E+03  0.00000000000E+00 0. -1.
<mgrwt>
<rscale>  0 0.77915897E+02</rscale>
<asrwt>0</asrwt>
<pdfrwt beam="1">  1        2 0.26126256E+00 0.76785266E+02</pdfrwt>
<pdfrwt beam="2">  1        2 0.41429222E-01 0.79063176E+02</pdfrwt>
<totfact> 0.22675447E+02</totfact>
</mgrwt>
</event>
<event>
 5    1  0.7156190E-003  0.1187673E+03  0.7546771E-02  0.1273158E+00
          2   -1    0    0  501    0  0.00000000000E+00  0.00000000000E+00  0.20269572436E+03  0.20269572436E+03  0.00000000000E+00 0. -1.
          1   -1    0    0  502    0 -0.00000000000E+00 -0.00000000000E+00 -0.20143701765E+04  0.20143701765E+04  0.00000000000E+00 0. -1.
         25    1    1    2    0    0  0.26412649315E+02 -0.16672353844E+02 -0.74635979253E+03  0.75739919153E+03  0.12500000000E+03 0.  0.
          2    1    1    2  501    0 -0.11044372708E+03  0.49312446738E+02  0.17683881635E+03  0.21424635638E+03  0.00000000000E+00 0. -1.
          1    1    1    2  502    0  0.84031077769E+02 -0.32640092894E+02 -0.12421534760E+04  0.12454203530E+04  0.00000000000E+00 0. -1.
<mgrwt>
<rscale>  0 0.10347264E+03</rscale>
<asrwt>0</asrwt>
<pdfrwt beam="1">  1        2 0.31183958E-01 0.11876725E+03</pdfrwt>
<pdfrwt beam="2">  1        1 0.30990310E+00 0.90147644E+02</pdfrwt>
<totfact> 0.84994643E+01</totfact>
</mgrwt>
</event>
<event>
 5    1  0.7156190E-003  0.6057308E+02  0.7546771E-02  0.1526284E+00
         -1   -1    0    0    0  501 -0.00000000000E+00  0.00000000000E+00  0.11213001992E+04  0.11213001992E+04  0.00000000000E+00 0.  1.
          3   -1    0    0  502    0  0.00000000000E+00 -0.00000000000E+00 -0.90298732912E+02  0.90298732912E+02  0.00000000000E+00 0. -1.
         25    1    1    2    0    0 -0.79316806541E+02  0.11237651570E+02  0.38972237922E+03  0.41704433035E+03  0.12500000000E+03 0.  0.
          3    1    1    2  502    0  0.57095094360E+02 -0.18560178316E+02 -0.64656452504E+02  0.88231439235E+02  0.00000000000E+00 0. -1.
         -1    1    1    2    0  501  0.22221712182E+02  0.73225267459E+01  0.70593553960E+03  0.70632316255E+03  0.00000000000E+00 0.  1.
<mgrwt>
<rscale>  0 0.37646168E+02</rscale>
<asrwt>0</asrwt>
<pdfrwt beam="2">  1        3 0.13892114E-01 0.60573084E+02</pdfrwt>
<pdfrwt beam="1">  1       -1 0.17250771E+00 0.23397091E+02</pdfrwt>
<totfact> 0.53398365E+01</totfact>
</mgrwt>
</event>
<event>
 5    1  0.7156190E-003  0.8745778E+02  0.7546771E-02  0.1313126E+00
          2   -1    0    0  502    0  0.00000000000E+00  0.00000000000E+00  0.50875725144E+03  0.50875725144E+03  0.00000000000E+00 0. -1.
         -1   -1    0    0    0  501 -0.00000000000E+00 -0.00000000000E+00 -0.29803676083E+03  0.29803676083E+03  0.00000000000E+00 0.  1.
         25    1    1    2    0    0  0.82950126539E+01  0.85735764568E+02 -0.19439455461E+01  0.15181636106E+03  0.12500000000E+03 0.  0.
          2    1    1    2  502    0 -0.80593830413E+02 -0.33963186083E+02  0.42019390515E+03  0.42919899980E+03  0.00000000000E+00 0. -1.
         -1    1    1    2    0  501  0.72298817759E+02 -0.51772578485E+02 -0.20752946899E+03  0.22577865141E+03  0.00000000000E+00 0.  1.
<mgrwt>
<rscale>  0 0.85888247E+02</rscale>
<asrwt>0</asrwt>
<pdfrwt beam="1">  1        2 0.78270346E-01 0.87457781E+02</pdfrwt>
<pdfrwt beam="2">  1       -1 0.45851809E-01 0.84346879E+02</pdfrwt>
<totfact> 0.34535740E+02</totfact>
</mgrwt>
</event>
<event>
 5    1  0.7156190E-003  0.7694378E+02  0.7546771E-02  0.1438332E+00
         -1   -1    0    0    0  501 -0.00000000000E+00  0.00000000000E+00  0.15469229408E+03  0.15469229408E+03  0.00000000000E+00 0.  1.
          1   -1    0    0  502    0  0.00000000000E+00 -0.00000000000E+00 -0.15142043769E+04  0.15142043769E+04  0.00000000000E+00 0. -1.
         25    1    1    2    0    0  0.76985658949E+02 -0.56303021932E+02 -0.31982340448E+03  0.35638298502E+03  0.12500000000E+03 0.  0.
          1    1    1    2  502    0 -0.43314485421E+02  0.62483868408E+02 -0.11727028324E+04  0.11751648018E+04  0.00000000000E+00 0. -1.
         -1    1    1    2    0  501 -0.33671173529E+02 -0.61808464761E+01  0.13301415404E+03  0.13734888410E+03  0.00000000000E+00 0.  1.
<mgrwt>
<rscale>  0 0.51323244E+02</rscale>
<asrwt>0</asrwt>
<pdfrwt beam="2">  1        1 0.23295452E+00 0.76943779E+02</pdfrwt>
<pdfrwt beam="1">  1       -1 0.23798814E-01 0.34233767E+02</pdfrwt>
<totfact> 0.11299384E+02</totfact>
</mgrwt>
</event>
<event>
 5    1  0.7156190E-003  0.1329734E+03  0.7546771E-02  0.1248776E+00
          2   -1    0    0  502    0  0.00000000000E+00  0.00000000000E+00  0.17746889036E+04  0.17746889036E+04  0.00000000000E+00 0. -1.
         -2   -1    0    0    0  501 -0.00000000000E+00 -0.00000000000E+00 -0.17273375981E+03  0.17273375981E+03  0.00000000000E+00 0.  1.
         25    1    1    2    0    0  0.65398328071E+02 -0.20111712022E+03  0.38810361646E+03  0.45931955594E+03  0.12500000000E+03 0.  0.
          2    1    1    2  502    0 -0.79030054893E+02  0.99748657205E+02  0.13284312461E+04  0.13345130647E+04  0.00000000000E+00 0. -1.
         -2    1    1    2    0  501  0.13631726822E+02  0.10136846301E+03 -0.11457971880E+03  0.15359004275E+03  0.00000000000E+00 0.  1.
<mgrwt>
<rscale>  0 0.11662178E+03</rscale>
<asrwt>0</asrwt>
<pdfrwt beam="1">  1        2 0.27302905E+00 0.13297335E+03</pdfrwt>
<pdfrwt beam="2">  1       -2 0.26574426E-01 0.10228093E+03</pdfrwt>
<totfact> 0.13116689E+02</totfact>
</mgrwt>
</event>
<event>
 5    1  0.7156190E-003  0.1566821E+03  0.7546771E-02  0.1355944E+00
          1   -1    0    0  501    0  0.00000000000E+00  0.00000000000E+00  0.71542086711E+03  0.71542086711E+03  0.00000000000E+00 0. -1.
          1   -1    0    0  502    0 -0.00000000000E+00 -0.00000000000E+00 -0.22415167227E+04  0.22415167227E+04  0.00000000000E+00 0. -1.
         25    1    1    2    0    0 -0.13519296000E+03  0.25457970068E+02 -0.86250610552E+01  0.18607696352E+03  0.12500000000E+03 0.  0.
          1    1    1    2  501    0  0.14912230203E+03 -0.54695847614E+02  0.61650572521E+03  0.63663836353E+03  0.00000000000E+00 0. -1.
          1    1    1    2  502    0 -0.13929342028E+02  0.29237877547E+02 -0.21339765197E+04  0.21342222627E+04  0.00000000000E+00 0. -1.
<mgrwt>
<rscale>  0 0.71234616E+02</rscale>
<asrwt>0</asrwt>
<pdfrwt beam="1">  1        1 0.11006475E+00 0.15668206E+03</pdfrwt>
<pdfrwt beam="2">  1        1 0.34484872E+00 0.32386418E+02</pdfrwt>
<totfact> 0.10634602E+01</totfact>
</mgrwt>
</event>
<event>
 5    1  0.7156190E-003  0.6566179E+02  0.7546771E-02  0.1510218E+00
         -1   -1    0    0    0  501 -0.00000000000E+00  0.00000000000E+00  0.18354277841E+02  0.18354277841E+02  0.00000000000E+00 0.  1.
          2   -1    0    0  502    0  0.00000000000E+00 -0.00000000000E+00 -0.74243193881E+03  0.74243193881E+03  0.00000000000E+00 0. -1.
         25    1    1    2    0    0  0.12900319513E+02 -0.47072569232E+02 -0.47480391909E+03  0.49340247933E+03  0.12500000000E+03 0.  0.
          2    1    1    2  502    0  0.13481560554E+02 -0.19901304389E+02 -0.77349711231E+02  0.80998717390E+02  0.00000000000E+00 0. -1.
         -1    1    1    2    0  501 -0.26381880067E+02  0.66973873621E+02 -0.17192403065E+03  0.18638501994E+03  0.00000000000E+00 0.  1.
<mgrwt>
<rscale>  0 0.39728616E+02</rscale>
<asrwt>0</asrwt>
<pdfrwt beam="2">  1        2 0.11422032E+00 0.24037770E+02</pdfrwt>
<pdfrwt beam="1">  1       -1 0.28237346E-02 0.65661785E+02</pdfrwt>
<totfact> 0.16902667E+04</totfact>
</mgrwt>
</event>
<event>
 5    1  0.7156190E-003  0.5968492E+02  0.7546771E-02  0.1466279E+00
          1   -1    0    0  501    0  0.00000000000E+00  0.00000000000E+00  0.73250531801E+03  0.73250531801E+03  0.00000000000E+00 0. -1.
          1   -1    0    0  502    0 -0.00000000000E+00 -0.00000000000E+00 -0.12297396280E+03  0.12297396280E+03  0.00000000000E+00 0. -1.
         25    1    1    2    0    0 -0.78624588777E+02  0.18622279441E+02  0.12057736053E+03  0.19155290424E+03  0.12500000000E+03 0.  0.
          1    1    1    2  501    0  0.58054722956E+02  0.10854251034E+02  0.57116008803E+03  0.57420554837E+03  0.00000000000E+00 0. -1.
          1    1    1    2  502    0  0.20569865821E+02 -0.29476530475E+02 -0.82206093349E+02  0.89720828197E+02  0.00000000000E+00 0. -1.
<mgrwt>
<rscale>  0 0.46317670E+02</rscale>
<asrwt>0</asrwt>
<pdfrwt beam="1">  1        1 0.11269312E+00 0.59684923E+02</pdfrwt>
<pdfrwt beam="2">  1        1 0.18919072E-01 0.35944196E+02</pdfrwt>
<totfact> 0.85503626E+02</totfact>
</mgrwt>
</event>
<event>
 5    1  0.7156190E-003  0.5057983E+02  0.7546771E-02  0.1518809E+00
         -1   -1    0    0    0  501 -0.00000000000E+00  0.00000000000E+00  0.25391592209E+02  0.25391592209E+02  0.00000000000E+00 0.  1.
          2   -1    0    0  502    0  0.00000000000E+00 -0.00000000000E+00 -0.52601772469E+03  0.52601772469E+03  0.00000000000E+00 0. -1.
         25    1    1    2    0    0 -0.12798589344E+02 -0.26863707812E+02 -0.39351988831E+03  0.41396662327E+03  0.12500000000E+03 0.  0.
          2    1    1    2  502    0 -0.26923817898E+02 -0.11935155810E+02 -0.26868628466E+02  0.39865562959E+02  0.00000000000E+00 0. -1.
         -1    1    1    2    0  501  0.39722407242E+02  0.38798863622E+02 -0.80237615707E+02  0.97577130671E+02  0.00000000000E+00 0.  1.
<mgrwt>
<rscale>  0 0.38595441E+02</rscale>
<asrwt>0</asrwt>
<pdfrwt beam="2">  1        2 0.80925797E-01 0.29450635E+02</pdfrwt>
<pdfrwt beam="1">  1       -1 0.39063992E-02 0.50579828E+02</pdfrwt>
<totfact> 0.14793759E+04</totfact>
</mgrwt>
</event>
<event>
 5    1  0.7156190E-003  0.3803259E+02  0.7546771E-02  0.1577871E+00
          1   -1    0    0  502    0  0.00000000000E+00  0.00000000000E+00  0.24938249358E+04  0.24938249358E+04  0.00000000000E+00 0. -1.
         -2   -1    0    0    0  501 -0.00000000000E+00 -0.00000000000E+00 -0.47903071377E+02  0.47903071377E+02  0.00000000000E+00 0.  1.
         25    1    1    2    0    0 -0.12467615624E+02 -0.63210561420E+02  0.61101658463E+03  0.62699065639E+03  0.12500000000E+03 0.  0.
          1    1    1    2  502    0  0.50593349392E+01  0.26293517965E+02  0.18658242559E+04  0.18660163718E+04  0.00000000000E+00 0. -1.
         -2    1    1    2    0  501  0.74082806849E+01  0.36917043455E+02 -0.30918976034E+02  0.48720979045E+02  0.00000000000E+00 0.  1.
<mgrwt>
<rscale>  0 0.31911670E+02</rscale>
<asrwt>0</asrwt>
<pdfrwt beam="1">  1        1 0.38366527E+00 0.26775847E+02</pdfrwt>
<pdfrwt beam="2">  1       -2 0.73697052E-02 0.38032586E+02</pdfrwt>
<totfact> 0.18424010E+02</totfact>
</mgrwt>
</event>
<event>
 5    1  0.7156190E-003  0.2722890E+02  0.7546771E-02  0.1663546E+00
          1   -1    0    0  501    0  0.00000000000E+00  0.00000000000E+00  0.27398602356E+03  0.27398602356E+03  0.00000000000E+00 0. -1.
          1   -1    0    0  502    0 -0.00000000000E+00 -0.00000000000E+00 -0.45957962248E+02  0.45957962248E+02  0.00000000000E+00 0. -1.
         25    1    1    2    0    0  0.22586434102E+02  0.15418762907E+02  0.16768443812E+03  0.21092879377E+03  0.12500000000E+03 0.  0.
          1    1    1    2  501    0 -0.27371556928E+02  0.67007142032E+01  0.76291400797E+02  0.81329450601E+02  0.00000000000E+00 0. -1.
          1    1    1    2  502    0  0.47851228254E+01 -0.22119477110E+02 -0.15947777607E+02  0.27685741433E+02  0.00000000000E+00 0. -1.
<mgrwt>
<rscale>  0 0.24823804E+02</rscale>
<asrwt>0</asrwt>
<pdfrwt beam="1">  1        1 0.42151695E-01 0.27228904E+02</pdfrwt>
<pdfrwt beam="2">  1        1 0.70704559E-02 0.22631144E+02</pdfrwt>
<totfact> 0.95801013E+03</totfact>
</mgrwt>
</event>
<event>
 5    1  0.7156190E-003  0.7402905E+02  0.7546771E-02  0.1454015E+00
          2   -1    0    0  502    0  0.00000000000E+00  0.00000000000E+00  0.10442240962E+04  0.10442240962E+04  0.00000000000E+00 0. -1.
         -1   -1    0    0    0  501 -0.00000000000E+00 -0.00000000000E+00 -0.18073589321E+02  0.18073589321E+02  0.00000000000E+00 0.  1.
         25    1    1    2    0    0  0.11790639705E+02  0.77602907163E+02  0.40552391849E+03  0.43155055191E+03  0.12500000000E+03 0.  0.
          2    1    1    2  502    0  0.19321723915E+02 -0.71637117948E+02  0.32164793832E+03  0.33009483775E+03  0.00000000000E+00 0. -1.
         -1    1    1    2    0  501 -0.31112363620E+02 -0.59657892155E+01  0.29897865003E+03  0.30065229583E+03  0.00000000000E+00 0.  1.
<mgrwt>
<rscale>  0 0.48427046E+02</rscale>
<asrwt>0</asrwt>
<pdfrwt beam="1">  1        2 0.16064981E+00 0.74029049E+02</pdfrwt>
<pdfrwt beam="2">  1       -1 0.27805530E-02 0.31679170E+02</pdfrwt>
<totfact> 0.97384979E+03</totfact>
</mgrwt>
</event>
<event>
 5    1  0.7156190E-003  0.1207284E+03  0.7546771E-02  0.1254289E+00
         -1   -1    0    0    0  501 -0.00000000000E+00  0.00000000000E+00  0.11828403170E+03  0.11828403170E+03  0.00000000000E+00 0.  1.
          2   -1    0    0  502    0  0.00000000000E+00 -0.00000000000E+00 -0.12510362654E+04  0.12510362654E+04  0.00000000000E+00 0. -1.
         25    1    1    2    0    0  0.19674462754E+03 -0.16489757348E+02 -0.44504059841E+03  0.50265942227E+03  0.12500000000E+03 0.  0.
          2    1    1    2  502    0 -0.88907947544E+02  0.58874811554E+02 -0.73413539875E+03  0.74183936959E+03  0.00000000000E+00 0. -1.
         -1    1    1    2    0  501 -0.10783667999E+03 -0.42385054206E+02  0.46423763412E+02  0.12482150528E+03  0.00000000000E+00 0.  1.
<mgrwt>
<rscale>  0 0.11346271E+03</rscale>
<asrwt>0</asrwt>
<pdfrwt beam="2">  1        2 0.19246711E+00 0.10663427E+03</pdfrwt>
<pdfrwt beam="1">  1       -1 0.18197544E-01 0.12072842E+03</pdfrwt>
<totfact> 0.52025955E+02</totfact>
</mgrwt>
</event>
<event>
 5    1  0.7156190E-003  0.3630775E+02  0.7546771E-02  0.1602527E+00
         -1   -1    0    0    0  501 -0.00000000000E+00  0.00000000000E+00  0.11511568445E+04  0.11511568445E+04  0.00000000000E+00 0.  1.
          2   -1    0    0  502    0  0.00000000000E+00 -0.00000000000E+00 -0.58983305097E+03  0.58983305097E+03  0.00000000000E+00 0. -1.
         25    1    1    2    0    0  0.26126345747E+02  0.12908430944E+02 -0.25074696255E+03  0.28168821906E+03  0.12500000000E+03 0.  0.
          2    1    1    2  502    0  0.89289834592E+01 -0.22422809809E+02 -0.32287449849E+03  0.32377530931E+03  0.00000000000E+00 0. -1.
         -1    1    1    2    0  501 -0.35055329206E+02  0.95143788652E+01  0.11349452546E+04  0.11355263671E+04  0.00000000000E+00 0.  1.
<mgrwt>
<rscale>  0 0.29602292E+02</rscale>
<asrwt>0</asrwt>
<pdfrwt beam="2">  1        2 0.90743546E-01 0.24135226E+02</pdfrwt>
<pdfrwt beam="1">  1       -1 0.17710105E+00 0.36307747E+02</pdfrwt>
<totfact> 0.17515410E+01</totfact>
</mgrwt>
</event>
<event>
 5    1  0.7156190E-003  0.2283896E+03  0.7546771E-02  0.1255873E+00
         -1   -1    0    0    0  501 -0.00000000000E+00  0.00000000000E+00  0.59964395622E+02  0.59964395622E+02  0.00000000000E+00 0.  1.
          1   -1    0    0  502    0  0.00000000000E+00 -0.00000000000E+00 -0.15539860401E+04  0.15539860401E+04  0.00000000000E+00 0. -1.
         25    1    1    2    0    0 -0.68708195951E+02  0.21234899588E+03 -0.80482140210E+03  0.84449712938E+03  0.12500000000E+03 0.  0.
          1    1    1    2  502    0  0.18595455223E+02 -0.23617866813E+03 -0.67013537403E+03  0.71077955356E+03  0.00000000000E+00 0. -1.
         -1    1    1    2    0  501  0.50112740729E+02  0.23829672242E+02 -0.19064868366E+02  0.58673752806E+02  0.00000000000E+00 0.  1.
<mgrwt>
<rscale>  0 0.11257592E+03</rscale>
<asrwt>0</asrwt>
<pdfrwt beam="2">  1        1 0.23907476E+00 0.22838958E+03</pdfrwt>
<pdfrwt beam="1">  1       -1 0.92252922E-02 0.55490000E+02</pdfrwt>
<totfact> 0.41779139E+02</totfact>
</mgrwt>
</event>
<event>
 5    1  0.7156190E-003  0.8142123E+02  0.7546771E-02  0.1375538E+00
         -2   -1    0    0    0  501  0.00000000000E+00  0.00000000000E+00  0.14704372470E+04  0.14704372470E+04  0.00000000000E+00 0.  1.
         -1   -1    0    0    0  502 -0.00000000000E+00 -0.00000000000E+00 -0.21298773233E+03  0.21298773233E+03  0.00000000000E+00 0.  1.
         25    1    1    2    0    0  0.41304979083E+01 -0.53345902648E+02 -0.11582784688E+03  0.17861673061E+03  0.12500000000E+03 0.  0.
         -2    1    1    2    0  501 -0.56785046696E+02  0.58795259269E+02  0.14270281441E+04  0.14293672545E+04  0.00000000000E+00 0.  1.
         -1    1    1    2    0  502  0.52654548788E+02 -0.54493566206E+01 -0.53750782537E+02  0.75440994287E+02  0.00000000000E+00 0.  1.
<mgrwt>
<rscale>  0 0.65651324E+02</rscale>
<asrwt>0</asrwt>
<pdfrwt beam="1">  1       -2 0.22622111E+00 0.81421227E+02</pdfrwt>
<pdfrwt beam="2">  1       -1 0.32767344E-01 0.52935782E+02</pdfrwt>
<totfact> 0.70071860E+00</totfact>
</mgrwt>
</event>
<event>
 5    1  0.7156190E-003  0.5311549E+02  0.7546771E-02  0.1523181E+00
          1   -1    0    0  502    0 -0.00000000000E+00  0.00000000000E+00  0.42909391401E+03  0.42909391401E+03  0.00000000000E+00 0. -1.
          2   -1    0    0  501    0  0.00000000000E+00 -0.00000000000E+00 -0.64823756993E+03  0.64823756993E+03  0.00000000000E+00 0. -1.
         25    1    1    2    0    0  0.44960485209E+02  0.64660277446E+02 -0.98770120701E+02  0.17771587845E+03  0.12500000000E+03 0.  0.
          2    1    1    2  501    0 -0.25476825874E+02 -0.45626414285E+02 -0.50817697198E+03  0.51085680302E+03  0.00000000000E+00 0. -1.
          1    1    1    2  502    0 -0.19483659335E+02 -0.19033863162E+02  0.38780343677E+03  0.38875880247E+03  0.00000000000E+00 0. -1.
<mgrwt>
<rscale>  0 0.38036194E+02</rscale>
<asrwt>0</asrwt>
<pdfrwt beam="2">  1        2 0.99728856E-01 0.53115485E+02</pdfrwt>
<pdfrwt beam="1">  1        1 0.66014449E-01 0.27237858E+02</pdfrwt>
<totfact> 0.37569476E+02</totfact>
</mgrwt>
</event>
<event>
 5    1  0.7156190E-003  0.3734780E+02  0.7546771E-02  0.1603103E+00
          3   -1    0    0  502    0  0.00000000000E+00  0.00000000000E+00  0.25135589951E+02  0.25135589951E+02  0.00000000000E+00 0. -1.
         -1   -1    0    0    0  501 -0.00000000000E+00 -0.00000000000E+00 -0.40398786943E+03  0.40398786943E+03  0.00000000000E+00 0.  1.
         25    1    1    2    0    0  0.16887779666E+02 -0.18119423665E+01 -0.28509471436E+03  0.31175707914E+03  0.12500000000E+03 0.  0.
          3    1    1    2  502    0 -0.39344929333E+02  0.83239870807E+01 -0.32202847271E+02  0.51520244541E+02  0.00000000000E+00 0. -1.
         -1    1    1    2    0  501  0.22457149667E+02 -0.65120447142E+01 -0.61554717844E+02  0.65846135699E+02  0.00000000000E+00 0.  1.
<mgrwt>
<rscale>  0 0.29551244E+02</rscale>
<asrwt>0</asrwt>
<pdfrwt beam="1">  1        3 0.38670143E-02 0.37347796E+02</pdfrwt>
<pdfrwt beam="2">  1       -1 0.62151972E-01 0.23382265E+02</pdfrwt>
<totfact> 0.33381270E+03</totfact>
</mgrwt>
</event>
<event>
 5    1  0.7156190E-003  0.7712293E+02  0.7546771E-02  0.1359281E+00
          1   -1    0    0  502    0  0.00000000000E+00  0.00000000000E+00  0.17050473005E+04  0.17050473005E+04  0.00000000000E+00 0. -1.
         -2   -1    0    0    0  501 -0.00000000000E+00 -0.00000000000E+00 -0.63871474962E+02  0.63871474962E+02  0.00000000000E+00 0.  1.
         25    1    1    2    0    0 -0.20953591037E+02 -0.30916416946E+02  0.18652909618E+03  0.22762465054E+03  0.12500000000E+03 0.  0.
          1    1    1    2  502    0  0.79753828562E+02  0.57233067994E+01  0.14726656855E+04  0.14748347876E+04  0.00000000000E+00 0. -1.
         -2    1    1    2    0  501 -0.58800237526E+02  0.25193110146E+02 -0.18018956182E+02  0.66459337296E+02  0.00000000000E+00 0.  1.
<mgrwt>
<rscale>  0 0.70239261E+02</rscale>
<asrwt>0</asrwt>
<pdfrwt beam="1">  1        1 0.26231493E+00 0.77122931E+02</pdfrwt>
<pdfrwt beam="2">  1       -2 0.98263821E-02 0.63969999E+02</pdfrwt>
<totfact> 0.32790557E+02</totfact>
</mgrwt>
</event>
<event>
 5    1  0.7156190E-003  0.1638376E+03  0.7546771E-02  0.1253589E+00
          2   -1    0    0  501    0  0.00000000000E+00  0.00000000000E+00  0.45422930141E+03  0.45422930141E+03  0.00000000000E+00 0. -1.
          2   -1    0    0  502    0 -0.00000000000E+00 -0.00000000000E+00 -0.49006099017E+03  0.49006099017E+03  0.00000000000E+00 0. -1.
         25    1    1    2    0    0 -0.58737304449E+02 -0.22456816749E+03 -0.66829625354E+01  0.26372446753E+03  0.12500000000E+03 0.  0.
          2    1    1    2  501    0  0.26736101043E+02  0.15220419381E+03  0.30245823836E+03  0.33964970435E+03  0.00000000000E+00 0. -1.
          2    1    1    2  502    0  0.32001203406E+02  0.72363973680E+02 -0.33160696459E+03  0.34091611970E+03  0.00000000000E+00 0. -1.
<mgrwt>
<rscale>  0 0.11385738E+03</rscale>
<asrwt>0</asrwt>
<pdfrwt beam="1">  1        2 0.69881431E-01 0.16383761E+03</pdfrwt>
<pdfrwt beam="2">  1        2 0.75393998E-01 0.79124091E+02</pdfrwt>
<totfact> 0.70064535E+02</totfact>
</mgrwt>
</event>
<event>
 5    1  0.7156190E-003  0.1623350E+03  0.7546771E-02  0.1289198E+00
          1   -1    0    0  502    0 -0.00000000000E+00  0.00000000000E+00  0.30842685446E+03  0.30842685446E+03  0.00000000000E+00 0. -1.
          2   -1    0    0  501    0  0.00000000000E+00 -0.00000000000E+00 -0.64780244335E+03  0.64780244335E+03  0.00000000000E+00 0. -1.
         25    1    1    2    0    0  0.99774072260E+02  0.90128524960E+02  0.37835026139E+02  0.18744200626E+03  0.12500000000E+03 0.  0.
          2    1    1    2  501    0 -0.82474172552E+02 -0.14405574496E+03 -0.55651914491E+03  0.58074745410E+03  0.00000000000E+00 0. -1.
          1    1    1    2  502    0 -0.17299899708E+02  0.53927219998E+02  0.17930852987E+03  0.18803983746E+03  0.00000000000E+00 0. -1.
<mgrwt>
<rscale>  0 0.95883849E+02</rscale>
<asrwt>0</asrwt>
<pdfrwt beam="2">  1        2 0.99661913E-01 0.16233502E+03</pdfrwt>
<pdfrwt beam="1">  1        1 0.47450286E-01 0.56634191E+02</pdfrwt>
<totfact> 0.53996829E+02</totfact>
</mgrwt>
</event>
<event>
 5    1  0.7156190E-003  0.1103442E+03  0.7546771E-02  0.1369601E+00
          2   -1    0    0  502    0  0.00000000000E+00  0.00000000000E+00  0.82097348518E+03  0.82097348518E+03  0.00000000000E+00 0. -1.
          2   -1    0    0  501    0 -0.00000000000E+00 -0.00000000000E+00 -0.15976212206E+04  0.15976212206E+04  0.00000000000E+00 0. -1.
         25    1    1    2    0    0  0.13158281407E+03 -0.42912087250E+02  0.48889826693E+03  0.52326092879E+03  0.12500000000E+03 0.  0.
          2    1    1    2  501    0 -0.40397001410E+02  0.71237242761E+01 -0.15725477839E+04  0.15730827053E+04  0.00000000000E+00 0. -1.
          2    1    1    2  502    0 -0.91185812664E+02  0.35788362974E+02  0.30700178152E+03  0.32225107170E+03  0.00000000000E+00 0. -1.
<mgrwt>
<rscale>  0 0.67278176E+02</rscale>
<asrwt>0</asrwt>
<pdfrwt beam="1">  1        2 0.12630361E+00 0.11034421E+03</pdfrwt>
<pdfrwt beam="2">  1        2 0.24578788E+00 0.41020302E+02</pdfrwt>
<totfact> 0.79234465E+01</totfact>
</mgrwt>
</event>
<event>
 5    1  0.7156190E-003  0.1225188E+03  0.7546771E-02  0.1437480E+00
          2   -1    0    0  502    0  0.00000000000E+00  0.00000000000E+00  0.28204664996E+04  0.28204664996E+04  0.00000000000E+00 0. -1.
         -1   -1    0    0    0  501 -0.00000000000E+00 -0.00000000000E+00 -0.50532613296E+02  0.50532613296E+02  0.00000000000E+00 0.  1.
         25    1    1    2    0    0 -0.54126517479E+02 -0.10406923227E+03  0.12633983409E+04  0.12749746871E+04  0.12500000000E+03 0.  0.
          2    1    1    2  502    0  0.17134298390E+02 -0.13213025447E+02  0.14665495875E+04  0.14667091944E+04  0.00000000000E+00 0. -1.
         -1    1    1    2    0  501  0.36992219089E+02  0.11728225771E+03  0.39985957904E+02  0.12931523142E+03  0.00000000000E+00 0.  1.
<mgrwt>
<rscale>  0 0.51487506E+02</rscale>
<asrwt>0</asrwt>
<pdfrwt beam="1">  1        2 0.43391780E+00 0.21637195E+02</pdfrwt>
<pdfrwt beam="2">  1       -1 0.77742504E-02 0.12251880E+03</pdfrwt>
<totfact> 0.38605252E+02</totfact>
</mgrwt>
</event>
<event>
 5    1  0.7156190E-003  0.4600319E+03  0.7546771E-02  0.1258661E+00
          2   -1    0    0  502    0  0.00000000000E+00  0.00000000000E+00  0.34196409493E+04  0.34196409493E+04  0.00000000000E+00 0.  1.
          2   -1    0    0  501    0 -0.00000000000E+00 -0.00000000000E+00 -0.72141152250E+03  0.72141152250E+03  0.00000000000E+00 0.  1.
         25    1    1    2    0    0 -0.42967823594E+03 -0.10552804338E+03  0.29744118678E+04  0.30097359541E+04  0.12500000000E+03 0.  0.
          2    1    1    2  501    0  0.44194263522E+03  0.12935806430E+03 -0.62785746936E+03  0.77862173323E+03  0.00000000000E+00 0.  1.
          2    1    1    2  502    0 -0.12264399274E+02 -0.23830020923E+02  0.35167502844E+03  0.35269478450E+03  0.00000000000E+00 0.  1.
<mgrwt>
<rscale>  0 0.11103713E+03</rscale>
<asrwt>0</asrwt>
<pdfrwt beam="1">  1        2 0.52609860E+00 0.26800847E+02</pdfrwt>
<pdfrwt beam="2">  1        2 0.11098639E+00 0.46003188E+03</pdfrwt>
<totfact> 0.11058313E+01</totfact>
</mgrwt>
</event>
<event>
 5    1  0.7156190E-003  0.5712709E+02  0.7546771E-02  0.1547527E+00
          2   -1    0    0  501    0  0.00000000000E+00  0.00000000000E+00  0.16136232395E+04  0.16136232395E+04  0.00000000000E+00 0. -1.
          1   -1    0    0  502    0 -0.00000000000E+00 -0.00000000000E+00 -0.15099129990E+03  0.15099129990E+03  0.00000000000E+00 0. -1.
         25    1    1    2    0    0 -0.71406793999E+02 -0.12493197798E+02  0.28017029409E+01  0.14452632895E+03  0.12500000000E+03 0.  0.
          2    1    1    2  501    0  0.16131863767E+02  0.14352196604E+02  0.15303307033E+04  0.15304830231E+04  0.00000000000E+00 0. -1.
          1    1    1    2  502    0  0.55274930232E+02 -0.18589988061E+01 -0.70500466676E+02  0.89605187295E+02  0.00000000000E+00 0. -1.
<mgrwt>
<rscale>  0 0.35121202E+02</rscale>
<asrwt>0</asrwt>
<pdfrwt beam="1">  1        2 0.24824972E+00 0.21592188E+02</pdfrwt>
<pdfrwt beam="2">  1        1 0.23229432E-01 0.57127089E+02</pdfrwt>
<totfact> 0.41059947E+02</totfact>
</mgrwt>
</event>
<event>
 5    1  0.7156190E-003  0.1078732E+03  0.7546771E-02  0.1357245E+00
          2   -1    0    0  501    0  0.00000000000E+00  0.00000000000E+00  0.94516719567E+03  0.94516719567E+03  0.00000000000E+00 0. -1.
          1   -1    0    0  502    0 -0.00000000000E+00 -0.00000000000E+00 -0.39694469582E+03  0.39694469582E+03  0.00000000000E+00 0. -1.
         25    1    1    2    0    0 -0.38141888562E+02 -0.12602517082E+03 -0.60342104800E+02  0.19131993350E+03  0.12500000000E+03 0.  0.
          2    1    1    2  501    0  0.41513907853E+02  0.21006777123E+02  0.86885199560E+03  0.87009682191E+03  0.00000000000E+00 0. -1.
          1    1    1    2  502    0 -0.33720192912E+01  0.10501839370E+03 -0.26028739095E+03  0.28069513608E+03  0.00000000000E+00 0. -1.
<mgrwt>
<rscale>  0 0.70844416E+02</rscale>
<asrwt>0</asrwt>
<pdfrwt beam="1">  1        2 0.14541034E+00 0.46526221E+02</pdfrwt>
<pdfrwt beam="2">  1        1 0.61068415E-01 0.10787318E+03</pdfrwt>
<totfact> 0.26173758E+02</totfact>
</mgrwt>
</event>
<event>
 5    1  0.7156190E-003  0.1998881E+03  0.7546771E-02  0.1296924E+00
          2   -1    0    0  502    0  0.00000000000E+00  0.00000000000E+00  0.67098648859E+03  0.67098648859E+03  0.00000000000E+00 0. -1.
          2   -1    0    0  501    0 -0.00000000000E+00 -0.00000000000E+00 -0.29222741924E+03  0.29222741924E+03  0.00000000000E+00 0. -1.
         25    1    1    2    0    0  0.94908510459E+02  0.21440735754E+03 -0.13042900041E+03  0.29599808187E+03  0.12500000000E+03 0.  0.
          2    1    1    2  501    0 -0.33148333549E+02 -0.27072437989E+02 -0.54913075561E+02  0.69621654557E+02  0.00000000000E+00 0. -1.
          2    1    1    2  502    0 -0.61760176909E+02 -0.18733491955E+03  0.56410114532E+03  0.59759417140E+03  0.00000000000E+00 0. -1.
<mgrwt>
<rscale>  0 0.92492977E+02</rscale>
<asrwt>0</asrwt>
<pdfrwt beam="1">  1        2 0.10322869E+00 0.19988809E+03</pdfrwt>
<pdfrwt beam="2">  1        2 0.44958065E-01 0.42798702E+02</pdfrwt>
<totfact> 0.76564428E+02</totfact>
</mgrwt>
</event>
<event>
 5    1  0.7156190E-003  0.1516623E+03  0.7546771E-02  0.1360827E+00
          2   -1    0    0  502    0  0.00000000000E+00  0.00000000000E+00  0.23815277312E+04  0.23815277312E+04  0.00000000000E+00 0. -1.
         -1   -1    0    0    0  501 -0.00000000000E+00 -0.00000000000E+00 -0.17261500497E+02  0.17261500497E+02  0.00000000000E+00 0.  1.
         25    1    1    2    0    0  0.71790390355E+01  0.17285914894E+03  0.13050382117E+04  0.13223772374E+04  0.12500000000E+03 0.  0.
          2    1    1    2  502    0 -0.71042357282E+01 -0.31314306869E+02  0.44188194371E+03  0.44304707216E+03  0.00000000000E+00 0. -1.
         -1    1    1    2    0  501 -0.74803307346E-01 -0.14154484207E+03  0.61734607529E+03  0.63336492214E+03  0.00000000000E+00 0.  1.
<mgrwt>
<rscale>  0 0.69784562E+02</rscale>
<asrwt>0</asrwt>
<pdfrwt beam="1">  1        2 0.36638862E+00 0.32110060E+02</pdfrwt>
<pdfrwt beam="2">  1       -1 0.26556173E-02 0.15166228E+03</pdfrwt>
<totfact> 0.29806517E+03</totfact>
</mgrwt>
</event>
<event>
 5    1  0.7156190E-003  0.6198506E+02  0.7546771E-02  0.1444987E+00
          2   -1    0    0  501    0  0.00000000000E+00  0.00000000000E+00  0.35198724179E+04  0.35198724179E+04  0.00000000000E+00 0. -1.
          1   -1    0    0  502    0 -0.00000000000E+00 -0.00000000000E+00 -0.20146196919E+03  0.20146196919E+03  0.00000000000E+00 0. -1.
         25    1    1    2    0    0 -0.96059828841E+02  0.28028807742E+02  0.89895312917E+03  0.91310176499E+03  0.12500000000E+03 0.  0.
          2    1    1    2  501    0  0.34702990523E+02 -0.20759721365E+02  0.26087746614E+04  0.26090880586E+04  0.00000000000E+00 0. -1.
          1    1    1    2  502    0  0.61356838318E+02 -0.72690863766E+01 -0.18931734188E+03  0.19914456347E+03  0.00000000000E+00 0. -1.
<mgrwt>
<rscale>  0 0.50065717E+02</rscale>
<asrwt>0</asrwt>
<pdfrwt beam="1">  1        2 0.54151879E+00 0.40438392E+02</pdfrwt>
<pdfrwt beam="2">  1        1 0.30994152E-01 0.61985057E+02</pdfrwt>
<totfact> 0.27397449E+01</totfact>
</mgrwt>
</event>
<event>
 5    1  0.7156190E-003  0.7845540E+02  0.7546771E-02  0.1484652E+00
          1   -1    0    0  502    0  0.00000000000E+00  0.00000000000E+00  0.58474050646E+03  0.58474050646E+03  0.00000000000E+00 0. -1.
         -1   -1    0    0    0  501 -0.00000000000E+00 -0.00000000000E+00 -0.28061327929E+02  0.28061327929E+02  0.00000000000E+00 0.  1.
         25    1    1    2    0    0  0.61773921951E+02  0.22266217558E+02  0.34795138997E+03  0.37550895017E+03  0.12500000000E+03 0.  0.
          1    1    1    2  502    0 -0.85758901368E+02 -0.23013622871E+02  0.16799145877E+03  0.19001406849E+03  0.00000000000E+00 0. -1.
         -1    1    1    2    0  501  0.23984979417E+02  0.74740531291E+00  0.40736329791E+02  0.47278815734E+02  0.00000000000E+00 0.  1.
<mgrwt>
<rscale>  0 0.43389682E+02</rscale>
<asrwt>0</asrwt>
<pdfrwt beam="1">  1        1 0.89960069E-01 0.78455397E+02</pdfrwt>
<pdfrwt beam="2">  1       -1 0.43171278E-02 0.23996622E+02</pdfrwt>
<totfact> 0.63713315E+03</totfact>
</mgrwt>
</event>
<event>
 5    1  0.7156190E-003  0.1108101E+03  0.7546771E-02  0.1329585E+00
          3   -1    0    0  502    0 -0.00000000000E+00  0.00000000000E+00  0.41953939951E+03  0.41953939951E+03  0.00000000000E+00 0. -1.
          1   -1    0    0  501    0  0.00000000000E+00 -0.00000000000E+00 -0.19888109191E+03  0.19888109191E+03  0.00000000000E+00 0.  1.
         25    1    1    2    0    0 -0.11072340595E+03 -0.23254685933E+02  0.21044999937E+03  0.26965655059E+03  0.12500000000E+03 0.  0.
          1    1    1    2  501    0  0.83697815741E+02  0.73991493603E+02 -0.14512025066E+03  0.18313916194E+03  0.00000000000E+00 0.  1.
          3    1    1    2  502    0  0.27025590205E+02 -0.50736807670E+02  0.15532855887E+03  0.16562477888E+03  0.00000000000E+00 0. -1.
<mgrwt>
<rscale>  0 0.79812266E+02</rscale>
<asrwt>0</asrwt>
<pdfrwt beam="2">  1        1 0.30597091E-01 0.11081012E+03</pdfrwt>
<pdfrwt beam="1">  1        3 0.64544523E-01 0.57485704E+02</pdfrwt>
<totfact> 0.17735892E+02</totfact>
</mgrwt>
</event>
<event>
 5    1  0.7156190E-003  0.3962710E+02  0.7546771E-02  0.1582528E+00
         -3   -1    0    0    0  501 -0.00000000000E+00  0.00000000000E+00  0.18200501010E+03  0.18200501010E+03  0.00000000000E+00 0.  1.
          1   -1    0    0  502    0  0.00000000000E+00 -0.00000000000E+00 -0.24750776271E+03  0.24750776271E+03  0.00000000000E+00 0. -1.
         25    1    1    2    0    0  0.56763265239E+02 -0.27046289705E+02 -0.69023609141E+02  0.15602188528E+03  0.12500000000E+03 0.  0.
          1    1    1    2  502    0 -0.24445696848E+02  0.50906250659E+01 -0.13102706129E+03  0.13338514666E+03  0.00000000000E+00 0. -1.
         -3    1    1    2    0  501 -0.32317568392E+02  0.21955664639E+02  0.13454791782E+03  0.14010574087E+03  0.00000000000E+00 0.  1.
<mgrwt>
<rscale>  0 0.31456212E+02</rscale>
<asrwt>0</asrwt>
<pdfrwt beam="2">  1        1 0.38078117E-01 0.24970113E+02</pdfrwt>
<pdfrwt beam="1">  1       -3 0.28000771E-01 0.39627103E+02</pdfrwt>
<totfact> 0.62865510E+02</totfact>
</mgrwt>
</event>
<event>
 5    1  0.7156190E-003  0.8687429E+02  0.7546771E-02  0.1319297E+00
          2   -1    0    0  501    0  0.00000000000E+00  0.00000000000E+00  0.99988109456E+03  0.99988109456E+03  0.00000000000E+00 0. -1.
          1   -1    0    0  502    0 -0.00000000000E+00 -0.00000000000E+00 -0.19796266605E+03  0.19796266605E+03  0.00000000000E+00 0. -1.
         25    1    1    2    0    0 -0.24542600558E+02 -0.28009329418E+02 -0.18195784162E+02  0.13169262826E+03  0.12500000000E+03 0.  0.
          2    1    1    2  501    0  0.49907292384E+02 -0.71108394234E+02  0.91945250241E+03  0.92354753302E+03  0.00000000000E+00 0. -1.
          1    1    1    2  502    0 -0.25364691826E+02  0.99117723652E+02 -0.99338289742E+02  0.14260359933E+03  0.00000000000E+00 0. -1.
<mgrwt>
<rscale>  0 0.83539560E+02</rscale>
<asrwt>0</asrwt>
<pdfrwt beam="1">  1        2 0.15382786E+00 0.86874286E+02</pdfrwt>
<pdfrwt beam="2">  1        1 0.30455795E-01 0.80332839E+02</pdfrwt>
<totfact> 0.55246306E+02</totfact>
</mgrwt>
</event>
<event>
 5    1  0.7156190E-003  0.5583817E+02  0.7546771E-02  0.1427416E+00
          2   -1    0    0  501    0  0.00000000000E+00  0.00000000000E+00  0.20119356317E+03  0.20119356317E+03  0.00000000000E+00 0. -1.
          2   -1    0    0  502    0 -0.00000000000E+00 -0.00000000000E+00 -0.14569544403E+04  0.14569544403E+04  0.00000000000E+00 0. -1.
         25    1    1    2    0    0  0.41064362907E+02 -0.59992135869E+02 -0.75918471120E+03  0.77283359398E+03  0.12500000000E+03 0.  0.
          2    1    1    2  501    0 -0.54834040818E+02  0.10651835593E+02  0.18938099819E+03  0.19744719828E+03  0.00000000000E+00 0. -1.
          2    1    1    2  502    0  0.13769677911E+02  0.49340300276E+02 -0.68595716410E+03  0.68786721120E+03  0.00000000000E+00 0. -1.
<mgrwt>
<rscale>  0 0.53482221E+02</rscale>
<asrwt>0</asrwt>
<pdfrwt beam="1">  1        2 0.30952855E-01 0.55838175E+02</pdfrwt>
<pdfrwt beam="2">  1        2 0.22414685E+00 0.51225670E+02</pdfrwt>
<totfact> 0.41750579E+02</totfact>
</mgrwt>
</event>
<event>
 5    1  0.7156190E-003  0.3456367E+03  0.7546771E-02  0.1129889E+00
          2   -1    0    0  502    0  0.00000000000E+00  0.00000000000E+00  0.28988609053E+04  0.28988609053E+04  0.00000000000E+00 0. -1.
         -2   -1    0    0    0  501 -0.00000000000E+00 -0.00000000000E+00 -0.84213699226E+02  0.84213699226E+02  0.00000000000E+00 0.  1.
         25    1    1    2    0    0  0.12328464742E+03 -0.20630937339E+03  0.31808097765E+03  0.41780757555E+03  0.12500000000E+03 0.  0.
          2    1    1    2  502    0 -0.24077744236E+03  0.29472836297E+03  0.22165958248E+04  0.22490299320E+04  0.00000000000E+00 0. -1.
         -2    1    1    2    0  501  0.11749279495E+03 -0.88418989577E+02  0.27997040367E+03  0.31623709699E+03  0.00000000000E+00 0.  1.
<mgrwt>
<rscale>  0 0.22544276E+03</rscale>
<asrwt>0</asrwt>
<pdfrwt beam="1">  1        2 0.44597852E+00 0.34563672E+03</pdfrwt>
<pdfrwt beam="2">  1       -2 0.12955956E-01 0.14704582E+03</pdfrwt>
<totfact> 0.98417994E+01</totfact>
</mgrwt>
</event>
<event>
 5    1  0.7156190E-003  0.8055812E+02  0.7546771E-02  0.1467091E+00
         -1   -1    0    0    0  501 -0.00000000000E+00  0.00000000000E+00  0.23275991929E+03  0.23275991929E+03  0.00000000000E+00 0.  1.
          2   -1    0    0  502    0  0.00000000000E+00 -0.00000000000E+00 -0.84816879908E+02  0.84816879908E+02  0.00000000000E+00 0. -1.
         25    1    1    2    0    0 -0.49241963569E+02 -0.64388715436E+02  0.27256959811E+02  0.15145500820E+03  0.12500000000E+03 0.  0.
          2    1    1    2  502    0  0.26428864153E+02  0.77824806707E+02  0.66167673980E+02  0.10551467424E+03  0.00000000000E+00 0. -1.
         -1    1    1    2    0  501  0.22813099416E+02 -0.13436091271E+02  0.54518405591E+02  0.60607116759E+02  0.00000000000E+00 0.  1.
<mgrwt>
<rscale>  0 0.46182657E+02</rscale>
<asrwt>0</asrwt>
<pdfrwt beam="2">  1        2 0.13048751E-01 0.80558124E+02</pdfrwt>
<pdfrwt beam="1">  1       -1 0.35809218E-01 0.26475764E+02</pdfrwt>
<totfact> 0.36030044E+03</totfact>
</mgrwt>
</event>
<event>
 5    1  0.7156190E-003  0.5251615E+02  0.7546771E-02  0.1457000E+00
          1   -1    0    0  502    0 -0.00000000000E+00  0.00000000000E+00  0.17118045714E+03  0.17118045714E+03  0.00000000000E+00 0. -1.
          2   -1    0    0  501    0  0.00000000000E+00 -0.00000000000E+00 -0.44183048025E+03  0.44183048025E+03  0.00000000000E+00 0. -1.
         25    1    1    2    0    0 -0.15032370391E+02  0.65462103866E+02 -0.24498590423E+03  0.28311544019E+03  0.12500000000E+03 0.  0.
          2    1    1    2  501    0  0.41948593046E+02 -0.31044878903E+02 -0.17065929836E+03  0.17846026191E+03  0.00000000000E+00 0. -1.
          1    1    1    2  502    0 -0.26916222654E+02 -0.34417224963E+02  0.14499517948E+03  0.15143523529E+03  0.00000000000E+00 0. -1.
<mgrwt>
<rscale>  0 0.47901549E+02</rscale>
<asrwt>0</asrwt>
<pdfrwt beam="2">  1        2 0.67973918E-01 0.52516154E+02</pdfrwt>
<pdfrwt beam="1">  1        1 0.26335456E-01 0.43692430E+02</pdfrwt>
<totfact> 0.16868642E+03</totfact>
</mgrwt>
</event>
<event>
 5    1  0.7156190E-003  0.7915301E+02  0.7546771E-02  0.1483247E+00
          1   -1    0    0  502    0  0.00000000000E+00  0.00000000000E+00  0.22430735190E+04  0.22430735190E+04  0.00000000000E+00 0. -1.
         -1   -1    0    0    0  501 -0.00000000000E+00 -0.00000000000E+00 -0.44741416500E+02  0.44741416500E+02  0.00000000000E+00 0.  1.
         25    1    1    2    0    0 -0.78870746023E+02 -0.12100776366E+02  0.11099108896E+04  0.11197741764E+04  0.12500000000E+03 0.  0.
          1    1    1    2  502    0  0.71681145705E+02  0.35020622484E+02  0.11230588746E+04  0.11258889228E+04  0.00000000000E+00 0. -1.
         -1    1    1    2    0  501  0.71896003181E+01 -0.22919846119E+02 -0.34637661661E+02  0.42151836308E+02  0.00000000000E+00 0.  1.
<mgrwt>
<rscale>  0 0.43604318E+02</rscale>
<asrwt>0</asrwt>
<pdfrwt beam="1">  1        1 0.34508815E+00 0.79153012E+02</pdfrwt>
<pdfrwt beam="2">  1       -1 0.68832966E-02 0.24021026E+02</pdfrwt>
<totfact> 0.24082807E+02</totfact>
</mgrwt>
</event>
<event>
 5    1  0.7156190E-003  0.2356555E+03  0.7546771E-02  0.1236119E+00
          2   -1    0    0  502    0  0.00000000000E+00  0.00000000000E+00  0.37365970017E+03  0.37365970017E+03  0.00000000000E+00 0. -1.
          2   -1    0    0  501    0 -0.00000000000E+00 -0.00000000000E+00 -0.12900123781E+04  0.12900123781E+04  0.00000000000E+00 0. -1.
         25    1    1    2    0    0 -0.11831623578E+03  0.17342581366E+03 -0.68078661094E+03  0.72330536713E+03  0.12500000000E+03 0.  0.
          2    1    1    2  501    0 -0.62622511290E+02 -0.19526518834E+02 -0.54574982629E+03  0.54967784815E+03  0.00000000000E+00 0. -1.
          2    1    1    2  502    0  0.18093874707E+03 -0.15389929483E+03  0.31018375929E+03  0.39068886299E+03  0.00000000000E+00 0. -1.
<mgrwt>
<rscale>  0 0.12433065E+03</rscale>
<asrwt>0</asrwt>
<pdfrwt beam="1">  1        2 0.57486107E-01 0.23565551E+03</pdfrwt>
<pdfrwt beam="2">  1        2 0.19846345E+00 0.65596218E+02</pdfrwt>
<totfact> 0.26213999E+02</totfact>
</mgrwt>
</event>
<event>
 5    1  0.7156190E-003  0.1104312E+03  0.7546771E-02  0.1342539E+00
         -3   -1    0    0    0  501 -0.00000000000E+00  0.00000000000E+00  0.11373244409E+03  0.11373244409E+03  0.00000000000E+00 0. -1.
          2   -1    0    0  502    0  0.00000000000E+00 -0.00000000000E+00 -0.15094238627E+04  0.15094238627E+04  0.00000000000E+00 0. -1.
         25    1    1    2    0    0  0.37762370582E+02 -0.48190537495E+02 -0.69587104135E+03  0.70965472642E+03  0.12500000000E+03 0.  0.
          2    1    1    2  502    0  0.26436647401E+02 -0.44225623744E+02 -0.77593885448E+03  0.77764767602E+03  0.00000000000E+00 0. -1.
         -3    1    1    2    0  501 -0.64199017983E+02  0.92416161238E+02  0.76118477187E+02  0.13585390439E+03  0.00000000000E+00 0. -1.
<mgrwt>
<rscale>  0 0.75431694E+02</rscale>
<asrwt>0</asrwt>
<pdfrwt beam="2">  1        2 0.23221905E+00 0.51524772E+02</pdfrwt>
<pdfrwt beam="1">  1       -3 0.17497300E-01 0.11043116E+03</pdfrwt>
<totfact> 0.25812667E+02</totfact>
</mgrwt>
</event>
<event>
 5    1  0.7156190E-003  0.1046813E+03  0.7546771E-02  0.1277594E+00
          2   -1    0    0  502    0  0.00000000000E+00  0.00000000000E+00  0.75341879152E+03  0.75341879152E+03  0.00000000000E+00 0.  1.
         -1   -1    0    0    0  501 -0.00000000000E+00 -0.00000000000E+00 -0.11538900773E+03  0.11538900773E+03  0.00000000000E+00 0.  1.
         25    1    1    2    0    0 -0.16424066648E+03  0.59278057046E+02  0.43065601147E+03  0.48122602256E+03  0.12500000000E+03 0.  0.
          2    1    1    2  502    0  0.96704836250E+02  0.16005545248E+02  0.25690335619E+03  0.27496788404E+03  0.00000000000E+00 0.  1.
         -1    1    1    2    0  501  0.67535830229E+02 -0.75283602295E+02 -0.49529583876E+02  0.11261389265E+03  0.00000000000E+00 0.  1.
<mgrwt>
<rscale>  0 0.10129612E+03</rscale>
<asrwt>0</asrwt>
<pdfrwt beam="1">  1        2 0.11591058E+00 0.98020420E+02</pdfrwt>
<pdfrwt beam="2">  1       -1 0.17752156E-01 0.10468129E+03</pdfrwt>
<totfact> 0.10716252E+03</totfact>
</mgrwt>
</event>
<event>
 5    1  0.7156190E-003  0.8831071E+02  0.7546771E-02  0.1456368E+00
         -3   -1    0    0    0  501  0.00000000000E+00  0.00000000000E+00  0.29919329808E+04  0.29919329808E+04  0.00000000000E+00 0.  1.
         -3   -1    0    0    0  502 -0.00000000000E+00 -0.00000000000E+00 -0.16464289332E+02  0.16464289332E+02  0.00000000000E+00 0.  1.
         25    1    1    2    0    0 -0.83170035633E+02 -0.64829260572E+02  0.19059330643E+04  0.19129364688E+04  0.12500000000E+03 0.  0.
         -3    1    1    2    0  502  0.24461198153E+02  0.91108881042E+01  0.34763856952E+01  0.26333320236E+02  0.00000000000E+00 0.  1.
         -3    1    1    2    0  501  0.58708837479E+02  0.55718372468E+02  0.10660592414E+04  0.10691274811E+04  0.00000000000E+00 0.  1.
<mgrwt>
<rscale>  0 0.48012090E+02</rscale>
<asrwt>0</asrwt>
<pdfrwt beam="1">  1       -3 0.46029695E+00 0.88310711E+02</pdfrwt>
<pdfrwt beam="2">  1       -3 0.25329700E-02 0.26102845E+02</pdfrwt>
<totfact> 0.78286723E+00</totfact>
</mgrwt>
</event>
<event>
 5    1  0.7156190E-003  0.9847920E+02  0.7546771E-02  0.1438636E+00
         -3   -1    0    0    0  501 -0.00000000000E+00  0.00000000000E+00  0.21248183185E+03  0.21248183185E+03  0.00000000000E+00 0.  1.
          2   -1    0    0  502    0  0.00000000000E+00 -0.00000000000E+00 -0.10008131837E+04  0.10008131837E+04  0.00000000000E+00 0.  1.
         25    1    1    2    0    0  0.10514435863E+03  0.50783265583E+02 -0.13038660961E+03  0.21508125018E+03  0.12500000000E+03 0.  0.
          2    1    1    2  502    0 -0.79124639447E+02 -0.56712348954E+02 -0.82415001394E+03  0.82987965668E+03  0.00000000000E+00 0.  1.
         -3    1    1    2    0  501 -0.26019719182E+02  0.59290833706E+01  0.16620527168E+03  0.16833410870E+03  0.00000000000E+00 0.  1.
<mgrwt>
<rscale>  0 0.51264849E+02</rscale>
<asrwt>0</asrwt>
<pdfrwt beam="2">  1        2 0.15397126E+00 0.98479204E+02</pdfrwt>
<pdfrwt beam="1">  1       -3 0.32689513E-01 0.26686697E+02</pdfrwt>
<totfact> 0.13182150E+02</totfact>
</mgrwt>
</event>
<event>
 5    1  0.7156190E-003  0.6270253E+02  0.7546771E-02  0.1536708E+00
          1   -1    0    0  502    0 -0.00000000000E+00  0.00000000000E+00  0.16659697745E+04  0.16659697745E+04  0.00000000000E+00 0. -1.
          2   -1    0    0  501    0  0.00000000000E+00 -0.00000000000E+00 -0.53580903465E+02  0.53580903465E+02  0.00000000000E+00 0. -1.
         25    1    1    2    0    0 -0.68610534630E+02 -0.11305712239E+02  0.33742321675E+03  0.36648963395E+03  0.12500000000E+03 0.  0.
          2    1    1    2  501    0  0.12777516249E+02 -0.16795474751E+02 -0.35395915634E+02  0.41209510276E+02  0.00000000000E+00 0. -1.
          1    1    1    2  502    0  0.55833018381E+02  0.28101186991E+02  0.13103615699E+04  0.13118515337E+04  0.00000000000E+00 0. -1.
<mgrwt>
<rscale>  0 0.36376306E+02</rscale>
<asrwt>0</asrwt>
<pdfrwt beam="2">  1        2 0.82432172E-02 0.21103386E+02</pdfrwt>
<pdfrwt beam="1">  1        1 0.25630300E+00 0.62702526E+02</pdfrwt>
<totfact> 0.58914981E+02</totfact>
</mgrwt>
</event>
<event>
 5    1  0.7156190E-003  0.1305733E+03  0.7546771E-02  0.1258528E+00
         -1   -1    0    0    0  501 -0.00000000000E+00  0.00000000000E+00  0.23497889325E+03  0.23497889325E+03  0.00000000000E+00 0.  1.
          1   -1    0    0  502    0  0.00000000000E+00 -0.00000000000E+00 -0.23745877970E+04  0.23745877970E+04  0.00000000000E+00 0. -1.
         25    1    1    2    0    0  0.47192657516E+02  0.80337113282E+02 -0.13526090977E+04  0.13615643833E+04  0.12500000000E+03 0.  0.
          1    1    1    2  502    0 -0.13149350412E+03  0.19376220600E+02 -0.99422521720E+03  0.10030701681E+04  0.00000000000E+00 0. -1.
         -1    1    1    2    0  501  0.84300846609E+02 -0.99713333882E+02  0.20722541108E+03  0.24493213895E+03  0.00000000000E+00 0.  1.
<mgrwt>
<rscale>  0 0.11110983E+03</rscale>
<asrwt>0</asrwt>
<pdfrwt beam="2">  1        1 0.36532119E+00 0.94547626E+02</pdfrwt>
<pdfrwt beam="1">  1       -1 0.36150600E-01 0.13057328E+03</pdfrwt>
<totfact> 0.16492365E+01</totfact>
</mgrwt>
</event>
<event>
 5    1  0.7156190E-003  0.5622400E+02  0.7546771E-02  0.1444231E+00
          1   -1    0    0  502    0 -0.00000000000E+00  0.00000000000E+00  0.12642181951E+04  0.12642181951E+04  0.00000000000E+00 0. -1.
          2   -1    0    0  501    0  0.00000000000E+00 -0.00000000000E+00 -0.43495489009E+02  0.43495489009E+02  0.00000000000E+00 0. -1.
         25    1    1    2    0    0  0.93796863126E+02 -0.13968994694E+02  0.57206195189E+03  0.59318872304E+03  0.12500000000E+03 0.  0.
          2    1    1    2  501    0 -0.54328650493E+02 -0.72970704637E+01 -0.88164413550E+01  0.55520979278E+02  0.00000000000E+00 0. -1.
          1    1    1    2  502    0 -0.39468212632E+02  0.21266065158E+02  0.65747719554E+03  0.65900398177E+03  0.00000000000E+00 0. -1.
<mgrwt>
<rscale>  0 0.50206402E+02</rscale>
<asrwt>0</asrwt>
<pdfrwt beam="2">  1        2 0.66916147E-02 0.56224003E+02</pdfrwt>
<pdfrwt beam="1">  1        1 0.19449508E+00 0.44832860E+02</pdfrwt>
<totfact> 0.15430728E+03</totfact>
</mgrwt>
</event>
<event>
 5    1  0.7156190E-003  0.1744051E+03  0.7546771E-02  0.1259515E+00
          2   -1    0    0  501    0  0.00000000000E+00  0.00000000000E+00  0.46896782220E+03  0.46896782220E+03  0.00000000000E+00 0. -1.
          1   -1    0    0  502    0 -0.00000000000E+00 -0.00000000000E+00 -0.25868050977E+04  0.25868050977E+04  0.00000000000E+00 0. -1.
         25    1    1    2    0    0 -0.10696094240E+03 -0.21238686183E+03 -0.44292471011E+02  0.27227861698E+03  0.12500000000E+03 0.  0.
          2    1    1    2  501    0  0.49746731245E+02  0.49391247732E+02  0.34840715984E+03  0.35538961950E+03  0.00000000000E+00 0. -1.
          1    1    1    2  502    0  0.57214211152E+02  0.16299561410E+03 -0.24219519643E+04  0.24281046834E+04  0.00000000000E+00 0. -1.
<mgrwt>
<rscale>  0 0.11057157E+03</rscale>
<asrwt>0</asrwt>
<pdfrwt beam="1">  1        2 0.72148895E-01 0.70101588E+02</pdfrwt>
<pdfrwt beam="2">  1        1 0.39797002E+00 0.17440505E+03</pdfrwt>
<totfact> 0.13762430E+01</totfact>
</mgrwt>
</event>
<event>
 5    1  0.7156190E-003  0.1306232E+03  0.7546771E-02  0.1318256E+00
          2   -1    0    0  501    0  0.00000000000E+00  0.00000000000E+00  0.26577674924E+04  0.26577674924E+04  0.00000000000E+00 0. -1.
          1   -1    0    0  502    0 -0.00000000000E+00 -0.00000000000E+00 -0.82327203309E+03  0.82327203309E+03  0.00000000000E+00 0. -1.
         25    1    1    2    0    0  0.94377267726E+02 -0.14544549759E+03  0.83506299556E+02  0.22947715246E+03  0.12500000000E+03 0.  0.
          2    1    1    2  501    0 -0.46197915886E+02  0.12121887421E+03  0.24986219443E+04  0.25019871869E+04  0.00000000000E+00 0. -1.
          1    1    1    2  502    0 -0.48179351840E+02  0.24226623381E+02 -0.74763278451E+03  0.74957518616E+03  0.00000000000E+00 0. -1.
<mgrwt>
<rscale>  0 0.83929646E+02</rscale>
<asrwt>0</asrwt>
<pdfrwt beam="1">  1        2 0.40888730E+00 0.13062316E+03</pdfrwt>
<pdfrwt beam="2">  1        1 0.12665724E+00 0.53927537E+02</pdfrwt>
<totfact> 0.11916197E+01</totfact>
</mgrwt>
</event>
<event>
 5    1  0.7156190E-003  0.2038206E+03  0.7546771E-02  0.1210795E+00
         -2   -1    0    0    0  501  0.00000000000E+00  0.00000000000E+00  0.47305683571E+03  0.47305683571E+03  0.00000000000E+00 0.  1.
         -3   -1    0    0    0  502 -0.00000000000E+00 -0.00000000000E+00 -0.64125848867E+03  0.64125848867E+03  0.00000000000E+00 0.  1.
         25    1    1    2    0    0  0.15264078330E+02  0.13470032047E+03 -0.73986771762E+02  0.19868621195E+03  0.12500000000E+03 0.  0.
         -2    1    1    2    0  501  0.23043572889E+02  0.96065429475E+02  0.37690168650E+03  0.38963374377E+03  0.00000000000E+00 0.  1.
         -3    1    1    2    0  502 -0.38307651218E+02 -0.23076574994E+03 -0.47111656770E+03  0.52599536866E+03  0.00000000000E+00 0.  1.
<mgrwt>
<rscale>  0 0.14189980E+03</rscale>
<asrwt>0</asrwt>
<pdfrwt beam="1">  1       -2 0.72777975E-01 0.98790551E+02</pdfrwt>
<pdfrwt beam="2">  1       -3 0.98655152E-01 0.20382063E+03</pdfrwt>
<totfact> 0.66768730E+00</totfact>
</mgrwt>
</event>
<event>
 5    1  0.7156190E-003  0.6961991E+02  0.7546771E-02  0.1365386E+00
          2   -1    0    0  501    0  0.00000000000E+00  0.00000000000E+00  0.29272606329E+04  0.29272606329E+04  0.00000000000E+00 0.  1.
          3   -1    0    0  502    0 -0.00000000000E+00 -0.00000000000E+00 -0.18376828311E+02  0.18376828311E+02  0.00000000000E+00 0. -1.
         25    1    1    2    0    0 -0.60418687941E+02  0.13189013857E+02  0.33486684590E+03  0.36274670560E+03  0.12500000000E+03 0.  0.
          2    1    1    2  501    0  0.46758782970E+01  0.67169990178E+02  0.19581081911E+04  0.19592655153E+04  0.00000000000E+00 0.  1.
          3    1    1    2  502    0  0.55742809644E+02 -0.80359004035E+02  0.61590876767E+03  0.62362524039E+03  0.00000000000E+00 0. -1.
<mgrwt>
<rscale>  0 0.68466674E+02</rscale>
<asrwt>0</asrwt>
<pdfrwt beam="1">  1        2 0.45034742E+00 0.67332544E+02</pdfrwt>
<pdfrwt beam="2">  1        3 0.28272067E-02 0.69619907E+02</pdfrwt>
<totfact> 0.83322303E+02</totfact>
</mgrwt>
</event>
<event>
 5    1  0.7156190E-003  0.7789248E+02  0.7546771E-02  0.1457779E+00
          3   -1    0    0  502    0 -0.00000000000E+00  0.00000000000E+00  0.23728241409E+03  0.23728241409E+03  0.00000000000E+00 0. -1.
          1   -1    0    0  501    0  0.00000000000E+00 -0.00000000000E+00 -0.24126309971E+04  0.24126309971E+04  0.00000000000E+00 0. -1.
         25    1    1    2    0    0  0.70595703167E+02 -0.79393074834E+02 -0.74683607736E+03  0.76464118388E+03  0.12500000000E+03 0.  0.
          1    1    1    2  501    0 -0.23184150858E+02  0.17901569210E+02 -0.16501588192E+04  0.16504187649E+04  0.00000000000E+00 0. -1.
          3    1    1    2  502    0 -0.47411552308E+02  0.61491505624E+02  0.22164631347E+03  0.23485346246E+03  0.00000000000E+00 0. -1.
<mgrwt>
<rscale>  0 0.47765675E+02</rscale>
<asrwt>0</asrwt>
<pdfrwt beam="2">  1        1 0.37117399E+00 0.29291143E+02</pdfrwt>
<pdfrwt beam="1">  1        3 0.36504988E-01 0.77892481E+02</pdfrwt>
<totfact> 0.96000601E+00</totfact>
</mgrwt>
</event>
<event>
 5    1  0.7156190E-003  0.3939484E+02  0.7546771E-02  0.1573552E+00
         -2   -1    0    0    0  501 -0.00000000000E+00  0.00000000000E+00  0.21093221775E+02  0.21093221775E+02  0.00000000000E+00 0.  1.
          2   -1    0    0  502    0  0.00000000000E+00 -0.00000000000E+00 -0.18970311639E+04  0.18970311639E+04  0.00000000000E+00 0. -1.
         25    1    1    2    0    0  0.13008911454E+02  0.81834011572E+01 -0.41999343386E+03  0.43846970741E+03  0.12500000000E+03 0.  0.
          2    1    1    2  502    0 -0.23427088149E+02 -0.32606688885E+02 -0.14522980802E+04  0.14528529651E+04  0.00000000000E+00 0. -1.
         -2    1    1    2    0  501  0.10418176695E+02  0.24423287727E+02 -0.36464280945E+01  0.26801713134E+02  0.00000000000E+00 0.  1.
<mgrwt>
<rscale>  0 0.32342410E+02</rscale>
<asrwt>0</asrwt>
<pdfrwt beam="2">  1        2 0.29185090E+00 0.39394835E+02</pdfrwt>
<pdfrwt beam="1">  1       -2 0.32451116E-02 0.26552503E+02</pdfrwt>
<totfact> 0.29294148E+03</totfact>
</mgrwt>
</event>
<event>
 5    1  0.7156190E-003  0.2023385E+03  0.7546771E-02  0.1298967E+00
         -3   -1    0    0    0  501 -0.00000000000E+00  0.00000000000E+00  0.92847626676E+02  0.92847626676E+02  0.00000000000E+00 0.  1.
          2   -1    0    0  502    0  0.00000000000E+00 -0.00000000000E+00 -0.19069022616E+04  0.19069022616E+04  0.00000000000E+00 0. -1.
         25    1    1    2    0    0 -0.19107230424E+03  0.87896687782E+02 -0.78090769753E+03  0.81833751303E+03  0.12500000000E+03 0.  0.
          2    1    1    2  502    0 -0.50001949879E+01 -0.41186863466E+02 -0.96900536885E+03  0.96989317171E+03  0.00000000000E+00 0. -1.
         -3    1    1    2    0  501  0.19607249923E+03 -0.46709824317E+02 -0.64141568516E+02  0.21151920351E+03  0.00000000000E+00 0.  1.
<mgrwt>
<rscale>  0 0.91623557E+02</rscale>
<asrwt>0</asrwt>
<pdfrwt beam="2">  1        2 0.29336958E+00 0.41489272E+02</pdfrwt>
<pdfrwt beam="1">  1       -3 0.14284250E-01 0.20233848E+03</pdfrwt>
<totfact> 0.25276789E+02</totfact>
</mgrwt>
</event>
<event>
 5    1  0.7156190E-003  0.1471692E+03  0.7546771E-02  0.1233084E+00
         -1   -1    0    0    0  501  0.00000000000E+00  0.00000000000E+00  0.85422674823E+03  0.85422674823E+03  0.00000000000E+00 0.  1.
         -1   -1    0    0    0  502 -0.00000000000E+00 -0.00000000000E+00 -0.33218838462E+03  0.33218838462E+03  0.00000000000E+00 0.  1.
         25    1    1    2    0    0 -0.77903485909E+02  0.38337478215E+01  0.89633921314E+01  0.14761095196E+03  0.12500000000E+03 0.  0.
         -1    1    1    2    0  501 -0.86550561612E+02 -0.65189254175E+02  0.74225912011E+03  0.75012614936E+03  0.00000000000E+00 0.  1.
         -1    1    1    2    0  502  0.16445404752E+03  0.61355506353E+02 -0.22918414863E+03  0.28867803153E+03  0.00000000000E+00 0.  1.
<mgrwt>
<rscale>  0 0.12627906E+03</rscale>
<asrwt>0</asrwt>
<pdfrwt beam="1">  1       -1 0.13141950E+00 0.10835423E+03</pdfrwt>
<pdfrwt beam="2">  1       -1 0.51105906E-01 0.14716917E+03</pdfrwt>
<totfact> 0.18909750E+01</totfact>
</mgrwt>
</event>
<event>
 5    1  0.7156190E-003  0.3365498E+02  0.7546771E-02  0.1574597E+00
          1   -1    0    0  502    0  0.00000000000E+00  0.00000000000E+00  0.37089362522E+02  0.37089362522E+02  0.00000000000E+00 0. -1.
          1   -1    0    0  501    0 -0.00000000000E+00 -0.00000000000E+00 -0.33625826120E+03  0.33625826120E+03  0.00000000000E+00 0. -1.
         25    1    1    2    0    0 -0.40745468583E-01 -0.14049511700E+02 -0.10691630737E+03  0.16508630234E+03  0.12500000000E+03 0.  0.
          1    1    1    2  501    0  0.16928548457E+02  0.43160678061E+02 -0.11522768890E+03  0.12420483152E+03  0.00000000000E+00 0. -1.
          1    1    1    2  502    0 -0.16887802988E+02 -0.29111166360E+02 -0.77024902408E+02  0.84056489860E+02  0.00000000000E+00 0. -1.
<mgrwt>
<rscale>  0 0.32237401E+02</rscale>
<asrwt>0</asrwt>
<pdfrwt beam="1">  1        1 0.57060562E-02 0.30879529E+02</pdfrwt>
<pdfrwt beam="2">  1        1 0.51732036E-01 0.33654983E+02</pdfrwt>
<totfact> 0.10307065E+04</totfact>
</mgrwt>
</event>
<event>
 5    1  0.7156190E-003  0.4278305E+02  0.7546771E-02  0.1557030E+00
         -1   -1    0    0    0  501 -0.00000000000E+00  0.00000000000E+00  0.71318931501E+01  0.71318931501E+01  0.00000000000E+00 0.  1.
          2   -1    0    0  502    0  0.00000000000E+00 -0.00000000000E+00 -0.27411962935E+04  0.27411962935E+04  0.00000000000E+00 0. -1.
         25    1    1    2    0    0  0.30759119521E+02 -0.21846468457E+02 -0.68132019701E+03  0.69371867675E+03  0.12500000000E+03 0.  0.
          2    1    1    2  502    0  0.25394061037E+02  0.95467583538E+01 -0.43564662352E+03  0.43649052627E+03  0.00000000000E+00 0. -1.
         -1    1    1    2    0  501 -0.56153180558E+02  0.12299710103E+02 -0.16170975798E+04  0.16181189837E+04  0.00000000000E+00 0.  1.
<mgrwt>
<rscale>  0 0.34068668E+02</rscale>
<asrwt>0</asrwt>
<pdfrwt beam="2">  1        2 0.42172264E+00 0.27129300E+02</pdfrwt>
<pdfrwt beam="1">  1       -1 0.10972140E-02 0.42783047E+02</pdfrwt>
<totfact> 0.58900850E+03</totfact>
</mgrwt>
</event>
<event>
 5    1  0.7156190E-003  0.6888269E+02  0.7546771E-02  0.1502953E+00
          2   -1    0    0  502    0  0.00000000000E+00  0.00000000000E+00  0.12064852386E+03  0.12064852386E+03  0.00000000000E+00 0. -1.
         -2   -1    0    0    0  501 -0.00000000000E+00 -0.00000000000E+00 -0.75829527597E+03  0.75829527597E+03  0.00000000000E+00 0.  1.
         25    1    1    2    0    0  0.54573453378E+02  0.40754497535E+02  0.47615186696E+02  0.15010461981E+03  0.12500000000E+03 0.  0.
          2    1    1    2  502    0 -0.68758346447E+02 -0.21301103861E+02 -0.38504149253E+02  0.81633429068E+02  0.00000000000E+00 0. -1.
         -2    1    1    2    0  501  0.14184893068E+02 -0.19453393674E+02 -0.64675778956E+03  0.64720575095E+03  0.00000000000E+00 0.  1.
<mgrwt>
<rscale>  0 0.40723558E+02</rscale>
<asrwt>0</asrwt>
<pdfrwt beam="1">  1        2 0.18561312E-01 0.68882692E+02</pdfrwt>
<pdfrwt beam="2">  1       -2 0.11666081E+00 0.24075833E+02</pdfrwt>
<totfact> 0.18611067E+02</totfact>
</mgrwt>
</event>
<event>
 5    1  0.7156190E-003  0.1292216E+03  0.7546771E-02  0.1255209E+00
          2   -1    0    0  501    0  0.00000000000E+00  0.00000000000E+00  0.14877705681E+04  0.14877705681E+04  0.00000000000E+00 0. -1.
          1   -1    0    0  502    0 -0.00000000000E+00 -0.00000000000E+00 -0.23634314408E+03  0.23634314408E+03  0.00000000000E+00 0.  1.
         25    1    1    2    0    0  0.41581268208E+02 -0.34264369901E+01 -0.17636666350E+02  0.13295410613E+03  0.12500000000E+03 0.  0.
          2    1    1    2  501    0  0.30211774894E+02  0.12564023047E+03  0.13953503304E+04  0.14013210779E+04  0.00000000000E+00 0. -1.
          1    1    1    2  502    0 -0.71793043102E+02 -0.12221379348E+03 -0.12628624002E+03  0.18983852815E+03  0.00000000000E+00 0.  1.
<mgrwt>
<rscale>  0 0.11294654E+03</rscale>
<asrwt>0</asrwt>
<pdfrwt beam="1">  1        2 0.22888778E+00 0.12922159E+03</pdfrwt>
<pdfrwt beam="2">  1        1 0.36360484E-01 0.98721279E+02</pdfrwt>
<totfact> 0.23581963E+02</totfact>
</mgrwt>
</event>
<event>
 5    1  0.7156190E-003  0.2128003E+03  0.7546771E-02  0.1228427E+00
          1   -1    0    0  501    0  0.00000000000E+00  0.00000000000E+00  0.12544678158E+04  0.12544678158E+04  0.00000000000E+00 0. -1.
          1   -1    0    0  502    0 -0.00000000000E+00 -0.00000000000E+00 -0.20392016722E+03  0.20392016722E+03  0.00000000000E+00 0. -1.
         25    1    1    2    0    0 -0.16412683818E+03 -0.20438749918E+03  0.60979543641E+02  0.29674125695E+03  0.12500000000E+03 0.  0.
          1    1    1    2  501    0  0.86787239897E+02  0.19024310176E+03  0.10448281997E+04  0.10655470096E+04  0.00000000000E+00 0. -1.
          1    1    1    2  502    0  0.77339598283E+02  0.14144397421E+02 -0.55260094740E+02  0.96099716501E+02  0.00000000000E+00 0. -1.
<mgrwt>
<rscale>  0 0.12934784E+03</rscale>
<asrwt>0</asrwt>
<pdfrwt beam="1">  1        1 0.19299504E+00 0.21280030E+03</pdfrwt>
<pdfrwt beam="2">  1        1 0.31372334E-01 0.78622372E+02</pdfrwt>
<totfact> 0.18045361E+02</totfact>
</mgrwt>
</event>
<event>
 5    1  0.7156190E-003  0.6606607E+02  0.7546771E-02  0.1379471E+00
          2   -1    0    0  501    0  0.00000000000E+00  0.00000000000E+00  0.22801241867E+04  0.22801241867E+04  0.00000000000E+00 0.  1.
          2   -1    0    0  502    0 -0.00000000000E+00 -0.00000000000E+00 -0.12104508843E+03  0.12104508843E+03  0.00000000000E+00 0. -1.
         25    1    1    2    0    0 -0.28749700757E+02 -0.84206911681E+01  0.20635391677E+03  0.24311394921E+03  0.12500000000E+03 0.  0.
          2    1    1    2  501    0  0.41653247486E+02 -0.53419833572E+02  0.20450581959E+04  0.20461797810E+04  0.00000000000E+00 0.  1.
          2    1    1    2  502    0 -0.12903546730E+02  0.61840524740E+02 -0.92333014346E+02  0.11187554494E+03  0.00000000000E+00 0. -1.
<mgrwt>
<rscale>  0 0.64603033E+02</rscale>
<asrwt>0</asrwt>
<pdfrwt beam="1">  1        2 0.35078830E+00 0.66066065E+02</pdfrwt>
<pdfrwt beam="2">  1        2 0.18622323E-01 0.63172399E+02</pdfrwt>
<totfact> 0.27683900E+02</totfact>
</mgrwt>
</event>
<event>
 5    1  0.7156190E-003  0.7181509E+02  0.7546771E-02  0.1500657E+00
         -2   -1    0    0    0  501 -0.00000000000E+00  0.00000000000E+00  0.29384389565E+02  0.29384389565E+02  0.00000000000E+00 0.  1.
          1   -1    0    0  502    0  0.00000000000E+00 -0.00000000000E+00 -0.68560719858E+03  0.68560719858E+03  0.00000000000E+00 0. -1.
         25    1    1    2    0    0  0.17008275005E+02 -0.75316765729E+02 -0.21724242234E+03  0.26226163784E+03  0.12500000000E+03 0.  0.
          1    1    1    2  502    0 -0.22544868721E+02  0.64850519453E+01 -0.25732743622E+03  0.25839453639E+03  0.00000000000E+00 0. -1.
         -2    1    1    2    0  501  0.55365937156E+01  0.68831713784E+02 -0.18165295045E+03  0.19433541391E+03  0.00000000000E+00 0.  1.
<mgrwt>
<rscale>  0 0.41045263E+02</rscale>
<asrwt>0</asrwt>
<pdfrwt beam="2">  1        1 0.10547803E+00 0.23459050E+02</pdfrwt>
<pdfrwt beam="1">  1       -2 0.45206751E-02 0.71815086E+02</pdfrwt>
<totfact> 0.56844366E+03</totfact>
</mgrwt>
</event>
<event>
 5    1  0.7156190E-003  0.8020193E+02  0.7546771E-02  0.1360756E+00
         -1   -1    0    0    0  501 -0.00000000000E+00  0.00000000000E+00  0.16379726122E+03  0.16379726122E+03  0.00000000000E+00 0.  1.
          2   -1    0    0  502    0  0.00000000000E+00 -0.00000000000E+00 -0.15571029648E+03  0.15571029648E+03  0.00000000000E+00 0. -1.
         25    1    1    2    0    0 -0.93116448641E+02  0.33546752583E+02  0.72372773333E+02  0.17509676164E+03  0.12500000000E+03 0.  0.
          2    1    1    2  502    0  0.27710223207E+02 -0.54069367357E+02 -0.29512454482E+02  0.67545080695E+02  0.00000000000E+00 0. -1.
         -1    1    1    2    0  501  0.65406225434E+02  0.20522614773E+02 -0.34773354115E+02  0.76865715368E+02  0.00000000000E+00 0.  1.
<mgrwt>
<rscale>  0 0.69805365E+02</rscale>
<asrwt>0</asrwt>
<pdfrwt beam="2">  1        2 0.23955430E-01 0.60756505E+02</pdfrwt>
<pdfrwt beam="1">  1       -1 0.25199578E-01 0.80201930E+02</pdfrwt>
<totfact> 0.32830760E+03</totfact>
</mgrwt>
</event>
<event>
 5    1  0.7156190E-003  0.9520442E+02  0.7546771E-02  0.1423818E+00
          3   -1    0    0  502    0 -0.00000000000E+00  0.00000000000E+00  0.81614147691E+02  0.81614147691E+02  0.00000000000E+00 0. -1.
          1   -1    0    0  501    0  0.00000000000E+00 -0.00000000000E+00 -0.10249583803E+04  0.10249583803E+04  0.00000000000E+00 0. -1.
         25    1    1    2    0    0 -0.15656946787E+02 -0.90242563500E+02 -0.20466259233E+03  0.25671119366E+03  0.12500000000E+03 0.  0.
          1    1    1    2  501    0  0.45977996031E+02  0.84392266197E+02 -0.78682115631E+03  0.79266863362E+03  0.00000000000E+00 0. -1.
          3    1    1    2  502    0 -0.30321049245E+02  0.58502973030E+01  0.48139516054E+02  0.57192700686E+02  0.00000000000E+00 0. -1.
<mgrwt>
<rscale>  0 0.54221211E+02</rscale>
<asrwt>0</asrwt>
<pdfrwt beam="2">  1        1 0.15768591E+00 0.95204422E+02</pdfrwt>
<pdfrwt beam="1">  1        3 0.12556022E-01 0.30880285E+02</pdfrwt>
<totfact> 0.35650309E+02</totfact>
</mgrwt>
</event>
<event>
 5    1  0.7156190E-003  0.6977568E+02  0.7546771E-02  0.1466940E+00
         -1   -1    0    0    0  501 -0.00000000000E+00  0.00000000000E+00  0.17243894904E+04  0.17243894904E+04  0.00000000000E+00 0.  1.
          1   -1    0    0  502    0  0.00000000000E+00 -0.00000000000E+00 -0.28418362300E+03  0.28418362300E+03  0.00000000000E+00 0. -1.
         25    1    1    2    0    0 -0.34078401802E+01  0.43804049525E+02  0.74718442738E+03  0.75884120647E+03  0.12500000000E+03 0.  0.
          1    1    1    2  502    0  0.25273670802E+02 -0.65211039414E+02 -0.27371634035E+03  0.28250995216E+03  0.00000000000E+00 0. -1.
         -1    1    1    2    0  501 -0.21865830622E+02  0.21406989889E+02  0.96673778041E+03  0.96722195480E+03  0.00000000000E+00 0.  1.
<mgrwt>
<rscale>  0 0.46207701E+02</rscale>
<asrwt>0</asrwt>
<pdfrwt beam="2">  1        1 0.43720558E-01 0.69775685E+02</pdfrwt>
<pdfrwt beam="1">  1       -1 0.26529068E+00 0.30600225E+02</pdfrwt>
<totfact> 0.77304465E+00</totfact>
</mgrwt>
</event>
<event>
 5    1  0.7156190E-003  0.2109554E+02  0.7546771E-02  0.1748142E+00
          1   -1    0    0  502    0  0.00000000000E+00  0.00000000000E+00  0.10446836251E+03  0.10446836251E+03  0.00000000000E+00 0. -1.
          1   -1    0    0  501    0 -0.00000000000E+00 -0.00000000000E+00 -0.11466054959E+03  0.11466054959E+03  0.00000000000E+00 0. -1.
         25    1    1    2    0    0  0.28691936393E+01 -0.36976235585E+01 -0.63990808113E+02  0.14050526045E+03  0.12500000000E+03 0.  0.
          1    1    1    2  501    0 -0.23931631629E+02  0.48789478141E+01  0.42763717870E+01  0.24795452806E+02  0.00000000000E+00 0. -1.
          1    1    1    2  502    0  0.21062437990E+02 -0.11813242556E+01  0.49522249236E+02  0.53828198841E+02  0.00000000000E+00 0. -1.
<mgrwt>
<rscale>  0 0.19859252E+02</rscale>
<asrwt>0</asrwt>
<pdfrwt beam="1">  1        1 0.16072056E-01 0.21095540E+02</pdfrwt>
<pdfrwt beam="2">  1        1 0.17640085E-01 0.18695415E+02</pdfrwt>
<totfact> 0.94140527E+03</totfact>
</mgrwt>
</event>
<event>
 5    1  0.7156190E-003  0.5444429E+02  0.7546771E-02  0.1442743E+00
          1   -1    0    0  502    0 -0.00000000000E+00  0.00000000000E+00  0.19618739526E+02  0.19618739526E+02  0.00000000000E+00 0. -1.
          2   -1    0    0  501    0  0.00000000000E+00 -0.00000000000E+00 -0.15981274522E+04  0.15981274522E+04  0.00000000000E+00 0.  1.
         25    1    1    2    0    0 -0.71808366380E+02  0.65834746155E+02 -0.70536515579E+03  0.72294927781E+03  0.12500000000E+03 0.  0.
          2    1    1    2  501    0  0.35456975993E+02 -0.30566570374E+02 -0.82017619207E+03  0.82151110669E+03  0.00000000000E+00 0.  1.
          1    1    1    2  502    0  0.36351390387E+02 -0.35268175780E+02 -0.52967364812E+02  0.73285807228E+02  0.00000000000E+00 0. -1.
<mgrwt>
<rscale>  0 0.50484977E+02</rscale>
<asrwt>0</asrwt>
<pdfrwt beam="2">  1        2 0.24586571E+00 0.46813592E+02</pdfrwt>
<pdfrwt beam="1">  1        1 0.30182683E-02 0.54444293E+02</pdfrwt>
<totfact> 0.54133900E+03</totfact>
</mgrwt>
</event>
<event>
 5    1  0.7156190E-003  0.1019653E+03  0.7546771E-02  0.1326087E+00
          2   -1    0    0  502    0  0.00000000000E+00  0.00000000000E+00  0.14398165118E+04  0.14398165118E+04  0.00000000000E+00 0. -1.
         -1   -1    0    0    0  501 -0.00000000000E+00 -0.00000000000E+00 -0.67870328964E+02  0.67870328964E+02  0.00000000000E+00 0.  1.
         25    1    1    2    0    0 -0.11040458843E+03 -0.96371556333E+02  0.40514135410E+03  0.44859911594E+03  0.12500000000E+03 0.  0.
          2    1    1    2  502    0  0.91481807087E+02  0.34781675385E+02  0.98678735590E+03  0.99162894862E+03  0.00000000000E+00 0. -1.
         -1    1    1    2    0  501  0.18922781346E+02  0.61589880948E+02 -0.19982527205E+02  0.67458776171E+02  0.00000000000E+00 0.  1.
<mgrwt>
<rscale>  0 0.81054012E+02</rscale>
<asrwt>0</asrwt>
<pdfrwt beam="1">  1        2 0.22151021E+00 0.10196533E+03</pdfrwt>
<pdfrwt beam="2">  1       -1 0.10441590E-01 0.64431243E+02</pdfrwt>
<totfact> 0.94375200E+02</totfact>
</mgrwt>
</event>
<event>
 5    1  0.7156190E-003  0.6585895E+02  0.7546771E-02  0.1489847E+00
          2   -1    0    0  502    0  0.00000000000E+00  0.00000000000E+00  0.11760513051E+04  0.11760513051E+04  0.00000000000E+00 0.  1.
         -2   -1    0    0    0  501 -0.00000000000E+00 -0.00000000000E+00 -0.15042003930E+02  0.15042003930E+02  0.00000000000E+00 0.  1.
         25    1    1    2    0    0  0.35433796521E+02  0.76233120110E+02  0.73026776609E+03  0.74564271117E+03  0.12500000000E+03 0.  0.
          2    1    1    2  502    0 -0.36385502850E+02 -0.48682983916E+02  0.39815929052E+03  0.40277134751E+03  0.00000000000E+00 0.  1.
         -2    1    1    2    0  501  0.95170632870E+00 -0.27550136194E+02  0.32582244506E+02  0.42679250301E+02  0.00000000000E+00 0.  1.
<mgrwt>
<rscale>  0 0.42608748E+02</rscale>
<asrwt>0</asrwt>
<pdfrwt beam="1">  1        2 0.18093090E+00 0.65858952E+02</pdfrwt>
<pdfrwt beam="2">  1       -2 0.23141554E-02 0.27566569E+02</pdfrwt>
<totfact> 0.10320708E+04</totfact>
</mgrwt>
</event>
<event>
 5    1  0.7156190E-003  0.4444798E+02  0.7546771E-02  0.1540035E+00
          1   -1    0    0  502    0  0.00000000000E+00  0.00000000000E+00  0.60926442800E+02  0.60926442800E+02  0.00000000000E+00 0. -1.
         -2   -1    0    0    0  501 -0.00000000000E+00 -0.00000000000E+00 -0.20155712051E+03  0.20155712051E+03  0.00000000000E+00 0.  1.
         25    1    1    2    0    0  0.42800834065E+01  0.36890807440E+02 -0.85858249915E+02  0.15612779979E+03  0.12500000000E+03 0.  0.
          1    1    1    2  502    0  0.29021017514E+02  0.25322905340E+01 -0.45344781701E+02  0.53896021935E+02  0.00000000000E+00 0. -1.
         -2    1    1    2    0  501 -0.33301100921E+02 -0.39423097974E+02 -0.94276460908E+01  0.52459741585E+02  0.00000000000E+00 0.  1.
<mgrwt>
<rscale>  0 0.35983702E+02</rscale>
<asrwt>0</asrwt>
<pdfrwt beam="1">  1        1 0.93732987E-02 0.29131288E+02</pdfrwt>
<pdfrwt beam="2">  1       -2 0.31008788E-01 0.44447978E+02</pdfrwt>
<totfact> 0.48708647E+03</totfact>
</mgrwt>
</event>
<event>
 5    1  0.7156190E-003  0.1354790E+03  0.7546771E-02  0.1289424E+00
         -3   -1    0    0    0  501 -0.00000000000E+00  0.00000000000E+00  0.49480874459E+03  0.49480874459E+03  0.00000000000E+00 0.  1.
          2   -1    0    0  502    0  0.00000000000E+00 -0.00000000000E+00 -0.15461165054E+04  0.15461165054E+04  0.00000000000E+00 0. -1.
         25    1    1    2    0    0 -0.18508798131E+03 -0.51595280517E+02  0.39502038473E+02  0.23260491147E+03  0.12500000000E+03 0.  0.
          2    1    1    2  502    0  0.67697094047E+02 -0.16461250848E+01 -0.14371636267E+04  0.14387581090E+04  0.00000000000E+00 0. -1.
         -3    1    1    2    0  501  0.11739088726E+03  0.53241405602E+02  0.34635382745E+03  0.36956222950E+03  0.00000000000E+00 0.  1.
<mgrwt>
<rscale>  0 0.95782266E+02</rscale>
<asrwt>0</asrwt>
<pdfrwt beam="2">  1        2 0.23786407E+00 0.67717105E+02</pdfrwt>
<pdfrwt beam="1">  1       -3 0.76124424E-01 0.13547895E+03</pdfrwt>
<totfact> 0.14738321E+01</totfact>
</mgrwt>
</event>
<event>
 5    1  0.7156190E-003  0.7842690E+02  0.7546771E-02  0.1390178E+00
          2   -1    0    0  502    0  0.00000000000E+00  0.00000000000E+00  0.26207480421E+04  0.26207480421E+04  0.00000000000E+00 0. -1.
         -1   -1    0    0    0  501 -0.00000000000E+00 -0.00000000000E+00 -0.23699636304E+02  0.23699636304E+02  0.00000000000E+00 0.  1.
         25    1    1    2    0    0  0.50609440509E+01 -0.64139967161E+02  0.25948407722E+03  0.29512122064E+03  0.12500000000E+03 0.  0.
          2    1    1    2  502    0 -0.27356013782E+02 -0.40407340832E+02  0.18289033388E+04  0.18295541882E+04  0.00000000000E+00 0. -1.
         -1    1    1    2    0  501  0.22295069731E+02  0.10454730799E+03  0.50866098975E+03  0.51977226959E+03  0.00000000000E+00 0.  1.
<mgrwt>
<rscale>  0 0.61862454E+02</rscale>
<asrwt>0</asrwt>
<pdfrwt beam="1">  1        2 0.40319178E+00 0.48796564E+02</pdfrwt>
<pdfrwt beam="2">  1       -1 0.36461000E-02 0.78426900E+02</pdfrwt>
<totfact> 0.12435790E+03</totfact>
</mgrwt>
</event>
<event>
 5    1  0.7156190E-003  0.4826052E+02  0.7546771E-02  0.1547031E+00
          3   -1    0    0  502    0 -0.00000000000E+00  0.00000000000E+00  0.35235678053E+02  0.35235678053E+02  0.00000000000E+00 0. -1.
          2   -1    0    0  501    0  0.00000000000E+00 -0.00000000000E+00 -0.12380962152E+04  0.12380962152E+04  0.00000000000E+00 0. -1.
         25    1    1    2    0    0  0.23495900811E+02 -0.33783064693E+02 -0.23382719943E+03  0.26831606736E+03  0.12500000000E+03 0.  0.
          2    1    1    2  501    0 -0.44704604419E+02  0.19373034477E+02 -0.97696267430E+03  0.97817681587E+03  0.00000000000E+00 0. -1.
          3    1    1    2  502    0  0.21208703609E+02  0.14410030216E+02  0.79293365904E+01  0.26839010011E+02  0.00000000000E+00 0. -1.
<mgrwt>
<rscale>  0 0.35177343E+02</rscale>
<asrwt>0</asrwt>
<pdfrwt beam="2">  1        2 0.19047635E+00 0.48260524E+02</pdfrwt>
<pdfrwt beam="1">  1        3 0.54208732E-02 0.25640945E+02</pdfrwt>
<totfact> 0.18875419E+03</totfact>
</mgrwt>
</event>
<event>
 5    1  0.7156190E-003  0.1510106E+03  0.7546771E-02  0.1258864E+00
         -2   -1    0    0    0  501 -0.00000000000E+00  0.00000000000E+00  0.23062053769E+03  0.23062053769E+03  0.00000000000E+00 0.  1.
          2   -1    0    0  502    0  0.00000000000E+00 -0.00000000000E+00 -0.95076511929E+03  0.95076511929E+03  0.00000000000E+00 0. -1.
         25    1    1    2    0    0 -0.13046853820E+03 -0.93543106548E+02 -0.17597898628E+03  0.26900921147E+03  0.12500000000E+03 0.  0.
          2    1    1    2  502    0 -0.21158646280E+02  0.78687378334E+02 -0.69395459603E+03  0.69872195698E+03  0.00000000000E+00 0. -1.
         -2    1    1    2    0  501  0.15162718448E+03  0.14855728214E+02  0.14978900071E+03  0.21365448853E+03  0.00000000000E+00 0.  1.
<mgrwt>
<rscale>  0 0.11092661E+03</rscale>
<asrwt>0</asrwt>
<pdfrwt beam="2">  1        2 0.14627155E+00 0.81482463E+02</pdfrwt>
<pdfrwt beam="1">  1       -2 0.35480084E-01 0.15101057E+03</pdfrwt>
<totfact> 0.22419137E+02</totfact>
</mgrwt>
</event>
<event>
 5    1  0.7156190E-003  0.4849984E+02  0.7546771E-02  0.1481759E+00
          1   -1    0    0  501    0  0.00000000000E+00  0.00000000000E+00  0.77212321486E+03  0.77212321486E+03  0.00000000000E+00 0. -1.
          3   -1    0    0  502    0 -0.00000000000E+00 -0.00000000000E+00 -0.35651863111E+02  0.35651863111E+02  0.00000000000E+00 0. -1.
         25    1    1    2    0    0 -0.32086622637E+02 -0.71622338504E+02  0.38752859353E+03  0.41468388144E+03  0.12500000000E+03 0.  0.
          1    1    1    2  501    0  0.30942273590E+02  0.24738493430E+02  0.34361566411E+03  0.34589180675E+03  0.00000000000E+00 0. -1.
          3    1    1    2  502    0  0.11443490472E+01  0.46883845074E+02  0.53270941024E+01  0.47199389776E+02  0.00000000000E+00 0. -1.
<mgrwt>
<rscale>  0 0.43833361E+02</rscale>
<asrwt>0</asrwt>
<pdfrwt beam="1">  1        1 0.11878817E+00 0.39615872E+02</pdfrwt>
<pdfrwt beam="2">  1        3 0.54849026E-02 0.48499842E+02</pdfrwt>
<totfact> 0.23213476E+03</totfact>
</mgrwt>
</event>
<event>
 5    1  0.7156190E-003  0.1186322E+03  0.7546771E-02  0.1440237E+00
          2   -1    0    0  501    0  0.00000000000E+00  0.00000000000E+00  0.14628993653E+04  0.14628993653E+04  0.00000000000E+00 0. -1.
          1   -1    0    0  502    0 -0.00000000000E+00 -0.00000000000E+00 -0.13012141888E+04  0.13012141888E+04  0.00000000000E+00 0. -1.
         25    1    1    2    0    0 -0.61615252220E+02  0.10266218507E+03 -0.17163234191E+02  0.17394119741E+03  0.12500000000E+03 0.  0.
          2    1    1    2  501    0 -0.17006206486E+02 -0.13781904263E+02  0.13815036975E+04  0.13816771034E+04  0.00000000000E+00 0. -1.
          1    1    1    2  502    0  0.78621458707E+02 -0.88880280809E+02 -0.12026552868E+04  0.12084952532E+04  0.00000000000E+00 0. -1.
<mgrwt>
<rscale>  0 0.50958853E+02</rscale>
<asrwt>0</asrwt>
<pdfrwt beam="1">  1        2 0.22506144E+00 0.21889540E+02</pdfrwt>
<pdfrwt beam="2">  1        1 0.20018680E+00 0.11863222E+03</pdfrwt>
<totfact> 0.25195446E+01</totfact>
</mgrwt>
</event>
<event>
 5    1  0.7156190E-003  0.1478291E+03  0.7546771E-02  0.1367693E+00
          2   -1    0    0  502    0  0.00000000000E+00  0.00000000000E+00  0.34100300552E+04  0.34100300552E+04  0.00000000000E+00 0. -1.
         -2   -1    0    0    0  501 -0.00000000000E+00 -0.00000000000E+00 -0.21431896730E+02  0.21431896730E+02  0.00000000000E+00 0. -1.
         25    1    1    2    0    0  0.88079996007E+02 -0.10920715289E+03  0.15310434343E+04  0.15425314537E+04  0.12500000000E+03 0.  0.
          2    1    1    2  502    0 -0.11719374212E+03  0.98249910507E+02  0.18507881635E+04  0.18570956476E+04  0.00000000000E+00 0. -1.
         -2    1    1    2    0  501  0.29113746117E+02  0.10957242381E+02  0.67665606886E+01  0.31834850669E+02  0.00000000000E+00 0. -1.
<mgrwt>
<rscale>  0 0.67812851E+02</rscale>
<asrwt>0</asrwt>
<pdfrwt beam="1">  1        2 0.52461958E+00 0.14782914E+03</pdfrwt>
<pdfrwt beam="2">  1       -2 0.32972176E-02 0.31107417E+02</pdfrwt>
<totfact> 0.36803985E+02</totfact>
</mgrwt>
</event>
<event>
 5    1  0.7156190E-003  0.2588832E+03  0.7546771E-02  0.1261388E+00
          3   -1    0    0  502    0 -0.00000000000E+00  0.00000000000E+00  0.63671463041E+03  0.63671463041E+03  0.00000000000E+00 0. -1.
          1   -1    0    0  501    0  0.00000000000E+00 -0.00000000000E+00 -0.47154981181E+03  0.47154981181E+03  0.00000000000E+00 0. -1.
         25    1    1    2    0    0 -0.75543738031E+02  0.23060738844E+03  0.92291182094E+02  0.28814802837E+03  0.12500000000E+03 0.  0.
          1    1    1    2  501    0  0.33189243175E+02  0.32376204800E+02 -0.33213880876E+03  0.33535940837E+03  0.00000000000E+00 0. -1.
          3    1    1    2  502    0  0.42354494856E+02 -0.26298359324E+03  0.40501244526E+03  0.48475700548E+03  0.00000000000E+00 0. -1.
<mgrwt>
<rscale>  0 0.10955914E+03</rscale>
<asrwt>0</asrwt>
<pdfrwt beam="2">  1        1 0.72546125E-01 0.46365337E+02</pdfrwt>
<pdfrwt beam="1">  1        3 0.97956097E-01 0.25888315E+03</pdfrwt>
<totfact> 0.26086511E+01</totfact>
</mgrwt>
</event>
<event>
 5    1  0.7156190E-003  0.6921589E+02  0.7546771E-02  0.1432315E+00
         -1   -1    0    0    0  501 -0.00000000000E+00  0.00000000000E+00  0.40679308959E+03  0.40679308959E+03  0.00000000000E+00 0.  1.
          2   -1    0    0  502    0  0.00000000000E+00 -0.00000000000E+00 -0.54241779169E+02  0.54241779169E+02  0.00000000000E+00 0. -1.
         25    1    1    2    0    0 -0.10989333060E+02  0.71635183392E+02  0.76410158786E+02  0.16344992293E+03  0.12500000000E+03 0.  0.
          2    1    1    2  502    0 -0.28302116288E+02 -0.65180316260E+02  0.17309124894E+03  0.18710976424E+03  0.00000000000E+00 0. -1.
         -1    1    1    2    0  501  0.39291449349E+02 -0.64548671326E+01  0.10304990270E+03  0.11047518159E+03  0.00000000000E+00 0.  1.
<mgrwt>
<rscale>  0 0.52498067E+02</rscale>
<asrwt>0</asrwt>
<pdfrwt beam="2">  1        2 0.83448894E-02 0.69215886E+02</pdfrwt>
<pdfrwt beam="1">  1       -1 0.62583550E-01 0.39818128E+02</pdfrwt>
<totfact> 0.23185139E+03</totfact>
</mgrwt>
</event>
<event>
 5    1  0.7156190E-003  0.8403339E+02  0.7546771E-02  0.1320622E+00
         -2   -1    0    0    0  501  0.00000000000E+00  0.00000000000E+00  0.29663770632E+03  0.29663770632E+03  0.00000000000E+00 0.  1.
         -3   -1    0    0    0  502 -0.00000000000E+00 -0.00000000000E+00 -0.15105183555E+03  0.15105183555E+03  0.00000000000E+00 0.  1.
         25    1    1    2    0    0  0.40817286258E+02 -0.73339208206E+02  0.10937187948E+03  0.18609647589E+03  0.12500000000E+03 0.  0.
         -2    1    1    2    0  501 -0.84016138122E+02 -0.17029306269E+01  0.11641035519E+03  0.14357221957E+03  0.00000000000E+00 0.  1.
         -3    1    1    2    0  502  0.43198851864E+02  0.75042138833E+02 -0.80196363902E+02  0.11802084640E+03  0.00000000000E+00 0.  1.
<mgrwt>
<rscale>  0 0.83046329E+02</rscale>
<asrwt>0</asrwt>
<pdfrwt beam="1">  1       -2 0.45636570E-01 0.84033395E+02</pdfrwt>
<pdfrwt beam="2">  1       -3 0.23238744E-01 0.82070858E+02</pdfrwt>
<totfact> 0.29454298E+02</totfact>
</mgrwt>
</event>
<event>
 5    1  0.7156190E-003  0.9427553E+02  0.7546771E-02  0.1344682E+00
         -3   -1    0    0    0  501 -0.00000000000E+00  0.00000000000E+00  0.10808803805E+03  0.10808803805E+03  0.00000000000E+00 0.  1.
          1   -1    0    0  502    0  0.00000000000E+00 -0.00000000000E+00 -0.73028035137E+03  0.73028035137E+03  0.00000000000E+00 0. -1.
         25    1    1    2    0    0 -0.56041442101E+02 -0.70566424279E+02 -0.23790423123E+03  0.28344961934E+03  0.12500000000E+03 0.  0.
          1    1    1    2  502    0  0.38238790634E+01  0.98565686634E+02 -0.45333060714E+03  0.46393798724E+03  0.00000000000E+00 0. -1.
         -3    1    1    2    0  501  0.52217563038E+02 -0.27999262355E+02  0.69042525050E+02  0.90980782847E+02  0.00000000000E+00 0.  1.
<mgrwt>
<rscale>  0 0.74738752E+02</rscale>
<asrwt>0</asrwt>
<pdfrwt beam="2">  1        1 0.11235083E+00 0.94275532E+02</pdfrwt>
<pdfrwt beam="1">  1       -3 0.16628929E-01 0.59250591E+02</pdfrwt>
<totfact> 0.41556207E+02</totfact>
</mgrwt>
</event>
<event>
 5    1  0.7156190E-003  0.8015380E+02  0.7546771E-02  0.1388645E+00
          1   -1    0    0  501    0  0.00000000000E+00  0.00000000000E+00  0.22438399860E+04  0.22438399860E+04  0.00000000000E+00 0. -1.
          1   -1    0    0  502    0 -0.00000000000E+00 -0.00000000000E+00 -0.21128353389E+04  0.21128353389E+04  0.00000000000E+00 0. -1.
         25    1    1    2    0    0  0.71386165652E+02 -0.99210583152E+02  0.65549696843E+03  0.67840990564E+03  0.12500000000E+03 0.  0.
          1    1    1    2  501    0 -0.41421050747E+02  0.24916252940E+02  0.15757523084E+04  0.15764935333E+04  0.00000000000E+00 0. -1.
          1    1    1    2  502    0 -0.29965114905E+02  0.74294330212E+02 -0.21002446297E+04  0.21017718859E+04  0.00000000000E+00 0. -1.
<mgrwt>
<rscale>  0 0.62245015E+02</rscale>
<asrwt>0</asrwt>
<pdfrwt beam="1">  1        1 0.34520615E+00 0.48337595E+02</pdfrwt>
<pdfrwt beam="2">  1        1 0.32505159E+00 0.80153800E+02</pdfrwt>
<totfact> 0.11846017E+00</totfact>
</mgrwt>
</event>
<event>
 5    1  0.7156190E-003  0.5276459E+02  0.7546771E-02  0.1450474E+00
         -1   -1    0    0    0  501 -0.00000000000E+00  0.00000000000E+00  0.80872020119E+03  0.80872020119E+03  0.00000000000E+00 0.  1.
          1   -1    0    0  502    0  0.00000000000E+00 -0.00000000000E+00 -0.36861043415E+03  0.36861043415E+03  0.00000000000E+00 0. -1.
         25    1    1    2    0    0 -0.88086194504E+02  0.76371256199E+00  0.12596869343E+03  0.19812337733E+03  0.12500000000E+03 0.  0.
          1    1    1    2  502    0  0.40719089941E+02  0.20563539198E+02 -0.32991796537E+03  0.33305670284E+03  0.00000000000E+00 0. -1.
         -1    1    1    2    0  501  0.47367104563E+02 -0.21327251760E+02  0.64405903898E+03  0.64615055517E+03  0.00000000000E+00 0.  1.
<mgrwt>
<rscale>  0 0.49060761E+02</rscale>
<asrwt>0</asrwt>
<pdfrwt beam="2">  1        1 0.56709298E-01 0.45616920E+02</pdfrwt>
<pdfrwt beam="1">  1       -1 0.12441849E+00 0.52764594E+02</pdfrwt>
<totfact> 0.45879626E+01</totfact>
</mgrwt>
</event>
<event>
 5    1  0.7156190E-003  0.9865474E+02  0.7546771E-02  0.1291590E+00
         -2   -1    0    0    0  501 -0.00000000000E+00  0.00000000000E+00  0.86999020259E+02  0.86999020259E+02  0.00000000000E+00 0. -1.
          1   -1    0    0  502    0  0.00000000000E+00 -0.00000000000E+00 -0.58931013412E+03  0.58931013412E+03  0.00000000000E+00 0. -1.
         25    1    1    2    0    0 -0.27718284465E+02 -0.29404361716E+02 -0.12012884512E+03  0.17801364894E+03  0.12500000000E+03 0.  0.
          1    1    1    2  502    0  0.37854765975E+02 -0.91103094610E+02 -0.36260756454E+03  0.37578850836E+03  0.00000000000E+00 0. -1.
         -2    1    1    2    0  501 -0.10136481509E+02  0.12050745633E+03 -0.19574704206E+02  0.12250699707E+03  0.00000000000E+00 0. -1.
<mgrwt>
<rscale>  0 0.94816626E+02</rscale>
<asrwt>0</asrwt>
<pdfrwt beam="2">  1        1 0.90663101E-01 0.98654737E+02</pdfrwt>
<pdfrwt beam="1">  1       -2 0.13384464E-01 0.91127835E+02</pdfrwt>
<totfact> 0.12844462E+03</totfact>
</mgrwt>
</event>
<event>
 5    1  0.7156190E-003  0.8495503E+02  0.7546771E-02  0.1391216E+00
          1   -1    0    0  502    0  0.00000000000E+00  0.00000000000E+00  0.14798791369E+04  0.14798791369E+04  0.00000000000E+00 0. -1.
         -2   -1    0    0    0  501 -0.00000000000E+00 -0.00000000000E+00 -0.21901168063E+02  0.21901168063E+02  0.00000000000E+00 0. -1.
         25    1    1    2    0    0  0.25229793994E+02 -0.38347664646E+02  0.92663042947E+03  0.93614958137E+03  0.12500000000E+03 0.  0.
          1    1    1    2  502    0  0.29761797651E+02 -0.33315796258E+02  0.41945146928E+03  0.42182370958E+03  0.00000000000E+00 0. -1.
         -2    1    1    2    0  501 -0.54991591645E+02  0.71663460905E+02  0.11189607012E+03  0.14380701405E+03  0.00000000000E+00 0. -1.
<mgrwt>
<rscale>  0 0.61605395E+02</rscale>
<asrwt>0</asrwt>
<pdfrwt beam="1">  1        1 0.22767364E+00 0.44673335E+02</pdfrwt>
<pdfrwt beam="2">  1       -2 0.33694116E-02 0.84955034E+02</pdfrwt>
<totfact> 0.24334271E+03</totfact>
</mgrwt>
</event>
<event>
 5    1  0.7156190E-003  0.1167623E+03  0.7546771E-02  0.1268563E+00
          1   -1    0    0  501    0  0.00000000000E+00  0.00000000000E+00  0.99260299457E+03  0.99260299457E+03  0.00000000000E+00 0. -1.
          3   -1    0    0  502    0 -0.00000000000E+00 -0.00000000000E+00 -0.51022942506E+02  0.51022942506E+02  0.00000000000E+00 0. -1.
         25    1    1    2    0    0 -0.11655520087E+03  0.14936711239E+03  0.44589379910E+03  0.50034181235E+03  0.12500000000E+03 0.  0.
          1    1    1    2  501    0  0.72311752215E+02 -0.62924089699E+02  0.38165052966E+03  0.39350420247E+03  0.00000000000E+00 0. -1.
          3    1    1    2  502    0  0.44243448651E+02 -0.86443022689E+02  0.11403572330E+03  0.14977992225E+03  0.00000000000E+00 0. -1.
<mgrwt>
<rscale>  0 0.10579416E+03</rscale>
<asrwt>0</asrwt>
<pdfrwt beam="1">  1        1 0.15270814E+00 0.95856302E+02</pdfrwt>
<pdfrwt beam="2">  1        3 0.78496842E-02 0.11676232E+03</pdfrwt>
<totfact> 0.97290011E+02</totfact>
</mgrwt>
</event>
<event>
 5    1  0.7156190E-003  0.1039068E+03  0.7546771E-02  0.1427008E+00
          2   -1    0    0  502    0  0.00000000000E+00  0.00000000000E+00  0.20519024751E+04  0.20519024751E+04  0.00000000000E+00 0. -1.
         -2   -1    0    0    0  501 -0.00000000000E+00 -0.00000000000E+00 -0.33081345389E+02  0.33081345389E+02  0.00000000000E+00 0.  1.
         25    1    1    2    0    0 -0.80204703785E+02 -0.93467524586E+02  0.63459387369E+03  0.65840971832E+03  0.12500000000E+03 0.  0.
          2    1    1    2  502    0  0.46010953117E+01  0.27227685826E+02  0.12851147623E+04  0.12854114007E+04  0.00000000000E+00 0. -1.
         -2    1    1    2    0  501  0.75603608473E+02  0.66239838760E+02  0.99112493730E+02  0.14116270140E+03  0.00000000000E+00 0.  1.
<mgrwt>
<rscale>  0 0.53565410E+02</rscale>
<asrwt>0</asrwt>
<pdfrwt beam="1">  1        2 0.31567720E+00 0.27613710E+02</pdfrwt>
<pdfrwt beam="2">  1       -2 0.50894394E-02 0.10390683E+03</pdfrwt>
<totfact> 0.15941263E+03</totfact>
</mgrwt>
</event>
<event>
 5    1  0.7156190E-003  0.1827336E+03  0.7546771E-02  0.1287801E+00
          1   -1    0    0  502    0  0.00000000000E+00  0.00000000000E+00  0.15164421482E+04  0.15164421482E+04  0.00000000000E+00 0. -1.
          1   -1    0    0  501    0 -0.00000000000E+00 -0.00000000000E+00 -0.67010918189E+03  0.67010918189E+03  0.00000000000E+00 0. -1.
         25    1    1    2    0    0 -0.48512665899E+02  0.13690421612E+03  0.95167355637E+02  0.21395810039E+03  0.12500000000E+03 0.  0.
          1    1    1    2  501    0  0.18156993662E+02  0.47632782946E+02 -0.60321326465E+03  0.60536336285E+03  0.00000000000E+00 0. -1.
          1    1    1    2  502    0  0.30355672236E+02 -0.18453699907E+03  0.13543788753E+04  0.13672298669E+04  0.00000000000E+00 0. -1.
<mgrwt>
<rscale>  0 0.96514446E+02</rscale>
<asrwt>0</asrwt>
<pdfrwt beam="1">  1        1 0.23329879E+00 0.18273360E+03</pdfrwt>
<pdfrwt beam="2">  1        1 0.10309372E+00 0.50976057E+02</pdfrwt>
<totfact> 0.28048586E+01</totfact>
</mgrwt>
</event>
<event>
 5    1  0.7156190E-003  0.4245474E+02  0.7546771E-02  0.1585017E+00
         -1   -1    0    0    0  501 -0.00000000000E+00  0.00000000000E+00  0.53418578378E+02  0.53418578378E+02  0.00000000000E+00 0.  1.
          2   -1    0    0  502    0  0.00000000000E+00 -0.00000000000E+00 -0.22368450503E+03  0.22368450503E+03  0.00000000000E+00 0. -1.
         25    1    1    2    0    0 -0.34370268889E+01  0.29091068743E+02 -0.12663392256E+03  0.18033095624E+03  0.12500000000E+03 0.  0.
          2    1    1    2  502    0 -0.12287966895E+02 -0.45811755219E+02 -0.53752096713E+02  0.71686811533E+02  0.00000000000E+00 0. -1.
         -1    1    1    2    0  501  0.15724993784E+02  0.16720686476E+02  0.10120092625E+02  0.25085315634E+02  0.00000000000E+00 0.  1.
<mgrwt>
<rscale>  0 0.31216646E+02</rscale>
<asrwt>0</asrwt>
<pdfrwt beam="2">  1        2 0.34413001E-01 0.42454739E+02</pdfrwt>
<pdfrwt beam="1">  1       -1 0.82182428E-02 0.22953361E+02</pdfrwt>
<totfact> 0.11122008E+04</totfact>
</mgrwt>
</event>
<event>
 5    1  0.7156190E-003  0.7918572E+02  0.7546771E-02  0.1433382E+00
         -1   -1    0    0    0  501 -0.00000000000E+00  0.00000000000E+00  0.81922060858E+02  0.81922060858E+02  0.00000000000E+00 0.  1.
          2   -1    0    0  502    0  0.00000000000E+00 -0.00000000000E+00 -0.38742922121E+03  0.38742922121E+03  0.00000000000E+00 0. -1.
         25    1    1    2    0    0  0.10614468822E+03  0.20216079980E+02 -0.22857935080E+03  0.28204415317E+03  0.12500000000E+03 0.  0.
          2    1    1    2  502    0 -0.30051768996E+02 -0.16997690368E+02 -0.10155500585E+03  0.10726345841E+03  0.00000000000E+00 0. -1.
         -1    1    1    2    0  501 -0.76092919226E+02 -0.32183896124E+01  0.24627196291E+02  0.80043670488E+02  0.00000000000E+00 0.  1.
<mgrwt>
<rscale>  0 0.52287184E+02</rscale>
<asrwt>0</asrwt>
<pdfrwt beam="2">  1        2 0.59604498E-01 0.34525792E+02</pdfrwt>
<pdfrwt beam="1">  1       -1 0.12603394E-01 0.79185717E+02</pdfrwt>
<totfact> 0.37562669E+03</totfact>
</mgrwt>
</event>
<event>
 5    1  0.7156190E-003  0.9765611E+02  0.7546771E-02  0.1311295E+00
         -1   -1    0    0    0  501 -0.00000000000E+00  0.00000000000E+00  0.32912069295E+02  0.32912069295E+02  0.00000000000E+00 0.  1.
          2   -1    0    0  502    0  0.00000000000E+00 -0.00000000000E+00 -0.33949494085E+04  0.33949494085E+04  0.00000000000E+00 0. -1.
         25    1    1    2    0    0  0.12257495741E+03  0.10238727510E+03 -0.12246781603E+04  0.12413578737E+04  0.12500000000E+03 0.  0.
          2    1    1    2  502    0 -0.35505191966E+02 -0.68099829055E+02 -0.20694672400E+04  0.20708918038E+04  0.00000000000E+00 0. -1.
         -1    1    1    2    0  501 -0.87069765444E+02 -0.34287446049E+02 -0.67891938894E+02  0.11561180034E+03  0.00000000000E+00 0.  1.
<mgrwt>
<rscale>  0 0.86602352E+02</rscale>
<asrwt>0</asrwt>
<pdfrwt beam="2">  1        2 0.52229971E+00 0.76799775E+02</pdfrwt>
<pdfrwt beam="1">  1       -1 0.50633972E-02 0.97656112E+02</pdfrwt>
<totfact> 0.26737184E+02</totfact>
</mgrwt>
</event>
<event>
 5    1  0.7156190E-003  0.5574857E+02  0.7546771E-02  0.1467373E+00
          2   -1    0    0  502    0  0.00000000000E+00  0.00000000000E+00  0.24958987632E+04  0.24958987632E+04  0.00000000000E+00 0.  1.
         -2   -1    0    0    0  501 -0.00000000000E+00 -0.00000000000E+00 -0.79943626521E+01  0.79943626521E+01  0.00000000000E+00 0. -1.
         25    1    1    2    0    0  0.80133774493E+02  0.23585222747E+02  0.16178712943E+04  0.16248415952E+04  0.12500000000E+03 0.  0.
          2    1    1    2  502    0 -0.37336227537E+02  0.79850608107E+01  0.69665026671E+03  0.69769574256E+03  0.00000000000E+00 0.  1.
         -2    1    1    2    0  501 -0.42797546956E+02 -0.31570283558E+02  0.17338283948E+03  0.18135578804E+03  0.00000000000E+00 0. -1.
<mgrwt>
<rscale>  0 0.46135795E+02</rscale>
<asrwt>0</asrwt>
<pdfrwt beam="1">  1        2 0.38398381E+00 0.38180559E+02</pdfrwt>
<pdfrwt beam="2">  1       -2 0.12299039E-02 0.55748572E+02</pdfrwt>
<totfact> 0.66005701E+03</totfact>
</mgrwt>
</event>
<event>
 5    1  0.7156190E-003  0.3278739E+03  0.7546771E-02  0.1236985E+00
         -1   -1    0    0    0  501 -0.00000000000E+00  0.00000000000E+00  0.49798551356E+03  0.49798551356E+03  0.00000000000E+00 0.  1.
          1   -1    0    0  502    0  0.00000000000E+00 -0.00000000000E+00 -0.18601392878E+04  0.18601392878E+04  0.00000000000E+00 0. -1.
         25    1    1    2    0    0 -0.14958608870E+03 -0.27119786334E+03 -0.10377089742E+03  0.34973944325E+03  0.12500000000E+03 0.  0.
          1    1    1    2  502    0  0.25295709757E+02 -0.39293134327E+02 -0.15583958934E+04  0.15590963998E+04  0.00000000000E+00 0. -1.
         -1    1    1    2    0  501  0.12429037894E+03  0.31049099767E+03  0.30001301658E+03  0.44928895830E+03  0.00000000000E+00 0.  1.
<mgrwt>
<rscale>  0 0.12378209E+03</rscale>
<asrwt>0</asrwt>
<pdfrwt beam="2">  1        1 0.28617528E+00 0.46731396E+02</pdfrwt>
<pdfrwt beam="1">  1       -1 0.76613155E-01 0.32787390E+03</pdfrwt>
<totfact> 0.91904304E+00</totfact>
</mgrwt>
</event>
<event>
 5    1  0.7156190E-003  0.9231688E+02  0.7546771E-02  0.1324366E+00
          2   -1    0    0  501    0  0.00000000000E+00  0.00000000000E+00  0.13330787727E+02  0.13330787727E+02  0.00000000000E+00 0. -1.
          2   -1    0    0  502    0 -0.00000000000E+00 -0.00000000000E+00 -0.25267195220E+04  0.25267195220E+04  0.00000000000E+00 0. -1.
         25    1    1    2    0    0  0.46596022706E+02  0.20500661057E+02 -0.12037195928E+04  0.12112626984E+04  0.12500000000E+03 0.  0.
          2    1    1    2  501    0 -0.42660142169E+02  0.81868910796E+02 -0.29868404358E+03  0.31262527756E+03  0.00000000000E+00 0. -1.
          2    1    1    2  502    0 -0.39358805365E+01 -0.10236957185E+03 -0.10109850979E+04  0.10161623338E+04  0.00000000000E+00 0. -1.
<mgrwt>
<rscale>  0 0.81674420E+02</rscale>
<asrwt>0</asrwt>
<pdfrwt beam="1">  1        2 0.20508941E-02 0.92316880E+02</pdfrwt>
<pdfrwt beam="2">  1        2 0.38872538E+00 0.72258842E+02</pdfrwt>
<totfact> 0.33326552E+03</totfact>
</mgrwt>
</event>
<event>
 5    1  0.7156190E-003  0.6037017E+02  0.7546771E-02  0.1492358E+00
          2   -1    0    0  502    0  0.00000000000E+00  0.00000000000E+00  0.70228208840E+02  0.70228208840E+02  0.00000000000E+00 0. -1.
         -1   -1    0    0    0  501 -0.00000000000E+00 -0.00000000000E+00 -0.27613753490E+03  0.27613753490E+03  0.00000000000E+00 0.  1.
         25    1    1    2    0    0  0.17244847206E+02 -0.64013189763E+02 -0.19711294840E+03  0.24263880078E+03  0.12500000000E+03 0.  0.
          2    1    1    2  502    0 -0.40050933910E+02  0.45219356580E+02  0.18830026352E+02  0.63272722472E+02  0.00000000000E+00 0. -1.
         -1    1    1    2    0  501  0.22806086705E+02  0.18793833183E+02 -0.27626404018E+02  0.40454220490E+02  0.00000000000E+00 0.  1.
<mgrwt>
<rscale>  0 0.42238186E+02</rscale>
<asrwt>0</asrwt>
<pdfrwt beam="1">  1        2 0.10804340E-01 0.60370168E+02</pdfrwt>
<pdfrwt beam="2">  1       -1 0.42482698E-01 0.29552085E+02</pdfrwt>
<totfact> 0.33347690E+03</totfact>
</mgrwt>
</event>
<event>
 5    1  0.7156190E-003  0.7427916E+02  0.7546771E-02  0.1457622E+00
          1   -1    0    0  502    0 -0.00000000000E+00  0.00000000000E+00  0.96074455304E+03  0.96074455304E+03  0.00000000000E+00 0. -1.
          2   -1    0    0  501    0  0.00000000000E+00 -0.00000000000E+00 -0.24687334945E+03  0.24687334945E+03  0.00000000000E+00 0. -1.
         25    1    1    2    0    0 -0.10453134301E+03 -0.17728783250E+01  0.37736732684E+03  0.41104871260E+03  0.12500000000E+03 0.  0.
          2    1    1    2  501    0  0.73823604400E+02  0.13733134280E+00 -0.22367706071E+03  0.23554483843E+03  0.00000000000E+00 0. -1.
          1    1    1    2  502    0  0.30707738605E+02  0.16355469822E+01  0.56018093746E+03  0.56102435145E+03  0.00000000000E+00 0. -1.
<mgrwt>
<rscale>  0 0.47793075E+02</rscale>
<asrwt>0</asrwt>
<pdfrwt beam="2">  1        2 0.37980516E-01 0.74279159E+02</pdfrwt>
<pdfrwt beam="1">  1        1 0.14780685E+00 0.30751264E+02</pdfrwt>
<totfact> 0.35638495E+02</totfact>
</mgrwt>
</event>
<event>
 5    1  0.7156190E-003  0.6763300E+02  0.7546771E-02  0.1375008E+00
          2   -1    0    0  501    0  0.00000000000E+00  0.00000000000E+00  0.14364490898E+04  0.14364490898E+04  0.00000000000E+00 0. -1.
          1   -1    0    0  502    0 -0.00000000000E+00 -0.00000000000E+00 -0.51428767114E+02  0.51428767114E+02  0.00000000000E+00 0. -1.
         25    1    1    2    0    0  0.41024026439E+02 -0.13734755384E+01  0.68119904838E+02  0.14815592670E+03  0.12500000000E+03 0.  0.
          2    1    1    2  501    0 -0.30443439319E+02 -0.61751536043E+02  0.12293174279E+04  0.12312438401E+04  0.00000000000E+00 0. -1.
          1    1    1    2  502    0 -0.10580587120E+02  0.63125011581E+02  0.87582989947E+02  0.10847809013E+03  0.00000000000E+00 0. -1.
<mgrwt>
<rscale>  0 0.65794302E+02</rscale>
<asrwt>0</asrwt>
<pdfrwt beam="1">  1        2 0.22099214E+00 0.67632999E+02</pdfrwt>
<pdfrwt beam="2">  1        1 0.79121191E-02 0.64005593E+02</pdfrwt>
<totfact> 0.17795213E+03</totfact>
</mgrwt>
</event>
<event>
 5    1  0.7156190E-003  0.1557416E+03  0.7546771E-02  0.1404637E+00
          2   -1    0    0  501    0  0.00000000000E+00  0.00000000000E+00  0.54009164213E+03  0.54009164213E+03  0.00000000000E+00 0.  1.
          1   -1    0    0  502    0 -0.00000000000E+00 -0.00000000000E+00 -0.70952749331E+03  0.70952749331E+03  0.00000000000E+00 0. -1.
         25    1    1    2    0    0  0.56726050065E+02  0.15342515147E+03 -0.26320461041E+03  0.33415384002E+03  0.12500000000E+03 0.  0.
          2    1    1    2  501    0 -0.72052543500E+02 -0.13777527780E+03  0.49233293550E+03  0.51629963739E+03  0.00000000000E+00 0.  1.
          1    1    1    2  502    0  0.15326493435E+02 -0.15649873672E+02 -0.39856417627E+03  0.39916565803E+03  0.00000000000E+00 0. -1.
<mgrwt>
<rscale>  0 0.58407947E+02</rscale>
<asrwt>0</asrwt>
<pdfrwt beam="1">  1        2 0.83091022E-01 0.15574164E+03</pdfrwt>
<pdfrwt beam="2">  1        1 0.10915808E+00 0.21904793E+02</pdfrwt>
<totfact> 0.24257577E+02</totfact>
</mgrwt>
</event>
<event>
 5    1  0.7156190E-003  0.3039940E+03  0.7546771E-02  0.1179264E+00
          2   -1    0    0  502    0  0.00000000000E+00  0.00000000000E+00  0.37193473032E+03  0.37193473032E+03  0.00000000000E+00 0.  1.
          2   -1    0    0  501    0 -0.00000000000E+00 -0.00000000000E+00 -0.83829274372E+03  0.83829274372E+03  0.00000000000E+00 0.  1.
         25    1    1    2    0    0  0.21797908082E+03  0.12084885762E+03 -0.13711351089E+03  0.31071601332E+03  0.12500000000E+03 0.  0.
          2    1    1    2  501    0  0.92620950135E+02 -0.13240359695E+02 -0.51399254112E+03  0.52243878096E+03  0.00000000000E+00 0.  1.
          2    1    1    2  502    0 -0.31060003095E+03 -0.10760849793E+03  0.18474803861E+03  0.37707267976E+03  0.00000000000E+00 0.  1.
<mgrwt>
<rscale>  0 0.16864889E+03</rscale>
<asrwt>0</asrwt>
<pdfrwt beam="1">  1        2 0.57220729E-01 0.30399400E+03</pdfrwt>
<pdfrwt beam="2">  1        2 0.12896811E+00 0.93562533E+02</pdfrwt>
<totfact> 0.46727564E+02</totfact>
</mgrwt>
</event>
<event>
 5    1  0.7156190E-003  0.6704713E+02  0.7546771E-02  0.1508985E+00
         -3   -1    0    0    0  501 -0.00000000000E+00  0.00000000000E+00  0.72894116316E+02  0.72894116316E+02  0.00000000000E+00 0.  1.
          1   -1    0    0  502    0  0.00000000000E+00 -0.00000000000E+00 -0.30722112611E+03  0.30722112611E+03  0.00000000000E+00 0. -1.
         25    1    1    2    0    0 -0.56002534430E+02 -0.36802062317E+01 -0.58748912014E+02  0.14908474920E+03  0.12500000000E+03 0.  0.
          1    1    1    2  502    0  0.66574339902E+02 -0.17574520941E+02 -0.19079103143E+03  0.20283546089E+03  0.00000000000E+00 0. -1.
         -3    1    1    2    0  501 -0.10571805471E+02  0.21254727173E+02  0.15212933653E+02  0.28195032336E+02  0.00000000000E+00 0.  1.
<mgrwt>
<rscale>  0 0.39895019E+02</rscale>
<asrwt>0</asrwt>
<pdfrwt beam="2">  1        1 0.47264790E-01 0.67047129E+02</pdfrwt>
<pdfrwt beam="1">  1       -3 0.11214479E-01 0.23738713E+02</pdfrwt>
<totfact> 0.21041138E+03</totfact>
</mgrwt>
</event>
<event>
 5    1  0.7156190E-003  0.4086070E+02  0.7546771E-02  0.1519378E+00
         -3   -1    0    0    0  502 -0.00000000000E+00  0.00000000000E+00  0.81088249666E+02  0.81088249666E+02  0.00000000000E+00 0.  1.
         -1   -1    0    0    0  501  0.00000000000E+00 -0.00000000000E+00 -0.41688039430E+03  0.41688039430E+03  0.00000000000E+00 0.  1.
         25    1    1    2    0    0 -0.33314819266E+02  0.68721266307E+02 -0.28021311698E+03  0.31619120885E+03  0.12500000000E+03 0.  0.
         -1    1    1    2    0  501  0.16475739527E+02 -0.32365112971E+02 -0.10906273548E+03  0.11495055807E+03  0.00000000000E+00 0.  1.
         -3    1    1    2    0  502  0.16839079739E+02 -0.36356153336E+02  0.53483707831E+02  0.66826877042E+02  0.00000000000E+00 0.  1.
<mgrwt>
<rscale>  0 0.38522107E+02</rscale>
<asrwt>0</asrwt>
<pdfrwt beam="2">  1       -1 0.64135445E-01 0.36317359E+02</pdfrwt>
<pdfrwt beam="1">  1       -3 0.12475115E-01 0.40860701E+02</pdfrwt>
<totfact> 0.51083243E+02</totfact>
</mgrwt>
</event>
<event>
 5    1  0.7156190E-003  0.6037157E+02  0.7546771E-02  0.1402242E+00
          1   -1    0    0  501    0  0.00000000000E+00  0.00000000000E+00  0.71965631906E+03  0.71965631906E+03  0.00000000000E+00 0. -1.
          3   -1    0    0  502    0 -0.00000000000E+00 -0.00000000000E+00 -0.71308993158E+02  0.71308993158E+02  0.00000000000E+00 0. -1.
         25    1    1    2    0    0 -0.72358363653E+02 -0.40926054292E+02  0.25611221956E+03  0.29686553137E+03  0.12500000000E+03 0.  0.
          1    1    1    2  501    0  0.58267670321E+02 -0.14907957343E+02  0.42406147621E+03  0.42830538662E+03  0.00000000000E+00 0. -1.
          3    1    1    2  502    0  0.14090693331E+02  0.55834011635E+02 -0.31826369864E+02  0.65794394233E+02  0.00000000000E+00 0. -1.
<mgrwt>
<rscale>  0 0.58961613E+02</rscale>
<asrwt>0</asrwt>
<pdfrwt beam="1">  1        1 0.11071635E+00 0.60371569E+02</pdfrwt>
<pdfrwt beam="2">  1        3 0.10970615E-01 0.57584586E+02</pdfrwt>
<totfact> 0.85942427E+02</totfact>
</mgrwt>
</event>
<event>
 5    1  0.7156190E-003  0.3403737E+02  0.7546771E-02  0.1568192E+00
         -1   -1    0    0    0  501 -0.00000000000E+00  0.00000000000E+00  0.38785067606E+02  0.38785067606E+02  0.00000000000E+00 0.  1.
          2   -1    0    0  502    0  0.00000000000E+00 -0.00000000000E+00 -0.29054789711E+03  0.29054789711E+03  0.00000000000E+00 0. -1.
         25    1    1    2    0    0 -0.87152919373E+01  0.35963090754E+00 -0.17929474117E+03  0.21874114807E+03  0.12500000000E+03 0.  0.
          2    1    1    2  502    0 -0.15900582494E+02  0.27514512295E+02 -0.65437257242E+02  0.72745525950E+02  0.00000000000E+00 0. -1.
         -1    1    1    2    0  501  0.24615874432E+02 -0.27874143202E+02 -0.70308310881E+01  0.37846290691E+02  0.00000000000E+00 0.  1.
<mgrwt>
<rscale>  0 0.32888579E+02</rscale>
<asrwt>0</asrwt>
<pdfrwt beam="2">  1        2 0.44699676E-01 0.31778561E+02</pdfrwt>
<pdfrwt beam="1">  1       -1 0.59669335E-02 0.34037370E+02</pdfrwt>
<totfact> 0.14016314E+04</totfact>
</mgrwt>
</event>
<event>
 5    1  0.7156190E-003  0.6452991E+02  0.7546771E-02  0.1492293E+00
         -2   -1    0    0    0  501  0.00000000000E+00  0.00000000000E+00  0.82951836206E+03  0.82951836206E+03  0.00000000000E+00 0.  1.
         -2   -1    0    0    0  502 -0.00000000000E+00 -0.00000000000E+00 -0.92242983490E+02  0.92242983490E+02  0.00000000000E+00 0.  1.
         25    1    1    2    0    0  0.70048521333E+02  0.32225867614E+02  0.14058250653E+03  0.20330701667E+03  0.12500000000E+03 0.  0.
         -2    1    1    2    0  502 -0.45371777529E+02 -0.44720489431E+02 -0.43834290154E+02  0.77330235771E+02  0.00000000000E+00 0.  1.
         -2    1    1    2    0  501 -0.24676743804E+02  0.12494621817E+02  0.64052716220E+03  0.64112409312E+03  0.00000000000E+00 0.  1.
<mgrwt>
<rscale>  0 0.42247792E+02</rscale>
<asrwt>0</asrwt>
<pdfrwt beam="1">  1       -2 0.12761820E+00 0.27659668E+02</pdfrwt>
<pdfrwt beam="2">  1       -2 0.14191229E-01 0.64529911E+02</pdfrwt>
<totfact> 0.11853548E+02</totfact>
</mgrwt>
</event>
<event>
 5    1  0.7156190E-003  0.3884209E+02  0.7546771E-02  0.1552308E+00
         -1   -1    0    0    0  501 -0.00000000000E+00  0.00000000000E+00  0.28992739442E+03  0.28992739442E+03  0.00000000000E+00 0.  1.
          2   -1    0    0  502    0  0.00000000000E+00 -0.00000000000E+00 -0.88836981759E+03  0.88836981759E+03  0.00000000000E+00 0. -1.
         25    1    1    2    0    0  0.50532698546E+02  0.10946458233E+02 -0.32213411398E+03  0.34938340825E+03  0.12500000000E+03 0.  0.
          2    1    1    2  502    0 -0.24855643712E+02  0.18182576783E+02 -0.55081453261E+03  0.55167477599E+03  0.00000000000E+00 0. -1.
         -1    1    1    2    0  501 -0.25677054833E+02 -0.29129035016E+02  0.27450622342E+03  0.27723902778E+03  0.00000000000E+00 0.  1.
<mgrwt>
<rscale>  0 0.34585989E+02</rscale>
<asrwt>0</asrwt>
<pdfrwt beam="2">  1        2 0.13667228E+00 0.30796252E+02</pdfrwt>
<pdfrwt beam="1">  1       -1 0.44604214E-01 0.38842085E+02</pdfrwt>
<totfact> 0.19844779E+02</totfact>
</mgrwt>
</event>
<event>
 5    1  0.7156190E-003  0.8286923E+02  0.7546771E-02  0.1465673E+00
          1   -1    0    0  502    0  0.00000000000E+00  0.00000000000E+00  0.17043720813E+04  0.17043720813E+04  0.00000000000E+00 0. -1.
         -2   -1    0    0    0  501 -0.00000000000E+00 -0.00000000000E+00 -0.13635685056E+02  0.13635685056E+02  0.00000000000E+00 0.  1.
         25    1    1    2    0    0  0.82961921034E+02  0.25577784943E+02  0.13230041913E+04  0.13317289490E+04  0.12500000000E+03 0.  0.
          1    1    1    2  502    0 -0.77589320124E+02 -0.13752072337E+00  0.17030505957E+03  0.18714682691E+03  0.00000000000E+00 0. -1.
         -2    1    1    2    0  501 -0.53726009105E+01 -0.25440264220E+02  0.19742714541E+03  0.19913199047E+03  0.00000000000E+00 0.  1.
<mgrwt>
<rscale>  0 0.46418903E+02</rscale>
<asrwt>0</asrwt>
<pdfrwt beam="1">  1        1 0.26221092E+00 0.82869231E+02</pdfrwt>
<pdfrwt beam="2">  1       -2 0.20977991E-02 0.26001382E+02</pdfrwt>
<totfact> 0.27176503E+03</totfact>
</mgrwt>
</event>
<event>
 5    1  0.7156190E-003  0.1334485E+03  0.7546771E-02  0.1341478E+00
          1   -1    0    0  502    0 -0.00000000000E+00  0.00000000000E+00  0.10878255046E+04  0.10878255046E+04  0.00000000000E+00 0. -1.
          2   -1    0    0  501    0  0.00000000000E+00 -0.00000000000E+00 -0.16970943651E+04  0.16970943651E+04  0.00000000000E+00 0. -1.
         25    1    1    2    0    0 -0.91370092373E+00 -0.11653804272E+03 -0.79095828922E+03  0.80921070528E+03  0.12500000000E+03 0.  0.
          2    1    1    2  501    0 -0.33829983900E+02  0.14192487615E+03 -0.89064270175E+03  0.90251402230E+03  0.00000000000E+00 0. -1.
          1    1    1    2  502    0  0.34743684824E+02 -0.25386833423E+02  0.10723321304E+04  0.10731951421E+04  0.00000000000E+00 0. -1.
<mgrwt>
<rscale>  0 0.75778243E+02</rscale>
<asrwt>0</asrwt>
<pdfrwt beam="2">  1        2 0.26109144E+00 0.13344851E+03</pdfrwt>
<pdfrwt beam="1">  1        1 0.16735777E+00 0.43030396E+02</pdfrwt>
<totfact> 0.24636524E+01</totfact>
</mgrwt>
</event>
<event>
 5    1  0.7156190E-003  0.1107315E+03  0.7546771E-02  0.1283833E+00
          2   -1    0    0  501    0  0.00000000000E+00  0.00000000000E+00  0.18959105329E+03  0.18959105329E+03  0.00000000000E+00 0. -1.
          1   -1    0    0  502    0 -0.00000000000E+00 -0.00000000000E+00 -0.21886703873E+04  0.21886703873E+04  0.00000000000E+00 0. -1.
         25    1    1    2    0    0  0.91535409690E+02 -0.24150424048E+02 -0.36583216209E+01  0.15684501116E+03  0.12500000000E+03 0.  0.
          2    1    1    2  501    0 -0.42601959144E+02 -0.76232919152E+02  0.94408403764E+02  0.12860533265E+03  0.00000000000E+00 0. -1.
          1    1    1    2  502    0 -0.48933450546E+02  0.10038334320E+03 -0.20898294162E+04  0.20928110968E+04  0.00000000000E+00 0. -1.
<mgrwt>
<rscale>  0 0.98336623E+02</rscale>
<asrwt>0</asrwt>
<pdfrwt beam="1">  1        2 0.29167855E-01 0.87329175E+02</pdfrwt>
<pdfrwt beam="2">  1        1 0.33671851E+00 0.11073151E+03</pdfrwt>
<totfact> 0.68589354E+01</totfact>
</mgrwt>
</event>
<event>
 5    1  0.7156190E-003  0.7592657E+02  0.7546771E-02  0.1407676E+00
          1   -1    0    0  502    0  0.00000000000E+00  0.00000000000E+00  0.37340930691E+04  0.37340930691E+04  0.00000000000E+00 0. -1.
         -3   -1    0    0    0  501 -0.00000000000E+00 -0.00000000000E+00 -0.52872521586E+02  0.52872521586E+02  0.00000000000E+00 0.  1.
         25    1    1    2    0    0 -0.16707599242E+02 -0.99487731105E+02  0.22989372501E+04  0.23045421308E+04  0.12500000000E+03 0.  0.
          1    1    1    2  502    0 -0.14167594301E+02  0.68318320501E+02  0.14217202266E+04  0.14234312475E+04  0.00000000000E+00 0. -1.
         -3    1    1    2    0  501  0.30875193542E+02  0.31169410604E+02 -0.39436929238E+02  0.58992212380E+02  0.00000000000E+00 0.  1.
<mgrwt>
<rscale>  0 0.57715684E+02</rscale>
<asrwt>0</asrwt>
<pdfrwt beam="1">  1        1 0.57447565E+00 0.75926571E+02</pdfrwt>
<pdfrwt beam="2">  1       -3 0.81342370E-02 0.43872654E+02</pdfrwt>
<totfact> 0.12321524E+01</totfact>
</mgrwt>
</event>
<event>
 5    1  0.7156190E-003  0.5630615E+02  0.7546771E-02  0.1478071E+00
          1   -1    0    0  502    0  0.00000000000E+00  0.00000000000E+00  0.22063648671E+03  0.22063648671E+03  0.00000000000E+00 0. -1.
         -2   -1    0    0    0  501 -0.00000000000E+00 -0.00000000000E+00 -0.81572966049E+02  0.81572966049E+02  0.00000000000E+00 0.  1.
         25    1    1    2    0    0  0.36282572576E+01 -0.68905472823E+02  0.22781709293E+02  0.14458608064E+03  0.12500000000E+03 0.  0.
          1    1    1    2  502    0  0.13398009201E+02  0.32360166000E+02  0.50514169672E+00  0.35027734186E+02  0.00000000000E+00 0. -1.
         -2    1    1    2    0  501 -0.17026266459E+02  0.36545306823E+02  0.11577666967E+03  0.12259563793E+03  0.00000000000E+00 0.  1.
<mgrwt>
<rscale>  0 0.44408014E+02</rscale>
<asrwt>0</asrwt>
<pdfrwt beam="1">  1        1 0.33944075E-01 0.35024092E+02</pdfrwt>
<pdfrwt beam="2">  1       -2 0.12549687E-01 0.56306150E+02</pdfrwt>
<totfact> 0.46316154E+03</totfact>
</mgrwt>
</event>
<event>
 5    1  0.7156190E-003  0.4692179E+02  0.7546771E-02  0.1502817E+00
          2   -1    0    0  501    0  0.00000000000E+00  0.00000000000E+00  0.26525994900E+03  0.26525994900E+03  0.00000000000E+00 0.  1.
          1   -1    0    0  502    0 -0.00000000000E+00 -0.00000000000E+00 -0.70119512669E+03  0.70119512669E+03  0.00000000000E+00 0. -1.
         25    1    1    2    0    0  0.12345639819E+02  0.74471667204E+02 -0.13123108845E+03  0.19632891436E+03  0.12500000000E+03 0.  0.
          2    1    1    2  501    0  0.83965376533E+01 -0.45813439644E+02  0.22978987942E+03  0.23446270872E+03  0.00000000000E+00 0.  1.
          1    1    1    2  502    0 -0.20742177472E+02 -0.28658227561E+02 -0.53449396865E+03  0.53566345261E+03  0.00000000000E+00 0. -1.
<mgrwt>
<rscale>  0 0.40742508E+02</rscale>
<asrwt>0</asrwt>
<pdfrwt beam="1">  1        2 0.40809224E-01 0.46921787E+02</pdfrwt>
<pdfrwt beam="2">  1        1 0.10787617E+00 0.35376997E+02</pdfrwt>
<totfact> 0.51169626E+02</totfact>
</mgrwt>
</event>
<event>
 5    1  0.7156190E-003  0.3742660E+02  0.7546771E-02  0.1612531E+00
         -1   -1    0    0    0  501 -0.00000000000E+00  0.00000000000E+00  0.81823766818E+02  0.81823766818E+02  0.00000000000E+00 0.  1.
          2   -1    0    0  502    0  0.00000000000E+00 -0.00000000000E+00 -0.16812791814E+03  0.16812791814E+03  0.00000000000E+00 0. -1.
         25    1    1    2    0    0 -0.22640312796E+02  0.22799785625E+02 -0.10118135832E+03  0.16399719894E+03  0.12500000000E+03 0.  0.
          2    1    1    2  502    0  0.16391473670E+02  0.14761777155E+02 -0.23264072798E+02  0.32059437877E+02  0.00000000000E+00 0. -1.
         -1    1    1    2    0  501  0.62488391258E+01 -0.37561562781E+02  0.38141279802E+02  0.53895048139E+02  0.00000000000E+00 0.  1.
<mgrwt>
<rscale>  0 0.28733008E+02</rscale>
<asrwt>0</asrwt>
<pdfrwt beam="2">  1        2 0.25865833E-01 0.22058796E+02</pdfrwt>
<pdfrwt beam="1">  1       -1 0.12588272E-01 0.37426600E+02</pdfrwt>
<totfact> 0.81872834E+03</totfact>
</mgrwt>
</event>
<event>
 5    1  0.7156190E-003  0.4794634E+02  0.7546771E-02  0.1517195E+00
         -1   -1    0    0    0  501 -0.00000000000E+00  0.00000000000E+00  0.19361321404E+03  0.19361321404E+03  0.00000000000E+00 0.  1.
          2   -1    0    0  502    0  0.00000000000E+00 -0.00000000000E+00 -0.67710250703E+02  0.67710250703E+02  0.00000000000E+00 0. -1.
         25    1    1    2    0    0 -0.39949411174E+02 -0.11172683849E+02  0.42698034918E+02  0.13845182015E+03  0.12500000000E+03 0.  0.
          2    1    1    2  502    0  0.54382357352E+02 -0.16720794574E+02  0.65720231959E+02  0.86926259847E+02  0.00000000000E+00 0. -1.
         -1    1    1    2    0  501 -0.14432946177E+02  0.27893478423E+02  0.17484696457E+02  0.35945384740E+02  0.00000000000E+00 0.  1.
<mgrwt>
<rscale>  0 0.38804862E+02</rscale>
<asrwt>0</asrwt>
<pdfrwt beam="2">  1        2 0.10416962E-01 0.47946336E+02</pdfrwt>
<pdfrwt beam="1">  1       -1 0.29786648E-01 0.31406306E+02</pdfrwt>
<totfact> 0.61541067E+03</totfact>
</mgrwt>
</event>
<event>
 5    1  0.7156190E-003  0.4063179E+02  0.7546771E-02  0.1572887E+00
          2   -1    0    0  502    0  0.00000000000E+00  0.00000000000E+00  0.37719523310E+03  0.37719523310E+03  0.00000000000E+00 0. -1.
         -1   -1    0    0    0  501 -0.00000000000E+00 -0.00000000000E+00 -0.29807723308E+02  0.29807723308E+02  0.00000000000E+00 0.  1.
         25    1    1    2    0    0  0.18785189403E+02 -0.96073946423E+01  0.29029828386E+03  0.31677007274E+03  0.12500000000E+03 0.  0.
          2    1    1    2  502    0  0.95025642032E+01 -0.24041098245E+02  0.19250543490E+02  0.32231297770E+02  0.00000000000E+00 0. -1.
         -1    1    1    2    0  501 -0.28287753606E+02  0.33648492887E+02  0.37838682446E+02  0.58001585900E+02  0.00000000000E+00 0.  1.
<mgrwt>
<rscale>  0 0.32409438E+02</rscale>
<asrwt>0</asrwt>
<pdfrwt beam="1">  1        2 0.58030033E-01 0.25850979E+02</pdfrwt>
<pdfrwt beam="2">  1       -1 0.45858038E-02 0.40631794E+02</pdfrwt>
<totfact> 0.16027619E+04</totfact>
</mgrwt>
</event>
<event>
 5    1  0.7156190E-003  0.1089368E+03  0.7546771E-02  0.1293516E+00
          2   -1    0    0  502    0  0.00000000000E+00  0.00000000000E+00  0.25589620830E+03  0.25589620830E+03  0.00000000000E+00 0. -1.
          2   -1    0    0  501    0 -0.00000000000E+00 -0.00000000000E+00 -0.11536382209E+04  0.11536382209E+04  0.00000000000E+00 0. -1.
         25    1    1    2    0    0  0.22251616573E+02  0.10804802358E+03 -0.40574222604E+03  0.43865848201E+03  0.12500000000E+03 0.  0.
          2    1    1    2  501    0  0.58303444473E+02 -0.99041477337E+02 -0.71988653287E+03  0.72900282996E+03  0.00000000000E+00 0. -1.
          2    1    1    2  502    0 -0.80555061046E+02 -0.90065462440E+01  0.22788674627E+03  0.24187311728E+03  0.00000000000E+00 0. -1.
<mgrwt>
<rscale>  0 0.93968558E+02</rscale>
<asrwt>0</asrwt>
<pdfrwt beam="1">  1        2 0.39368647E-01 0.81056991E+02</pdfrwt>
<pdfrwt beam="2">  1        2 0.17748281E+00 0.10893681E+03</pdfrwt>
<totfact> 0.44691556E+02</totfact>
</mgrwt>
</event>
<event>
 5    1  0.7156190E-003  0.1302501E+03  0.7546771E-02  0.1375913E+00
          2   -1    0    0  502    0  0.00000000000E+00  0.00000000000E+00  0.31464285395E+03  0.31464285395E+03  0.00000000000E+00 0. -1.
          2   -1    0    0  501    0 -0.00000000000E+00 -0.00000000000E+00 -0.19593008964E+03  0.19593008964E+03  0.00000000000E+00 0. -1.
         25    1    1    2    0    0 -0.72356933595E+02 -0.94664260178E+02  0.12163826056E+03  0.21122905677E+03  0.12500000000E+03 0.  0.
          2    1    1    2  501    0  0.53285966184E+02  0.12158254579E+03 -0.11924261628E+03  0.17843909653E+03  0.00000000000E+00 0. -1.
          2    1    1    2  502    0  0.19070967411E+02 -0.26918285615E+02  0.11631712004E+03  0.12090479028E+03  0.00000000000E+00 0. -1.
<mgrwt>
<rscale>  0 0.65550469E+02</rscale>
<asrwt>0</asrwt>
<pdfrwt beam="1">  1        2 0.48406593E-01 0.32989330E+02</pdfrwt>
<pdfrwt beam="2">  1        2 0.30143091E-01 0.13025011E+03</pdfrwt>
<totfact> 0.27172391E+03</totfact>
</mgrwt>
</event>
<event>
 5    1  0.7156190E-003  0.5368888E+02  0.7546771E-02  0.1541600E+00
         -1   -1    0    0    0  501  0.00000000000E+00  0.00000000000E+00  0.24115220442E+02  0.24115220442E+02  0.00000000000E+00 0.  1.
         -1   -1    0    0    0  502 -0.00000000000E+00 -0.00000000000E+00 -0.16023341258E+04  0.16023341258E+04  0.00000000000E+00 0.  1.
         25    1    1    2    0    0  0.33988503567E+02 -0.16063736811E+02 -0.41919382344E+03  0.43904637981E+03  0.12500000000E+03 0.  0.
         -1    1    1    2    0  502  0.60970052975E+01 -0.23081274592E+02 -0.11172746344E+04  0.11175296539E+04  0.00000000000E+00 0.  1.
         -1    1    1    2    0  501 -0.40085508865E+02  0.39145011403E+02 -0.41750447608E+02  0.69873312603E+02  0.00000000000E+00 0.  1.
<mgrwt>
<rscale>  0 0.35801022E+02</rscale>
<asrwt>0</asrwt>
<pdfrwt beam="1">  1       -1 0.37100314E-02 0.53688885E+02</pdfrwt>
<pdfrwt beam="2">  1       -1 0.24651311E+00 0.23872970E+02</pdfrwt>
<totfact> 0.21229377E+02</totfact>
</mgrwt>
</event>
<event>
 5    1  0.7156190E-003  0.2051952E+03  0.7546771E-02  0.1254535E+00
          1   -1    0    0  502    0  0.00000000000E+00  0.00000000000E+00  0.29717880617E+03  0.29717880617E+03  0.00000000000E+00 0. -1.
          1   -1    0    0  501    0 -0.00000000000E+00 -0.00000000000E+00 -0.12854967991E+04  0.12854967991E+04  0.00000000000E+00 0. -1.
         25    1    1    2    0    0  0.22432840756E+03 -0.21170849377E+02 -0.53736127658E+03  0.59594763265E+03  0.12500000000E+03 0.  0.
          1    1    1    2  501    0 -0.33789622101E+02 -0.52681152179E+02 -0.67821973960E+03  0.68110135629E+03  0.00000000000E+00 0. -1.
          1    1    1    2  502    0 -0.19053878546E+03  0.73852001555E+02  0.22726302323E+03  0.30562661636E+03  0.00000000000E+00 0. -1.
<mgrwt>
<rscale>  0 0.11332432E+03</rscale>
<asrwt>0</asrwt>
<pdfrwt beam="1">  1        1 0.45719816E-01 0.20519518E+03</pdfrwt>
<pdfrwt beam="2">  1        1 0.19776874E+00 0.62586279E+02</pdfrwt>
<totfact> 0.12003625E+02</totfact>
</mgrwt>
</event>
<event>
 5    1  0.7156190E-003  0.9055252E+02  0.7546771E-02  0.1341987E+00
          2   -1    0    0  501    0  0.00000000000E+00  0.00000000000E+00  0.98456271590E+03  0.98456271590E+03  0.00000000000E+00 0.  1.
          2   -1    0    0  502    0 -0.00000000000E+00 -0.00000000000E+00 -0.12915448614E+03  0.12915448614E+03  0.00000000000E+00 0. -1.
         25    1    1    2    0    0  0.75834006626E+02 -0.72770011156E+02  0.14688378406E+03  0.21964998772E+03  0.12500000000E+03 0.  0.
          2    1    1    2  501    0 -0.90194234509E+02  0.11288871176E+02  0.78762864915E+03  0.79285643563E+03  0.00000000000E+00 0.  1.
          2    1    1    2  502    0  0.14360227884E+02  0.61481139980E+02 -0.79104203456E+02  0.10121077869E+03  0.00000000000E+00 0. -1.
<mgrwt>
<rscale>  0 0.75611628E+02</rscale>
<asrwt>0</asrwt>
<pdfrwt beam="1">  1        2 0.15147118E+00 0.90552518E+02</pdfrwt>
<pdfrwt beam="2">  1        2 0.19869922E-01 0.63135938E+02</pdfrwt>
<totfact> 0.11643846E+03</totfact>
</mgrwt>
</event>
<event>
 5    1  0.7156190E-003  0.1228497E+03  0.7546771E-02  0.1323431E+00
          1   -1    0    0  502    0  0.00000000000E+00  0.00000000000E+00  0.13414959387E+04  0.13414959387E+04  0.00000000000E+00 0. -1.
          1   -1    0    0  501    0 -0.00000000000E+00 -0.00000000000E+00 -0.88053205919E+03  0.88053205919E+03  0.00000000000E+00 0. -1.
         25    1    1    2    0    0  0.65955789634E+01 -0.11071164506E+03 -0.30854986972E+03  0.35089683971E+03  0.12500000000E+03 0.  0.
          1    1    1    2  501    0  0.54609249348E+02  0.39586725609E+01 -0.54657080377E+03  0.54930636692E+03  0.00000000000E+00 0. -1.
          1    1    1    2  502    0 -0.61204828311E+02  0.10675297250E+03  0.13160845530E+04  0.13218247912E+04  0.00000000000E+00 0. -1.
<mgrwt>
<rscale>  0 0.82014243E+02</rscale>
<asrwt>0</asrwt>
<pdfrwt beam="1">  1        1 0.20638399E+00 0.12284974E+03</pdfrwt>
<pdfrwt beam="2">  1        1 0.13546647E+00 0.54752545E+02</pdfrwt>
<totfact> 0.25542337E+01</totfact>
</mgrwt>
</event>
<event>
 5    1  0.7156190E-003  0.6956191E+02  0.7546771E-02  0.1437127E+00
          1   -1    0    0  502    0  0.00000000000E+00  0.00000000000E+00  0.10592489805E+03  0.10592489805E+03  0.00000000000E+00 0. -1.
          1   -1    0    0  501    0 -0.00000000000E+00 -0.00000000000E+00 -0.81979435586E+03  0.81979435586E+03  0.00000000000E+00 0. -1.
         25    1    1    2    0    0 -0.43407220861E+02 -0.37361267591E+02 -0.30058501377E+03  0.33053956138E+03  0.12500000000E+03 0.  0.
          1    1    1    2  501    0  0.22665593575E+02  0.69452119843E+02 -0.49742922134E+03  0.50276550829E+03  0.00000000000E+00 0. -1.
          1    1    1    2  502    0  0.20741627286E+02 -0.32090852253E+02  0.84144777298E+02  0.92414184232E+02  0.00000000000E+00 0. -1.
<mgrwt>
<rscale>  0 0.51555712E+02</rscale>
<asrwt>0</asrwt>
<pdfrwt beam="1">  1        1 0.16296138E-01 0.38210442E+02</pdfrwt>
<pdfrwt beam="2">  1        1 0.12612221E+00 0.69561913E+02</pdfrwt>
<totfact> 0.86935778E+02</totfact>
</mgrwt>
</event>
<event>
 5    1  0.7156190E-003  0.5033826E+02  0.7546771E-02  0.1461499E+00
         -1   -1    0    0    0  501 -0.00000000000E+00  0.00000000000E+00  0.74043069389E+02  0.74043069389E+02  0.00000000000E+00 0.  1.
          1   -1    0    0  502    0  0.00000000000E+00 -0.00000000000E+00 -0.18030965027E+04  0.18030965027E+04  0.00000000000E+00 0. -1.
         25    1    1    2    0    0 -0.49516985105E+02 -0.81938039303E+01 -0.32223681156E+03  0.34925725900E+03  0.12500000000E+03 0.  0.
          1    1    1    2  502    0  0.24910617023E+02 -0.36409663649E+02 -0.14562388760E+04  0.14569069519E+04  0.00000000000E+00 0. -1.
         -1    1    1    2    0  501  0.24606368083E+02  0.44603467579E+02  0.49422254310E+02  0.70975361157E+02  0.00000000000E+00 0.  1.
<mgrwt>
<rscale>  0 0.47124429E+02</rscale>
<asrwt>0</asrwt>
<pdfrwt beam="2">  1        1 0.27739946E+00 0.44115785E+02</pdfrwt>
<pdfrwt beam="1">  1       -1 0.11391241E-01 0.50338259E+02</pdfrwt>
<totfact> 0.25110592E+02</totfact>
</mgrwt>
</event>
<event>
 5    1  0.7156190E-003  0.1831339E+03  0.7546771E-02  0.1185828E+00
          2   -1    0    0  502    0  0.00000000000E+00  0.00000000000E+00  0.10597122694E+04  0.10597122694E+04  0.00000000000E+00 0. -1.
         -1   -1    0    0    0  501 -0.00000000000E+00 -0.00000000000E+00 -0.54618854532E+03  0.54618854532E+03  0.00000000000E+00 0.  1.
         25    1    1    2    0    0 -0.15900601401E+03 -0.42891883139E+01  0.33668954956E+03  0.39279277286E+03  0.12500000000E+03 0.  0.
          2    1    1    2  502    0  0.16357893283E+03 -0.13995010512E+03  0.66765916197E+03  0.70150755930E+03  0.00000000000E+00 0. -1.
         -1    1    1    2    0  501 -0.45729188180E+01  0.14423929343E+03 -0.49082498750E+03  0.51160048251E+03  0.00000000000E+00 0.  1.
<mgrwt>
<rscale>  0 0.16256805E+03</rscale>
<asrwt>0</asrwt>
<pdfrwt beam="1">  1        2 0.16303266E+00 0.18313387E+03</pdfrwt>
<pdfrwt beam="2">  1       -1 0.84029007E-01 0.14431176E+03</pdfrwt>
<totfact> 0.42832974E+01</totfact>
</mgrwt>
</event>
<event>
 5    1  0.7156190E-003  0.6931290E+02  0.7546771E-02  0.1393661E+00
          2   -1    0    0  502    0  0.00000000000E+00  0.00000000000E+00  0.53478037158E+02  0.53478037158E+02  0.00000000000E+00 0. -1.
         -2   -1    0    0    0  501 -0.00000000000E+00 -0.00000000000E+00 -0.35950437093E+03  0.35950437093E+03  0.00000000000E+00 0.  1.
         25    1    1    2    0    0 -0.77015876266E+02 -0.24981477483E+02 -0.20852396704E+03  0.25624746680E+03  0.12500000000E+03 0.  0.
          2    1    1    2  502    0  0.13492245240E+02  0.51970464839E+02 -0.43215605390E+02  0.68924295038E+02  0.00000000000E+00 0. -1.
         -2    1    1    2    0  501  0.63523631026E+02 -0.26988987357E+02 -0.54286761348E+02  0.87810646250E+02  0.00000000000E+00 0.  1.
<mgrwt>
<rscale>  0 0.61005231E+02</rscale>
<asrwt>0</asrwt>
<pdfrwt beam="1">  1        2 0.82273901E-02 0.53693295E+02</pdfrwt>
<pdfrwt beam="2">  1       -2 0.55308366E-01 0.69312904E+02</pdfrwt>
<totfact> 0.23127787E+03</totfact>
</mgrwt>
</event>
<event>
 5    1  0.7156190E-003  0.1672872E+03  0.7546771E-02  0.1288066E+00
          2   -1    0    0  501    0  0.00000000000E+00  0.00000000000E+00  0.13310025838E+04  0.13310025838E+04  0.00000000000E+00 0. -1.
          2   -1    0    0  502    0 -0.00000000000E+00 -0.00000000000E+00 -0.61120878270E+03  0.61120878270E+03  0.00000000000E+00 0. -1.
         25    1    1    2    0    0  0.17989184738E+03 -0.84629056643E+02  0.19566620060E+03  0.30566880122E+03  0.12500000000E+03 0.  0.
          2    1    1    2  501    0 -0.16105900589E+03  0.32374991842E+02  0.10726791830E+04  0.10851860546E+04  0.00000000000E+00 0. -1.
          2    1    1    2  502    0 -0.18832841490E+02  0.52254064801E+02 -0.54855158249E+03  0.55135651067E+03  0.00000000000E+00 0. -1.
<mgrwt>
<rscale>  0 0.96394211E+02</rscale>
<asrwt>0</asrwt>
<pdfrwt beam="1">  1        2 0.20476963E+00 0.16728725E+03</pdfrwt>
<pdfrwt beam="2">  1        2 0.94032121E-01 0.55544245E+02</pdfrwt>
<totfact> 0.13947816E+02</totfact>
</mgrwt>
</event>
<event>
 5    1  0.7156190E-003  0.4647261E+02  0.7546771E-02  0.1563010E+00
          2   -1    0    0  502    0  0.00000000000E+00  0.00000000000E+00  0.15076188558E+04  0.15076188558E+04  0.00000000000E+00 0. -1.
         -1   -1    0    0    0  501 -0.00000000000E+00 -0.00000000000E+00 -0.91100129909E+01  0.91100129909E+01  0.00000000000E+00 0.  1.
         25    1    1    2    0    0 -0.59483051842E+01 -0.45301809906E+02  0.66765459162E+03  0.68079019530E+03  0.12500000000E+03 0.  0.
          2    1    1    2  502    0 -0.23132651627E+02  0.65661368776E+01  0.57722621453E+03  0.57772687012E+03  0.00000000000E+00 0. -1.
         -1    1    1    2    0  501  0.29080956811E+02  0.38735673028E+02  0.25362803670E+03  0.25821180340E+03  0.00000000000E+00 0.  1.
<mgrwt>
<rscale>  0 0.33429078E+02</rscale>
<asrwt>0</asrwt>
<pdfrwt beam="1">  1        2 0.23194116E+00 0.24046491E+02</pdfrwt>
<pdfrwt beam="2">  1       -1 0.14015417E-02 0.46472612E+02</pdfrwt>
<totfact> 0.16886115E+04</totfact>
</mgrwt>
</event>
<event>
 5    1  0.7156190E-003  0.5146261E+02  0.7546771E-02  0.1460599E+00
         -1   -1    0    0    0  501 -0.00000000000E+00  0.00000000000E+00  0.24958983293E+02  0.24958983293E+02  0.00000000000E+00 0.  1.
          2   -1    0    0  502    0  0.00000000000E+00 -0.00000000000E+00 -0.21291420754E+04  0.21291420754E+04  0.00000000000E+00 0. -1.
         25    1    1    2    0    0  0.10014924001E+02  0.17117461430E+02 -0.74361209369E+03  0.75430580806E+03  0.12500000000E+03 0.  0.
          2    1    1    2  502    0 -0.28149252577E+02  0.33078314805E+02 -0.13428600056E+04  0.13435622613E+04  0.00000000000E+00 0. -1.
         -1    1    1    2    0  501  0.18134328576E+02 -0.50195776235E+02 -0.17710992830E+02  0.56232989354E+02  0.00000000000E+00 0.  1.
<mgrwt>
<rscale>  0 0.47278457E+02</rscale>
<asrwt>0</asrwt>
<pdfrwt beam="2">  1        2 0.32756021E+00 0.43434495E+02</pdfrwt>
<pdfrwt beam="1">  1       -1 0.38398448E-02 0.51462611E+02</pdfrwt>
<totfact> 0.19693317E+03</totfact>
</mgrwt>
</event>
<event>
 5    1  0.7156190E-003  0.5619190E+02  0.7546771E-02  0.1505550E+00
         -1   -1    0    0    0  501  0.00000000000E+00  0.00000000000E+00  0.90792824867E+03  0.90792824867E+03  0.00000000000E+00 0.  1.
         -1   -1    0    0    0  502 -0.00000000000E+00 -0.00000000000E+00 -0.17366525116E+04  0.17366525116E+04  0.00000000000E+00 0.  1.
         25    1    1    2    0    0  0.33205391284E+02  0.22517388662E+01 -0.24310287190E+03  0.27537551573E+03  0.12500000000E+03 0.  0.
         -1    1    1    2    0  501 -0.49957191531E+02 -0.25917186237E+02  0.89076150733E+03  0.89253766557E+03  0.00000000000E+00 0.  1.
         -1    1    1    2    0  502  0.16751800247E+02  0.23665447371E+02 -0.14763828984E+04  0.14766675790E+04  0.00000000000E+00 0.  1.
<mgrwt>
<rscale>  0 0.40363985E+02</rscale>
<asrwt>0</asrwt>
<pdfrwt beam="1">  1       -1 0.13968127E+00 0.56191896E+02</pdfrwt>
<pdfrwt beam="2">  1       -1 0.26717731E+00 0.28994417E+02</pdfrwt>
<totfact> 0.34354511E-01</totfact>
</mgrwt>
</event>
<event>
 5    1  0.7156190E-003  0.7975089E+02  0.7546771E-02  0.1416798E+00
          1   -1    0    0  502    0  0.00000000000E+00  0.00000000000E+00  0.19179501878E+03  0.19179501878E+03  0.00000000000E+00 0. -1.
          1   -1    0    0  501    0 -0.00000000000E+00 -0.00000000000E+00 -0.20353441668E+04  0.20353441668E+04  0.00000000000E+00 0. -1.
         25    1    1    2    0    0  0.65660658601E+01 -0.49034674625E+02 -0.15087067826E+04  0.15146843461E+04  0.12500000000E+03 0.  0.
          1    1    1    2  501    0 -0.26657457309E+02 -0.28340945091E+02 -0.51441898230E+03  0.51588828107E+03  0.00000000000E+00 0. -1.
          1    1    1    2  502    0  0.20091391449E+02  0.77375619717E+02  0.17957661689E+03  0.19656655837E+03  0.00000000000E+00 0. -1.
<mgrwt>
<rscale>  0 0.55704076E+02</rscale>
<asrwt>0</asrwt>
<pdfrwt beam="1">  1        1 0.29506926E-01 0.79750886E+02</pdfrwt>
<pdfrwt beam="2">  1        1 0.31312987E+00 0.38907958E+02</pdfrwt>
<totfact> 0.74291658E+01</totfact>
</mgrwt>
</event>
<event>
 5    1  0.9381656E-003  0.1012447E+03  0.7546771E-02  0.1397766E+00
          2   -1    0    0  502    0  0.00000000000E+00  0.00000000000E+00  0.38417504843E+04  0.38417504843E+04  0.00000000000E+00 0. -1.
         -2   -1    0    0    0  501 -0.00000000000E+00 -0.00000000000E+00 -0.59463855758E+01  0.59463855758E+01  0.00000000000E+00 0.  1.
         25    1    1    2    0    0 -0.98571648883E+02 -0.35734540132E+02  0.21448612928E+04  0.21510574824E+04  0.12500000000E+03 0.  0.
          2    1    1    2  502    0 -0.27680338852E+01  0.35468285685E+02  0.32464684976E+03  0.32659032190E+03  0.00000000000E+00 0. -1.
         -2    1    1    2    0  501  0.10133968277E+03  0.26625444716E+00  0.13662959562E+04  0.13700490656E+04  0.00000000000E+00 0.  1.
<mgrwt>
<rscale>  0 0.60015779E+02</rscale>
<asrwt>0</asrwt>
<pdfrwt beam="1">  1        2 0.59103655E+00 0.35576134E+02</pdfrwt>
<pdfrwt beam="2">  1       -2 0.91483162E-03 0.10124467E+03</pdfrwt>
<totfact> 0.18931498E+03</totfact>
</mgrwt>
</event>
<event>
 5    1  0.7156190E-003  0.1269612E+03  0.7546771E-02  0.1316044E+00
         -3   -1    0    0    0  501 -0.00000000000E+00  0.00000000000E+00  0.51080322977E+03  0.51080322977E+03  0.00000000000E+00 0.  1.
          1   -1    0    0  502    0  0.00000000000E+00 -0.00000000000E+00 -0.23332776620E+03  0.23332776620E+03  0.00000000000E+00 0. -1.
         25    1    1    2    0    0 -0.48029787050E+02  0.15473870558E+03  0.62415992466E+02  0.21394317836E+03  0.12500000000E+03 0.  0.
          1    1    1    2  502    0  0.67312975728E+02 -0.10153019136E+03 -0.13137476489E+03  0.17916122713E+03  0.00000000000E+00 0. -1.
         -3    1    1    2    0  501 -0.19283188678E+02 -0.53208514222E+02  0.34643423600E+03  0.35102659048E+03  0.00000000000E+00 0.  1.
<mgrwt>
<rscale>  0 0.84766520E+02</rscale>
<asrwt>0</asrwt>
<pdfrwt beam="2">  1        1 0.35896579E-01 0.12696122E+03</pdfrwt>
<pdfrwt beam="1">  1       -3 0.78585112E-01 0.56594941E+02</pdfrwt>
<totfact> 0.96684597E+01</totfact>
</mgrwt>
</event>
<event>
 5    1  0.7156190E-003  0.1063709E+03  0.7546771E-02  0.1273732E+00
          2   -1    0    0  502    0  0.00000000000E+00  0.00000000000E+00  0.23774834107E+04  0.23774834107E+04  0.00000000000E+00 0. -1.
         -3   -1    0    0    0  501 -0.00000000000E+00 -0.00000000000E+00 -0.17273219224E+03  0.17273219224E+03  0.00000000000E+00 0. -1.
         25    1    1    2    0    0  0.18433264932E+03 -0.42146637368E+02  0.22621351000E+03  0.32023806262E+03  0.12500000000E+03 0.  0.
          2    1    1    2  502    0 -0.84144127506E+02  0.54219214364E+02  0.20826096591E+04  0.20850138968E+04  0.00000000000E+00 0. -1.
         -3    1    1    2    0  501 -0.10018852181E+03 -0.12072576996E+02 -0.10407195070E+03  0.14496364352E+03  0.00000000000E+00 0. -1.
<mgrwt>
<rscale>  0 0.10318769E+03</rscale>
<asrwt>0</asrwt>
<pdfrwt beam="1">  1        2 0.36576665E+00 0.10009974E+03</pdfrwt>
<pdfrwt beam="2">  1       -3 0.26574185E-01 0.10637090E+03</pdfrwt>
<totfact> 0.42111179E+01</totfact>
</mgrwt>
</event>
<event>
 5    1  0.7156190E-003  0.6363948E+02  0.7546771E-02  0.1511683E+00
          2   -1    0    0  502    0  0.00000000000E+00  0.00000000000E+00  0.34575289631E+03  0.34575289631E+03  0.00000000000E+00 0. -1.
         -1   -1    0    0    0  501 -0.00000000000E+00 -0.00000000000E+00 -0.41103506461E+02  0.41103506461E+02  0.00000000000E+00 0.  1.
         25    1    1    2    0    0  0.44980757339E+02  0.10641683314E+02  0.11661513916E+03  0.17708925613E+03  0.12500000000E+03 0.  0.
          2    1    1    2  502    0 -0.68208966620E+02 -0.26734461609E+01  0.14359830318E+03  0.15899711669E+03  0.00000000000E+00 0. -1.
         -1    1    1    2    0  501  0.23228209282E+02 -0.79682371535E+01  0.44435947515E+02  0.50770029952E+02  0.00000000000E+00 0.  1.
<mgrwt>
<rscale>  0 0.39532138E+02</rscale>
<asrwt>0</asrwt>
<pdfrwt beam="1">  1        2 0.53192751E-01 0.63639483E+02</pdfrwt>
<pdfrwt beam="2">  1       -1 0.63236166E-02 0.24556924E+02</pdfrwt>
<totfact> 0.10468867E+04</totfact>
</mgrwt>
</event>
<event>
 5    1  0.7156190E-003  0.5508625E+02  0.7546771E-02  0.1443136E+00
          2   -1    0    0  501    0  0.00000000000E+00  0.00000000000E+00  0.95730684027E+03  0.95730684027E+03  0.00000000000E+00 0. -1.
          2   -1    0    0  502    0 -0.00000000000E+00 -0.00000000000E+00 -0.11206870505E+04  0.11206870505E+04  0.00000000000E+00 0.  1.
         25    1    1    2    0    0  0.60282863466E+02  0.55266337681E+02 -0.60635807775E+03  0.62448659727E+03  0.12500000000E+03 0.  0.
          2    1    1    2  501    0 -0.45890929735E+02 -0.47197780222E+01  0.94631249224E+03  0.94743632330E+03  0.00000000000E+00 0. -1.
          2    1    1    2  502    0 -0.14391933730E+02 -0.50546559659E+02 -0.50333462467E+03  0.50607097016E+03  0.00000000000E+00 0.  1.
<mgrwt>
<rscale>  0 0.50411248E+02</rscale>
<asrwt>0</asrwt>
<pdfrwt beam="1">  1        2 0.14727798E+00 0.46133001E+02</pdfrwt>
<pdfrwt beam="2">  1        2 0.17241339E+00 0.55086249E+02</pdfrwt>
<totfact> 0.11579994E+02</totfact>
</mgrwt>
</event>
<event>
 5    1  0.7156190E-003  0.7185737E+02  0.7546771E-02  0.1384053E+00
          2   -1    0    0  502    0  0.00000000000E+00  0.00000000000E+00  0.24568707239E+03  0.24568707239E+03  0.00000000000E+00 0. -1.
         -2   -1    0    0    0  501 -0.00000000000E+00 -0.00000000000E+00 -0.14036458940E+03  0.14036458940E+03  0.00000000000E+00 0.  1.
         25    1    1    2    0    0  0.15041691707E+02  0.87828979098E+02 -0.65067100465E+02  0.16673005015E+03  0.12500000000E+03 0.  0.
          2    1    1    2  502    0  0.31679199637E+02 -0.46125140171E+02  0.13779028053E+03  0.14871873336E+03  0.00000000000E+00 0. -1.
         -2    1    1    2    0  501 -0.46720891344E+02 -0.41703838927E+02  0.32599302929E+02  0.70602878274E+02  0.00000000000E+00 0.  1.
<mgrwt>
<rscale>  0 0.63410312E+02</rscale>
<asrwt>0</asrwt>
<pdfrwt beam="1">  1        2 0.37798011E-01 0.55956235E+02</pdfrwt>
<pdfrwt beam="2">  1       -2 0.21594552E-01 0.71857366E+02</pdfrwt>
<totfact> 0.23447300E+03</totfact>
</mgrwt>
</event>
<event>
 5    1  0.7156190E-003  0.6150866E+02  0.7546771E-02  0.1393903E+00
          1   -1    0    0  501    0  0.00000000000E+00  0.00000000000E+00  0.67250996739E+03  0.67250996739E+03  0.00000000000E+00 0. -1.
          3   -1    0    0  502    0 -0.00000000000E+00 -0.00000000000E+00 -0.86641130694E+02  0.86641130694E+02  0.00000000000E+00 0. -1.
         25    1    1    2    0    0  0.19193981858E+02  0.13221433896E+01  0.15100694857E+03  0.19697272786E+03  0.12500000000E+03 0.  0.
          1    1    1    2  501    0  0.16170114282E+02 -0.58183740570E+02  0.47847195742E+03  0.48226780351E+03  0.00000000000E+00 0. -1.
          3    1    1    2  502    0 -0.35364096140E+02  0.56861597181E+02 -0.43610069294E+02  0.79910566721E+02  0.00000000000E+00 0. -1.
<mgrwt>
<rscale>  0 0.60946213E+02</rscale>
<asrwt>0</asrwt>
<pdfrwt beam="1">  1        1 0.10346307E+00 0.60388908E+02</pdfrwt>
<pdfrwt beam="2">  1        3 0.13329405E-01 0.61508660E+02</pdfrwt>
<totfact> 0.69118920E+02</totfact>
</mgrwt>
</event>
<event>
 5    1  0.7156190E-003  0.4443117E+02  0.7546771E-02  0.1495878E+00
         -2   -1    0    0    0  501 -0.00000000000E+00  0.00000000000E+00  0.19244885495E+02  0.19244885495E+02  0.00000000000E+00 0.  1.
          1   -1    0    0  502    0  0.00000000000E+00 -0.00000000000E+00 -0.65004903962E+03  0.65004903962E+03  0.00000000000E+00 0. -1.
         25    1    1    2    0    0  0.38220840080E+02  0.18897591646E+02 -0.36669441456E+03  0.38975344162E+03  0.12500000000E+03 0.  0.
          1    1    1    2  502    0 -0.46253072191E+02  0.19456694415E+02 -0.11711248938E+03  0.12740975164E+03  0.00000000000E+00 0. -1.
         -2    1    1    2    0  501  0.80322321108E+01 -0.38354286062E+02 -0.14699725019E+03  0.15213073186E+03  0.00000000000E+00 0.  1.
<mgrwt>
<rscale>  0 0.41726422E+02</rscale>
<asrwt>0</asrwt>
<pdfrwt beam="2">  1        1 0.10000753E+00 0.44431171E+02</pdfrwt>
<pdfrwt beam="1">  1       -2 0.29607520E-02 0.39186324E+02</pdfrwt>
<totfact> 0.10133928E+04</totfact>
</mgrwt>
</event>
<event>
 5    1  0.7156190E-003  0.5775744E+02  0.7546771E-02  0.1545507E+00
         -1   -1    0    0    0  501 -0.00000000000E+00  0.00000000000E+00  0.66094969999E+01  0.66094969999E+01  0.00000000000E+00 0.  1.
          2   -1    0    0  502    0  0.00000000000E+00 -0.00000000000E+00 -0.19047292340E+04  0.19047292340E+04  0.00000000000E+00 0. -1.
         25    1    1    2    0    0  0.40869346380E+02 -0.12652850700E+02 -0.10914890658E+04  0.10994561287E+04  0.12500000000E+03 0.  0.
          2    1    1    2  502    0  0.21632528402E+02 -0.42865953441E+00 -0.36715510020E+03  0.36779208479E+03  0.00000000000E+00 0. -1.
         -1    1    1    2    0  501 -0.62501874782E+02  0.13081510235E+02 -0.43947557094E+03  0.44409051748E+03  0.00000000000E+00 0.  1.
<mgrwt>
<rscale>  0 0.35350881E+02</rscale>
<asrwt>0</asrwt>
<pdfrwt beam="2">  1        2 0.29303554E+00 0.21636775E+02</pdfrwt>
<pdfrwt beam="1">  1       -1 0.10168447E-02 0.57757444E+02</pdfrwt>
<totfact> 0.18128909E+04</totfact>
</mgrwt>
</event>
<event>
 5    1  0.7156190E-003  0.1862529E+03  0.7546771E-02  0.1216254E+00
         -2   -1    0    0    0  501 -0.00000000000E+00  0.00000000000E+00  0.13915312789E+03  0.13915312789E+03  0.00000000000E+00 0. -1.
          2   -1    0    0  502    0  0.00000000000E+00 -0.00000000000E+00 -0.24261500025E+04  0.24261500025E+04  0.00000000000E+00 0. -1.
         25    1    1    2    0    0 -0.23023484004E+03  0.21960033632E+02 -0.11400216403E+04  0.11699421631E+04  0.12500000000E+03 0.  0.
          2    1    1    2  502    0  0.71551856203E+02  0.72726733294E+02 -0.11990459495E+04  0.12033785917E+04  0.00000000000E+00 0. -1.
         -2    1    1    2    0  501  0.15868298383E+03 -0.94686766925E+02  0.52070715146E+02  0.19198237566E+03  0.00000000000E+00 0. -1.
<mgrwt>
<rscale>  0 0.13784853E+03</rscale>
<asrwt>0</asrwt>
<pdfrwt beam="2">  1        2 0.37325386E+00 0.10202375E+03</pdfrwt>
<pdfrwt beam="1">  1       -2 0.21408173E-01 0.18625287E+03</pdfrwt>
<totfact> 0.92593758E+01</totfact>
</mgrwt>
</event>
<event>
 5    1  0.7156190E-003  0.1547471E+03  0.7546771E-02  0.1212798E+00
         -2   -1    0    0    0  501 -0.00000000000E+00  0.00000000000E+00  0.22564125064E+03  0.22564125064E+03  0.00000000000E+00 0.  1.
          2   -1    0    0  502    0  0.00000000000E+00 -0.00000000000E+00 -0.15789482068E+04  0.15789482068E+04  0.00000000000E+00 0. -1.
         25    1    1    2    0    0  0.12481032258E+03 -0.88825569809E+02 -0.24377457052E+03  0.31387679065E+03  0.12500000000E+03 0.  0.
          2    1    1    2  502    0 -0.15782208302E+03 -0.34197304127E+02 -0.12731554043E+04  0.12833557375E+04  0.00000000000E+00 0. -1.
         -2    1    1    2    0  501  0.33011760442E+02  0.12302287394E+03  0.16362301873E+03  0.20735692922E+03  0.00000000000E+00 0.  1.
<mgrwt>
<rscale>  0 0.14039559E+03</rscale>
<asrwt>0</asrwt>
<pdfrwt beam="2">  1        2 0.24291510E+00 0.15474712E+03</pdfrwt>
<pdfrwt beam="1">  1       -2 0.34714039E-01 0.12737505E+03</pdfrwt>
<totfact> 0.10145878E+02</totfact>
</mgrwt>
</event>
<event>
 5    1  0.7156190E-003  0.1159557E+03  0.7546771E-02  0.1273192E+00
         -2   -1    0    0    0  501 -0.00000000000E+00  0.00000000000E+00  0.67471941908E+02  0.67471941908E+02  0.00000000000E+00 0.  1.
          2   -1    0    0  502    0  0.00000000000E+00 -0.00000000000E+00 -0.23193656235E+04  0.23193656235E+04  0.00000000000E+00 0. -1.
         25    1    1    2    0    0  0.88996804466E+02 -0.26620573549E+02 -0.87285525394E+03  0.88663993846E+03  0.12500000000E+03 0.  0.
          2    1    1    2  502    0 -0.12238285582E+03 -0.59433850985E+02 -0.13991326814E+04  0.14057319113E+04  0.00000000000E+00 0. -1.
         -2    1    1    2    0  501  0.33386051359E+02  0.86054424535E+02  0.20094253784E+02  0.94465715698E+02  0.00000000000E+00 0.  1.
<mgrwt>
<rscale>  0 0.10345604E+03</rscale>
<asrwt>0</asrwt>
<pdfrwt beam="2">  1        2 0.35682550E+00 0.11595570E+03</pdfrwt>
<pdfrwt beam="1">  1       -2 0.10380298E-01 0.92303805E+02</pdfrwt>
<totfact> 0.32722298E+02</totfact>
</mgrwt>
</event>
<event>
 5    1  0.7156190E-003  0.7411107E+02  0.7546771E-02  0.1460965E+00
          2   -1    0    0  502    0  0.00000000000E+00  0.00000000000E+00  0.55728116836E+03  0.55728116836E+03  0.00000000000E+00 0. -1.
         -1   -1    0    0    0  501 -0.00000000000E+00 -0.00000000000E+00 -0.42161661765E+02  0.42161661765E+02  0.00000000000E+00 0.  1.
         25    1    1    2    0    0  0.75613358666E+02  0.31177789894E+02  0.43262317751E+03  0.45768684524E+03  0.12500000000E+03 0.  0.
          2    1    1    2  502    0 -0.69149627724E+02 -0.17995891069E+01  0.87205148458E+02  0.11130879324E+03  0.00000000000E+00 0. -1.
         -1    1    1    2    0  501 -0.64637309420E+01 -0.29378200787E+02 -0.47088193677E+01  0.30447191644E+02  0.00000000000E+00 0.  1.
<mgrwt>
<rscale>  0 0.47215729E+02</rscale>
<asrwt>0</asrwt>
<pdfrwt beam="1">  1        2 0.85735559E-01 0.74111066E+02</pdfrwt>
<pdfrwt beam="2">  1       -1 0.64864099E-02 0.30080866E+02</pdfrwt>
<totfact> 0.62517644E+03</totfact>
</mgrwt>
</event>
<event>
 5    1  0.7156190E-003  0.3953855E+02  0.7546771E-02  0.1544106E+00
          2   -1    0    0  501    0  0.00000000000E+00  0.00000000000E+00  0.12515454578E+02  0.12515454578E+02  0.00000000000E+00 0. -1.
          2   -1    0    0  502    0 -0.00000000000E+00 -0.00000000000E+00 -0.13608680974E+04  0.13608680974E+04  0.00000000000E+00 0. -1.
         25    1    1    2    0    0 -0.67334746634E+01  0.75029750572E+01 -0.39573397118E+03  0.41512890800E+03  0.12500000000E+03 0.  0.
          2    1    1    2  501    0 -0.30996711827E+01 -0.45799271389E+02 -0.22894102619E+03  0.23349769740E+03  0.00000000000E+00 0. -1.
          2    1    1    2  502    0  0.98331458461E+01  0.38296296332E+02 -0.72367764544E+03  0.72475694656E+03  0.00000000000E+00 0. -1.
<mgrwt>
<rscale>  0 0.35511315E+02</rscale>
<asrwt>0</asrwt>
<pdfrwt beam="1">  1        2 0.19254546E-02 0.31894277E+02</pdfrwt>
<pdfrwt beam="2">  1        2 0.20936432E+00 0.39538552E+02</pdfrwt>
<totfact> 0.12528819E+04</totfact>
</mgrwt>
</event>
<event>
 5    1  0.7156190E-003  0.1460681E+03  0.7546771E-02  0.1381048E+00
          2   -1    0    0  502    0  0.00000000000E+00  0.00000000000E+00  0.19380312492E+04  0.19380312492E+04  0.00000000000E+00 0. -1.
         -1   -1    0    0    0  501 -0.00000000000E+00 -0.00000000000E+00 -0.28812253459E+03  0.28812253459E+03  0.00000000000E+00 0.  1.
         25    1    1    2    0    0 -0.11870702248E+02 -0.12043296162E+03  0.48185439386E+03  0.51230232158E+03  0.12500000000E+03 0.  0.
          2    1    1    2  502    0  0.93089735801E+01 -0.26627377477E+02  0.14209846660E+04  0.14212646113E+04  0.00000000000E+00 0. -1.
         -1    1    1    2    0  501  0.25617286681E+01  0.14706033910E+03 -0.25293034526E+03  0.29258685094E+03  0.00000000000E+00 0.  1.
<mgrwt>
<rscale>  0 0.64189132E+02</rscale>
<asrwt>0</asrwt>
<pdfrwt beam="1">  1        2 0.29815864E+00 0.28207698E+02</pdfrwt>
<pdfrwt beam="2">  1       -1 0.44326545E-01 0.14606809E+03</pdfrwt>
<totfact> 0.60652445E+01</totfact>
</mgrwt>
</event>
<event>
 5    1  0.7156190E-003  0.4557680E+02  0.7546771E-02  0.1485037E+00
          2   -1    0    0  501    0  0.00000000000E+00  0.00000000000E+00  0.14694069470E+04  0.14694069470E+04  0.00000000000E+00 0.  1.
          1   -1    0    0  502    0 -0.00000000000E+00 -0.00000000000E+00 -0.80109938118E+02  0.80109938118E+02  0.00000000000E+00 0. -1.
         25    1    1    2    0    0 -0.62158623729E+01 -0.39387889667E+02  0.33555858271E+02  0.13542909001E+03  0.12500000000E+03 0.  0.
          2    1    1    2  501    0  0.43630562409E+02  0.13176453464E+02  0.13664149118E+04  0.13671748082E+04  0.00000000000E+00 0.  1.
          1    1    1    2  502    0 -0.37414700036E+02  0.26211436203E+02 -0.10673761178E+02  0.46912986947E+02  0.00000000000E+00 0. -1.
<mgrwt>
<rscale>  0 0.43331181E+02</rscale>
<asrwt>0</asrwt>
<pdfrwt beam="1">  1        2 0.22606259E+00 0.45576802E+02</pdfrwt>
<pdfrwt beam="2">  1        1 0.12324607E-01 0.41196204E+02</pdfrwt>
<totfact> 0.96873995E+02</totfact>
</mgrwt>
</event>
<event>
 5    1  0.7156190E-003  0.1387900E+03  0.7546771E-02  0.1215655E+00
          1   -1    0    0  502    0  0.00000000000E+00  0.00000000000E+00  0.93969882959E+03  0.93969882959E+03  0.00000000000E+00 0. -1.
          1   -1    0    0  501    0 -0.00000000000E+00 -0.00000000000E+00 -0.90336530069E+03  0.90336530069E+03  0.00000000000E+00 0. -1.
         25    1    1    2    0    0 -0.75580904773E+02  0.13558033163E+03  0.20117226133E+03  0.28317799741E+03  0.12500000000E+03 0.  0.
          1    1    1    2  501    0  0.13870193471E+03 -0.49443922536E+01 -0.84912248157E+03  0.86039041279E+03  0.00000000000E+00 0. -1.
          1    1    1    2  502    0 -0.63121029941E+02 -0.13063593937E+03  0.68428374915E+03  0.69949572009E+03  0.00000000000E+00 0. -1.
<mgrwt>
<rscale>  0 0.13828518E+03</rscale>
<asrwt>0</asrwt>
<pdfrwt beam="1">  1        1 0.14456905E+00 0.13778217E+03</pdfrwt>
<pdfrwt beam="2">  1        1 0.13897928E+00 0.13879003E+03</pdfrwt>
<totfact> 0.44064794E+01</totfact>
</mgrwt>
</event>
<event>
 5    1  0.7156190E-003  0.3751989E+02  0.7546771E-02  0.1553339E+00
          2   -1    0    0  501    0  0.00000000000E+00  0.00000000000E+00  0.33501090408E+02  0.33501090408E+02  0.00000000000E+00 0. -1.
          1   -1    0    0  502    0 -0.00000000000E+00 -0.00000000000E+00 -0.18658127551E+04  0.18658127551E+04  0.00000000000E+00 0. -1.
         25    1    1    2    0    0  0.38329018640E+02  0.32665921103E+02 -0.21743645057E+03  0.25581201322E+03  0.12500000000E+03 0.  0.
          2    1    1    2  501    0 -0.84331292731E+00 -0.31660582369E+02 -0.36965044881E+01  0.31886796610E+02  0.00000000000E+00 0. -1.
          1    1    1    2  502    0 -0.37485705713E+02 -0.10053387338E+01 -0.16111787096E+04  0.16116150356E+04  0.00000000000E+00 0. -1.
<mgrwt>
<rscale>  0 0.34472059E+02</rscale>
<asrwt>0</asrwt>
<pdfrwt beam="1">  1        2 0.51540139E-02 0.31671812E+02</pdfrwt>
<pdfrwt beam="2">  1        1 0.28704812E+00 0.37519889E+02</pdfrwt>
<totfact> 0.87294147E+02</totfact>
</mgrwt>
</event>
<event>
 5    1  0.7156190E-003  0.4264680E+02  0.7546771E-02  0.1513893E+00
          1   -1    0    0  502    0  0.00000000000E+00  0.00000000000E+00  0.58116419620E+03  0.58116419620E+03  0.00000000000E+00 0. -1.
         -2   -1    0    0    0  501 -0.00000000000E+00 -0.00000000000E+00 -0.58495733319E+03  0.58495733319E+03  0.00000000000E+00 0.  1.
         25    1    1    2    0    0 -0.25640641271E+02 -0.11411861350E+02  0.40151547001E+02  0.13425654469E+03  0.12500000000E+03 0.  0.
          1    1    1    2  502    0  0.18628314041E+02 -0.30924796680E+02  0.49244240697E+03  0.49376399354E+03  0.00000000000E+00 0. -1.
         -2    1    1    2    0  501  0.70123272296E+01  0.42336658030E+02 -0.53638709096E+03  0.53810099117E+03  0.00000000000E+00 0.  1.
<mgrwt>
<rscale>  0 0.39238201E+02</rscale>
<asrwt>0</asrwt>
<pdfrwt beam="1">  1        1 0.89409877E-01 0.36102038E+02</pdfrwt>
<pdfrwt beam="2">  1       -2 0.89993435E-01 0.42646801E+02</pdfrwt>
<totfact> 0.39770876E+01</totfact>
</mgrwt>
</event>
<event>
 5    1  0.7156190E-003  0.3803657E+03  0.7546771E-02  0.1050799E+00
          1   -1    0    0  502    0  0.00000000000E+00  0.00000000000E+00  0.84575047232E+03  0.84575047232E+03  0.00000000000E+00 0. -1.
         -2   -1    0    0    0  501 -0.00000000000E+00 -0.00000000000E+00 -0.42766188357E+02  0.42766188357E+02  0.00000000000E+00 0.  1.
         25    1    1    2    0    0  0.14341566780E+03 -0.57915459811E+02  0.34050547166E+03  0.39432376354E+03  0.12500000000E+03 0.  0.
          1    1    1    2  502    0 -0.95095536506E+02  0.87139008768E+00  0.20322229231E+03  0.22437294952E+03  0.00000000000E+00 0. -1.
         -2    1    1    2    0  501 -0.48320131291E+02  0.57044069723E+02  0.25925651999E+03  0.26981994762E+03  0.00000000000E+00 0.  1.
<mgrwt>
<rscale>  0 0.38036574E+03</rscale>
<asrwt>0</asrwt>
<pdfrwt beam="1">  1        1 0.13011544E+00 0.38036574E+03</pdfrwt>
<pdfrwt beam="2">  1       -2 0.65794142E-02 0.38036574E+03</pdfrwt>
<totfact> 0.23887399E+03</totfact>
</mgrwt>
</event>
<event>
 5    1  0.7156190E-003  0.8894967E+02  0.7546771E-02  0.1377023E+00
         -2   -1    0    0    0  501 -0.00000000000E+00  0.00000000000E+00  0.77732136578E+03  0.77732136578E+03  0.00000000000E+00 0.  1.
          3   -1    0    0  502    0  0.00000000000E+00 -0.00000000000E+00 -0.17690327049E+03  0.17690327049E+03  0.00000000000E+00 0. -1.
         25    1    1    2    0    0 -0.77681720032E+02 -0.10260722990E+03  0.50360383974E+02  0.18634339679E+03  0.12500000000E+03 0.  0.
          3    1    1    2  502    0  0.39446519068E+02  0.73805954950E+02 -0.91812141421E+02  0.12422888619E+03  0.00000000000E+00 0. -1.
         -2    1    1    2    0  501  0.38235200965E+02  0.28801274947E+02  0.64186985274E+03  0.64365235328E+03  0.00000000000E+00 0.  1.
<mgrwt>
<rscale>  0 0.65252852E+02</rscale>
<asrwt>0</asrwt>
<pdfrwt beam="2">  1        3 0.27215888E-01 0.88949675E+02</pdfrwt>
<pdfrwt beam="1">  1       -2 0.11958790E+00 0.47869030E+02</pdfrwt>
<totfact> 0.29090467E+01</totfact>
</mgrwt>
</event>
<event>
 5    1  0.7156190E-003  0.1671532E+03  0.7546771E-02  0.1386057E+00
          2   -1    0    0  502    0  0.00000000000E+00  0.00000000000E+00  0.40325055754E+03  0.40325055754E+03  0.00000000000E+00 0. -1.
          2   -1    0    0  501    0 -0.00000000000E+00 -0.00000000000E+00 -0.10219957445E+04  0.10219957445E+04  0.00000000000E+00 0. -1.
         25    1    1    2    0    0  0.15866397036E+03  0.34116417224E+02 -0.13723616928E+03  0.24657037853E+03  0.12500000000E+03 0.  0.
          2    1    1    2  501    0 -0.11007168617E+01  0.23642364774E+02 -0.80971188655E+03  0.81005772153E+03  0.00000000000E+00 0. -1.
          2    1    1    2  502    0 -0.15756325349E+03 -0.57758781998E+02  0.32820286883E+03  0.36861820202E+03  0.00000000000E+00 0. -1.
<mgrwt>
<rscale>  0 0.62898154E+02</rscale>
<asrwt>0</asrwt>
<pdfrwt beam="1">  1        2 0.62038547E-01 0.16715321E+03</pdfrwt>
<pdfrwt beam="2">  1        2 0.15723011E+00 0.23667974E+02</pdfrwt>
<totfact> 0.35792226E+02</totfact>
</mgrwt>
</event>
<event>
 5    1  0.7156190E-003  0.3674496E+03  0.7546771E-02  0.1055672E+00
          2   -1    0    0  502    0  0.00000000000E+00  0.00000000000E+00  0.45013951101E+03  0.45013951101E+03  0.00000000000E+00 0. -1.
         -1   -1    0    0    0  501 -0.00000000000E+00 -0.00000000000E+00 -0.74987407889E+02  0.74987407889E+02  0.00000000000E+00 0.  1.
         25    1    1    2    0    0 -0.11279398308E+03 -0.10183318071E+03  0.24639215334E+03  0.31531979408E+03  0.12500000000E+03 0.  0.
          2    1    1    2  502    0  0.67963032693E+02  0.99759312721E+02  0.96373729804E+02  0.15446290844E+03  0.00000000000E+00 0. -1.
         -1    1    1    2    0  501  0.44830950392E+02  0.20738679937E+01  0.32386219977E+02  0.55344216372E+02  0.00000000000E+00 0.  1.
<mgrwt>
<rscale>  0 0.36744956E+03</rscale>
<asrwt>0</asrwt>
<pdfrwt beam="1">  1        2 0.69252231E-01 0.36744956E+03</pdfrwt>
<pdfrwt beam="2">  1       -1 0.11536525E-01 0.36744956E+03</pdfrwt>
<totfact> 0.39029184E+03</totfact>
</mgrwt>
</event>
<event>
 5    1  0.7156190E-003  0.2269551E+03  0.7546771E-02  0.1194331E+00
          3   -1    0    0  502    0 -0.00000000000E+00  0.00000000000E+00  0.10049691400E+03  0.10049691400E+03  0.00000000000E+00 0. -1.
          2   -1    0    0  501    0  0.00000000000E+00 -0.00000000000E+00 -0.39996859085E+04  0.39996859085E+04  0.00000000000E+00 0. -1.
         25    1    1    2    0    0  0.10758703131E+03 -0.21188614273E+03 -0.50623048321E+03  0.57303142054E+03  0.12500000000E+03 0.  0.
          2    1    1    2  501    0  0.75942408294E+02  0.73961694378E+02 -0.32602569682E+04  0.32619799326E+04  0.00000000000E+00 0. -1.
          3    1    1    2  502    0 -0.18352943960E+03  0.13792444835E+03 -0.13270154305E+03  0.26517146940E+03  0.00000000000E+00 0. -1.
<mgrwt>
<rscale>  0 0.15510942E+03</rscale>
<asrwt>0</asrwt>
<pdfrwt beam="2">  1        2 0.61533622E+00 0.10600746E+03</pdfrwt>
<pdfrwt beam="1">  1        3 0.15461066E-01 0.22695508E+03</pdfrwt>
<totfact> 0.11939814E+01</totfact>
</mgrwt>
</event>
<event>
 5    1  0.7156190E-003  0.1746375E+03  0.7546771E-02  0.1244066E+00
          1   -1    0    0  501    0  0.00000000000E+00  0.00000000000E+00  0.25469165994E+03  0.25469165994E+03  0.00000000000E+00 0. -1.
          1   -1    0    0  502    0 -0.00000000000E+00 -0.00000000000E+00 -0.19407566826E+04  0.19407566826E+04  0.00000000000E+00 0. -1.
         25    1    1    2    0    0 -0.97416186601E+02 -0.34832462513E+02 -0.11123361679E+04  0.11241085198E+04  0.12500000000E+03 0.  0.
          1    1    1    2  501    0  0.17623768274E+03  0.13511421402E+02  0.21503740715E+03  0.27835834063E+03  0.00000000000E+00 0. -1.
          1    1    1    2  502    0 -0.78821496135E+02  0.21321041111E+02 -0.78876626191E+03  0.79298148211E+03  0.00000000000E+00 0. -1.
<mgrwt>
<rscale>  0 0.11941478E+03</rscale>
<asrwt>0</asrwt>
<pdfrwt beam="1">  1        1 0.39183332E-01 0.17463745E+03</pdfrwt>
<pdfrwt beam="2">  1        1 0.29857796E+00 0.81654241E+02</pdfrwt>
<totfact> 0.54760882E+01</totfact>
</mgrwt>
</event>
<event>
 5    1  0.7156190E-003  0.1548070E+03  0.7546771E-02  0.1379944E+00
         -3   -1    0    0    0  501 -0.00000000000E+00  0.00000000000E+00  0.12998031433E+03  0.12998031433E+03  0.00000000000E+00 0.  1.
          3   -1    0    0  502    0  0.00000000000E+00 -0.00000000000E+00 -0.12488850736E+04  0.12488850736E+04  0.00000000000E+00 0. -1.
         25    1    1    2    0    0 -0.95741465008E+02 -0.14825921408E+03 -0.62375238240E+03  0.66018123059E+03  0.12500000000E+03 0.  0.
          3    1    1    2  502    0  0.26803383665E+01  0.26721820006E+02 -0.55402754516E+03  0.55467806940E+03  0.00000000000E+00 0. -1.
         -3    1    1    2    0  501  0.93061126641E+02  0.12153739407E+03  0.58875168272E+02  0.16400608796E+03  0.00000000000E+00 0.  1.
<mgrwt>
<rscale>  0 0.64478542E+02</rscale>
<asrwt>0</asrwt>
<pdfrwt beam="2">  1        3 0.19213616E+00 0.26855910E+02</pdfrwt>
<pdfrwt beam="1">  1       -3 0.19996972E-01 0.15480698E+03</pdfrwt>
<totfact> 0.10148691E+01</totfact>
</mgrwt>
</event>
<event>
 5    1  0.7156190E-003  0.1827451E+03  0.7546771E-02  0.1279224E+00
         -1   -1    0    0    0  501 -0.00000000000E+00  0.00000000000E+00  0.15145578282E+04  0.15145578282E+04  0.00000000000E+00 0.  1.
          1   -1    0    0  502    0  0.00000000000E+00 -0.00000000000E+00 -0.46929410843E+03  0.46929410843E+03  0.00000000000E+00 0. -1.
         25    1    1    2    0    0 -0.51386595600E+02  0.19294344249E+03  0.44907367725E+03  0.50710937854E+03  0.12500000000E+03 0.  0.
          1    1    1    2  502    0  0.53676131967E+02 -0.13228283819E+02 -0.43070473177E+03  0.43423804601E+03  0.00000000000E+00 0. -1.
         -1    1    1    2    0  501 -0.22895363676E+01 -0.17971515867E+03  0.10268947743E+04  0.10425045121E+04  0.00000000000E+00 0.  1.
<mgrwt>
<rscale>  0 0.10051139E+03</rscale>
<asrwt>0</asrwt>
<pdfrwt beam="2">  1        1 0.72199094E-01 0.55282137E+02</pdfrwt>
<pdfrwt beam="1">  1       -1 0.23300889E+00 0.18274509E+03</pdfrwt>
<totfact> 0.54397053E+00</totfact>
</mgrwt>
</event>
<event>
 5    1  0.7156190E-003  0.2046249E+03  0.7546771E-02  0.1326889E+00
          1   -1    0    0  502    0 -0.00000000000E+00  0.00000000000E+00  0.93228255448E+03  0.93228255448E+03  0.00000000000E+00 0. -1.
          2   -1    0    0  501    0  0.00000000000E+00 -0.00000000000E+00 -0.23168508750E+03  0.23168508750E+03  0.00000000000E+00 0. -1.
         25    1    1    2    0    0 -0.19623234437E+03  0.29983439226E+02  0.27381225779E+03  0.36056107960E+03  0.12500000000E+03 0.  0.
          2    1    1    2  501    0  0.19656417237E+03 -0.61860916974E+02 -0.13134407792E+03  0.24436757909E+03  0.00000000000E+00 0. -1.
          1    1    1    2  502    0 -0.33182799975E+00  0.31877477748E+02  0.55812928711E+03  0.55903898328E+03  0.00000000000E+00 0. -1.
<mgrwt>
<rscale>  0 0.80766818E+02</rscale>
<asrwt>0</asrwt>
<pdfrwt beam="2">  1        2 0.35643860E-01 0.20462489E+03</pdfrwt>
<pdfrwt beam="1">  1        1 0.14342808E+00 0.31879205E+02</pdfrwt>
<totfact> 0.40366817E+02</totfact>
</mgrwt>
</event>
<event>
 5    1  0.7156190E-003  0.4641124E+02  0.7546771E-02  0.1474905E+00
          2   -1    0    0  502    0  0.00000000000E+00  0.00000000000E+00  0.85853805884E+03  0.85853805884E+03  0.00000000000E+00 0. -1.
         -1   -1    0    0    0  501 -0.00000000000E+00 -0.00000000000E+00 -0.15562103633E+02  0.15562103633E+02  0.00000000000E+00 0.  1.
         25    1    1    2    0    0 -0.50241637762E+02 -0.97382398335E+01  0.45772382101E+03  0.47723699751E+03  0.12500000000E+03 0.  0.
          2    1    1    2  502    0  0.32251804104E+02 -0.33374006984E+02  0.23411924714E+03  0.23867514552E+03  0.00000000000E+00 0. -1.
         -1    1    1    2    0  501  0.17989833658E+02  0.43112246817E+02  0.15113288707E+03  0.15818801944E+03  0.00000000000E+00 0.  1.
<mgrwt>
<rscale>  0 0.44909876E+02</rscale>
<asrwt>0</asrwt>
<pdfrwt beam="1">  1        2 0.13208274E+00 0.46411240E+02</pdfrwt>
<pdfrwt beam="2">  1       -1 0.23941705E-02 0.43457079E+02</pdfrwt>
<totfact> 0.16591327E+04</totfact>
</mgrwt>
</event>
<event>
 5    1  0.7156190E-003  0.2205216E+03  0.7546771E-02  0.1345340E+00
          2   -1    0    0  501    0  0.00000000000E+00  0.00000000000E+00  0.37881400267E+02  0.37881400267E+02  0.00000000000E+00 0.  1.
          3   -1    0    0  502    0 -0.00000000000E+00 -0.00000000000E+00 -0.20786268355E+04  0.20786268355E+04  0.00000000000E+00 0. -1.
         25    1    1    2    0    0  0.14469608804E+03 -0.18375297686E+03 -0.90619863718E+03  0.94420500127E+03  0.12500000000E+03 0.  0.
          2    1    1    2  501    0 -0.12168039162E+03  0.17352150116E+03 -0.58545802509E+03  0.62263707584E+03  0.00000000000E+00 0.  1.
          3    1    1    2  502    0 -0.23015696421E+02  0.10231475696E+02 -0.54908877301E+03  0.54966615870E+03  0.00000000000E+00 0. -1.
<mgrwt>
<rscale>  0 0.74527622E+02</rscale>
<asrwt>0</asrwt>
<pdfrwt beam="1">  1        2 0.58279094E-02 0.22052158E+03</pdfrwt>
<pdfrwt beam="2">  1        3 0.31978865E+00 0.25187405E+02</pdfrwt>
<totfact> 0.33126208E+01</totfact>
</mgrwt>
</event>
<event>
 5    1  0.7156190E-003  0.8163825E+02  0.7546771E-02  0.1352086E+00
          1   -1    0    0  501    0  0.00000000000E+00  0.00000000000E+00  0.10388209364E+04  0.10388209364E+04  0.00000000000E+00 0. -1.
          3   -1    0    0  502    0 -0.00000000000E+00 -0.00000000000E+00 -0.16867727792E+03  0.16867727792E+03  0.00000000000E+00 0. -1.
         25    1    1    2    0    0 -0.95345379782E+01  0.35152352364E+02  0.36250835353E+03  0.38518034954E+03  0.12500000000E+03 0.  0.
          1    1    1    2  501    0  0.53386395684E+02  0.35702022767E+02  0.65225546818E+03  0.65540974775E+03  0.00000000000E+00 0. -1.
          3    1    1    2  502    0 -0.43851857705E+02 -0.70854375131E+02 -0.14462016327E+03  0.16690811701E+03  0.00000000000E+00 0. -1.
<mgrwt>
<rscale>  0 0.72409583E+02</rscale>
<asrwt>0</asrwt>
<pdfrwt beam="1">  1        1 0.15981860E+00 0.64224152E+02</pdfrwt>
<pdfrwt beam="2">  1        3 0.25950351E-01 0.81638255E+02</pdfrwt>
<totfact> 0.11760162E+02</totfact>
</mgrwt>
</event>
<event>
 5    1  0.7156190E-003  0.5309288E+02  0.7546771E-02  0.1510035E+00
         -1   -1    0    0    0  501 -0.00000000000E+00  0.00000000000E+00  0.20660648140E+03  0.20660648140E+03  0.00000000000E+00 0.  1.
          1   -1    0    0  502    0  0.00000000000E+00 -0.00000000000E+00 -0.97932832836E+03  0.97932832836E+03  0.00000000000E+00 0. -1.
         25    1    1    2    0    0  0.64346891328E+02  0.22607804370E+01 -0.68702252880E+03  0.70126356574E+03  0.12500000000E+03 0.  0.
          1    1    1    2  502    0 -0.18043300824E+02  0.23672933498E+02 -0.28085508047E+03  0.28242794605E+03  0.00000000000E+00 0. -1.
         -1    1    1    2    0  501 -0.46303590503E+02 -0.25933713935E+02  0.19515576231E+03  0.20224329798E+03  0.00000000000E+00 0.  1.
<mgrwt>
<rscale>  0 0.39753255E+02</rscale>
<asrwt>0</asrwt>
<pdfrwt beam="2">  1        1 0.15066590E+00 0.29765223E+02</pdfrwt>
<pdfrwt beam="1">  1       -1 0.31785612E-01 0.53092876E+02</pdfrwt>
<totfact> 0.17424642E+02</totfact>
</mgrwt>
</event>
<event>
 5    1  0.7156190E-003  0.3536160E+02  0.7546771E-02  0.1624859E+00
          1   -1    0    0  502    0  0.00000000000E+00  0.00000000000E+00  0.10647188887E+04  0.10647188887E+04  0.00000000000E+00 0. -1.
          1   -1    0    0  501    0 -0.00000000000E+00 -0.00000000000E+00 -0.95130335396E+02  0.95130335396E+02  0.00000000000E+00 0. -1.
         25    1    1    2    0    0  0.10008638590E+02 -0.13768560038E+02  0.81388289765E+02  0.15012927697E+03  0.12500000000E+03 0.  0.
          1    1    1    2  501    0 -0.41866429060E+01 -0.21308662735E+02 -0.58474987661E+02  0.62377169448E+02  0.00000000000E+00 0. -1.
          1    1    1    2  502    0 -0.58219956836E+01  0.35077222773E+02  0.94667525121E+03  0.94734277770E+03  0.00000000000E+00 0. -1.
<mgrwt>
<rscale>  0 0.27711270E+02</rscale>
<asrwt>0</asrwt>
<pdfrwt beam="1">  1        1 0.16380290E+00 0.35361599E+02</pdfrwt>
<pdfrwt beam="2">  1        1 0.14635437E-01 0.21716056E+02</pdfrwt>
<totfact> 0.66309564E+02</totfact>
</mgrwt>
</event>
<event>
 5    1  0.7156190E-003  0.2992170E+03  0.7546771E-02  0.1118714E+00
          1   -1    0    0  502    0  0.00000000000E+00  0.00000000000E+00  0.27602922802E+03  0.27602922802E+03  0.00000000000E+00 0. -1.
          1   -1    0    0  501    0 -0.00000000000E+00 -0.00000000000E+00 -0.24444260987E+04  0.24444260987E+04  0.00000000000E+00 0. -1.
         25    1    1    2    0    0  0.46100177290E+03  0.85973954598E+01 -0.43948911071E+03  0.64913190359E+03  0.12500000000E+03 0.  0.
          1    1    1    2  501    0 -0.19396299779E+03 -0.21222730903E+02 -0.17871048428E+04  0.17977251648E+04  0.00000000000E+00 0. -1.
          1    1    1    2  502    0 -0.26703877511E+03  0.12625335443E+02  0.58197082883E+02  0.27359825833E+03  0.00000000000E+00 0. -1.
<mgrwt>
<rscale>  0 0.24162658E+03</rscale>
<asrwt>0</asrwt>
<pdfrwt beam="1">  1        1 0.42466036E-01 0.29921701E+03</pdfrwt>
<pdfrwt beam="2">  1        1 0.37606554E+00 0.19512060E+03</pdfrwt>
<totfact> 0.21102860E+01</totfact>
</mgrwt>
</event>
<event>
 5    1  0.7156190E-003  0.9232904E+02  0.7546771E-02  0.1385777E+00
          2   -1    0    0  501    0  0.00000000000E+00  0.00000000000E+00  0.10911066472E+04  0.10911066472E+04  0.00000000000E+00 0. -1.
          3   -1    0    0  502    0 -0.00000000000E+00 -0.00000000000E+00 -0.49585712145E+03  0.49585712145E+03  0.00000000000E+00 0. -1.
         25    1    1    2    0    0  0.53222053763E+02 -0.69199266622E+02  0.54292584677E+02  0.16184501926E+03  0.12500000000E+03 0.  0.
          2    1    1    2  501    0 -0.84150737602E+02  0.39403855899E+02  0.97979154890E+03  0.98418773097E+03  0.00000000000E+00 0. -1.
          3    1    1    2  502    0  0.30928683839E+02  0.29795410723E+02 -0.43883460782E+03  0.44093101842E+03  0.00000000000E+00 0. -1.
<mgrwt>
<rscale>  0 0.62969464E+02</rscale>
<asrwt>0</asrwt>
<pdfrwt beam="1">  1        2 0.16786256E+00 0.92329042E+02</pdfrwt>
<pdfrwt beam="2">  1        3 0.76285712E-01 0.42945896E+02</pdfrwt>
<totfact> 0.23874144E+01</totfact>
</mgrwt>
</event>
<event>
 5    1  0.7156190E-003  0.4965185E+02  0.7546771E-02  0.1472073E+00
          2   -1    0    0  501    0  0.00000000000E+00  0.00000000000E+00  0.21047673835E+04  0.21047673835E+04  0.00000000000E+00 0.  1.
          1   -1    0    0  502    0 -0.00000000000E+00 -0.00000000000E+00 -0.95547959666E+03  0.95547959666E+03  0.00000000000E+00 0. -1.
         25    1    1    2    0    0  0.14714380381E+02 -0.82677398337E+01  0.28638244107E+03  0.31292933877E+03  0.12500000000E+03 0.  0.
          2    1    1    2  501    0  0.31282019665E+02  0.27193138514E+02  0.18042169059E+04  0.18046929586E+04  0.00000000000E+00 0.  1.
          1    1    1    2  502    0 -0.45996400046E+02 -0.18925398680E+02 -0.94131156005E+03  0.94262468280E+03  0.00000000000E+00 0. -1.
<mgrwt>
<rscale>  0 0.45365478E+02</rscale>
<asrwt>0</asrwt>
<pdfrwt beam="1">  1        2 0.32381037E+00 0.41449144E+02</pdfrwt>
<pdfrwt beam="2">  1        1 0.14699686E+00 0.49651848E+02</pdfrwt>
<totfact> 0.21414288E+01</totfact>
</mgrwt>
</event>
<event>
 5    1  0.7156190E-003  0.1235470E+03  0.7546771E-02  0.1333822E+00
          2   -1    0    0  501    0  0.00000000000E+00  0.00000000000E+00  0.10753792594E+04  0.10753792594E+04  0.00000000000E+00 0. -1.
          1   -1    0    0  502    0 -0.00000000000E+00 -0.00000000000E+00 -0.50944303523E+03  0.50944303523E+03  0.00000000000E+00 0. -1.
         25    1    1    2    0    0  0.89034999927E+02  0.10778151423E+03  0.80774776686E+02  0.20419023133E+03  0.12500000000E+03 0.  0.
          2    1    1    2  501    0 -0.10664517142E+03 -0.61329781917E+02  0.92744431466E+03  0.93556800476E+03  0.00000000000E+00 0. -1.
          1    1    1    2  502    0  0.17610171488E+02 -0.46451732310E+02 -0.44228286720E+03  0.44506405853E+03  0.00000000000E+00 0. -1.
<mgrwt>
<rscale>  0 0.78342458E+02</rscale>
<asrwt>0</asrwt>
<pdfrwt beam="1">  1        2 0.16544296E+00 0.12354701E+03</pdfrwt>
<pdfrwt beam="2">  1        1 0.78375852E-01 0.49677777E+02</pdfrwt>
<totfact> 0.15511597E+02</totfact>
</mgrwt>
</event>
<event>
 5    1  0.7156190E-003  0.5198333E+02  0.7546771E-02  0.1478150E+00
          1   -1    0    0  502    0  0.00000000000E+00  0.00000000000E+00  0.28857095563E+03  0.28857095563E+03  0.00000000000E+00 0. -1.
         -2   -1    0    0    0  501 -0.00000000000E+00 -0.00000000000E+00 -0.88504322416E+02  0.88504322416E+02  0.00000000000E+00 0.  1.
         25    1    1    2    0    0  0.21571462262E+02  0.10174330520E+02  0.10739620738E+03  0.16651663684E+03  0.12500000000E+03 0.  0.
          1    1    1    2  502    0 -0.57926125984E+02  0.59257349772E+00  0.13906118530E+03  0.15064461647E+03  0.00000000000E+00 0. -1.
         -2    1    1    2    0  501  0.36354663721E+02 -0.10766904018E+02 -0.46390759462E+02  0.59914024735E+02  0.00000000000E+00 0.  1.
<mgrwt>
<rscale>  0 0.44395674E+02</rscale>
<asrwt>0</asrwt>
<pdfrwt beam="1">  1        1 0.44395531E-01 0.51983332E+02</pdfrwt>
<pdfrwt beam="2">  1       -2 0.13616050E-01 0.37915535E+02</pdfrwt>
<totfact> 0.28991904E+03</totfact>
</mgrwt>
</event>
<event>
 5    1  0.7156190E-003  0.7459075E+02  0.7546771E-02  0.1447347E+00
          2   -1    0    0  501    0  0.00000000000E+00  0.00000000000E+00  0.17437123391E+03  0.17437123391E+03  0.00000000000E+00 0. -1.
          1   -1    0    0  502    0 -0.00000000000E+00 -0.00000000000E+00 -0.25248035591E+03  0.25248035591E+03  0.00000000000E+00 0. -1.
         25    1    1    2    0    0  0.46334830863E+02 -0.64286449624E+00  0.10250279907E+03  0.16816406764E+03  0.12500000000E+03 0.  0.
          2    1    1    2  501    0  0.27275728917E+02 -0.18614465815E+02  0.23713700036E+02  0.40654683555E+02  0.00000000000E+00 0. -1.
          1    1    1    2  502    0 -0.73610559779E+02  0.19257330312E+02 -0.20432562111E+03  0.21803283863E+03  0.00000000000E+00 0. -1.
<mgrwt>
<rscale>  0 0.49630117E+02</rscale>
<asrwt>0</asrwt>
<pdfrwt beam="1">  1        2 0.26826344E-01 0.33022170E+02</pdfrwt>
<pdfrwt beam="2">  1        1 0.38843132E-01 0.74590752E+02</pdfrwt>
<totfact> 0.27414330E+03</totfact>
</mgrwt>
</event>
<event>
 5    1  0.7156190E-003  0.7642738E+02  0.7546771E-02  0.1512298E+00
          1   -1    0    0  501    0  0.00000000000E+00  0.00000000000E+00  0.14333357364E+03  0.14333357364E+03  0.00000000000E+00 0. -1.
          1   -1    0    0  502    0 -0.00000000000E+00 -0.00000000000E+00 -0.10993817114E+04  0.10993817114E+04  0.00000000000E+00 0. -1.
         25    1    1    2    0    0 -0.71728514819E+02 -0.14827681504E+02 -0.83771129041E+01  0.14512069459E+03  0.12500000000E+03 0.  0.
          1    1    1    2  501    0 -0.46566886255E+01  0.19823565509E+02  0.72117432776E+02  0.74937191091E+02  0.00000000000E+00 0. -1.
          1    1    1    2  502    0  0.76385203444E+02 -0.49958840047E+01 -0.10197884577E+04  0.10226573994E+04  0.00000000000E+00 0. -1.
<mgrwt>
<rscale>  0 0.39450011E+02</rscale>
<asrwt>0</asrwt>
<pdfrwt beam="1">  1        1 0.22051320E-01 0.20363165E+02</pdfrwt>
<pdfrwt beam="2">  1        1 0.16913564E+00 0.76427378E+02</pdfrwt>
<totfact> 0.36203967E+02</totfact>
</mgrwt>
</event>
<event>
 5    1  0.7156190E-003  0.5755137E+02  0.7546771E-02  0.1465594E+00
          1   -1    0    0  502    0  0.00000000000E+00  0.00000000000E+00  0.83709905991E+03  0.83709905991E+03  0.00000000000E+00 0. -1.
          1   -1    0    0  501    0 -0.00000000000E+00 -0.00000000000E+00 -0.99958259455E+03  0.99958259455E+03  0.00000000000E+00 0. -1.
         25    1    1    2    0    0 -0.23067750539E+01  0.21376051429E+02 -0.28016481614E+03  0.30753793423E+03  0.12500000000E+03 0.  0.
          1    1    1    2  501    0  0.12032121801E+02  0.35476296512E+02 -0.70422271657E+03  0.70521838752E+03  0.00000000000E+00 0. -1.
          1    1    1    2  502    0 -0.97253467471E+01 -0.56852347940E+02  0.82190399807E+03  0.82392533271E+03  0.00000000000E+00 0. -1.
<mgrwt>
<rscale>  0 0.46432120E+02</rscale>
<asrwt>0</asrwt>
<pdfrwt beam="1">  1        1 0.12878447E+00 0.57551367E+02</pdfrwt>
<pdfrwt beam="2">  1        1 0.15378194E+00 0.37461174E+02</pdfrwt>
<totfact> 0.51143089E+01</totfact>
</mgrwt>
</event>
<event>
 5    1  0.7156190E-003  0.8459465E+02  0.7546771E-02  0.1396375E+00
          1   -1    0    0  502    0  0.00000000000E+00  0.00000000000E+00  0.62478376638E+02  0.62478376638E+02  0.00000000000E+00 0. -1.
         -1   -1    0    0    0  501 -0.00000000000E+00 -0.00000000000E+00 -0.41242707240E+03  0.41242707240E+03  0.00000000000E+00 0.  1.
         25    1    1    2    0    0 -0.78415031797E+02 -0.15928730126E+02 -0.14273878379E+03  0.20591746418E+03  0.12500000000E+03 0.  0.
          1    1    1    2  502    0 -0.56331796431E+01  0.42681635476E+02  0.79027340917E+00  0.43059020563E+02  0.00000000000E+00 0. -1.
         -1    1    1    2    0  501  0.84048211440E+02 -0.26752905350E+02 -0.20800018538E+03  0.22592896430E+03  0.00000000000E+00 0.  1.
<mgrwt>
<rscale>  0 0.60348564E+02</rscale>
<asrwt>0</asrwt>
<pdfrwt beam="1">  1        1 0.96120582E-02 0.43051768E+02</pdfrwt>
<pdfrwt beam="2">  1       -1 0.63450317E-01 0.84594649E+02</pdfrwt>
<totfact> 0.16035368E+03</totfact>
</mgrwt>
</event>
<event>
 5    1  0.7156190E-003  0.9049831E+02  0.7546771E-02  0.1323935E+00
          2   -1    0    0  501    0  0.00000000000E+00  0.00000000000E+00  0.18849271383E+03  0.18849271383E+03  0.00000000000E+00 0. -1.
          1   -1    0    0  502    0 -0.00000000000E+00 -0.00000000000E+00 -0.12477760918E+04  0.12477760918E+04  0.00000000000E+00 0. -1.
         25    1    1    2    0    0 -0.44291561099E+02 -0.32827291322E+02  0.57656803159E+01  0.13673922813E+03  0.12500000000E+03 0.  0.
          2    1    1    2  501    0  0.26859417616E+02  0.10473790816E+03  0.90872689961E+02  0.14124200332E+03  0.00000000000E+00 0. -1.
          1    1    1    2  502    0  0.17432143483E+02 -0.71910616841E+02 -0.11559217482E+04  0.11582875741E+04  0.00000000000E+00 0. -1.
<mgrwt>
<rscale>  0 0.81830762E+02</rscale>
<asrwt>0</asrwt>
<pdfrwt beam="1">  1        2 0.28998879E-01 0.90498312E+02</pdfrwt>
<pdfrwt beam="2">  1        1 0.19196555E+00 0.73993354E+02</pdfrwt>
<totfact> 0.28519916E+02</totfact>
</mgrwt>
</event>
<event>
 5    1  0.7156190E-003  0.5998534E+02  0.7546771E-02  0.1426336E+00
         -1   -1    0    0    0  501 -0.00000000000E+00  0.00000000000E+00  0.83266246053E+03  0.83266246053E+03  0.00000000000E+00 0.  1.
          2   -1    0    0  502    0  0.00000000000E+00 -0.00000000000E+00 -0.20319883423E+02  0.20319883423E+02  0.00000000000E+00 0. -1.
         25    1    1    2    0    0  0.55765881064E+02 -0.55494684496E+02  0.42418715678E+03  0.44916504481E+03  0.12500000000E+03 0.  0.
          2    1    1    2  502    0  0.21736165302E+01  0.48028649098E+02  0.11801358893E+03  0.12743109085E+03  0.00000000000E+00 0. -1.
         -1    1    1    2    0  501 -0.57939497595E+02  0.74660353980E+01  0.27014183140E+03  0.27638620830E+03  0.00000000000E+00 0.  1.
<mgrwt>
<rscale>  0 0.53702548E+02</rscale>
<asrwt>0</asrwt>
<pdfrwt beam="2">  1        2 0.31261366E-02 0.48077809E+02</pdfrwt>
<pdfrwt beam="1">  1       -1 0.12810189E+00 0.59985339E+02</pdfrwt>
<totfact> 0.17231755E+03</totfact>
</mgrwt>
</event>
<event>
 5    1  0.7156190E-003  0.5597099E+02  0.7546771E-02  0.1482128E+00
          1   -1    0    0  502    0  0.00000000000E+00  0.00000000000E+00  0.50552738797E+03  0.50552738797E+03  0.00000000000E+00 0. -1.
          1   -1    0    0  501    0 -0.00000000000E+00 -0.00000000000E+00 -0.20696342550E+03  0.20696342550E+03  0.00000000000E+00 0. -1.
         25    1    1    2    0    0 -0.20743475182E+02  0.37238287968E+02  0.76132872459E+02  0.15244079547E+03  0.12500000000E+03 0.  0.
          1    1    1    2  501    0  0.51953617508E+02 -0.23159556883E+02 -0.16323771822E+03  0.17286438644E+03  0.00000000000E+00 0. -1.
          1    1    1    2  502    0 -0.31210142326E+02 -0.14078731085E+02  0.38566880823E+03  0.38718563157E+03  0.00000000000E+00 0. -1.
<mgrwt>
<rscale>  0 0.43776361E+02</rscale>
<asrwt>0</asrwt>
<pdfrwt beam="1">  1        1 0.77773444E-01 0.34238628E+02</pdfrwt>
<pdfrwt beam="2">  1        1 0.31840527E-01 0.55970986E+02</pdfrwt>
<totfact> 0.76587362E+02</totfact>
</mgrwt>
</event>
<event>
 5    1  0.7156190E-003  0.7081393E+02  0.7546771E-02  0.1381905E+00
         -2   -1    0    0    0  501  0.00000000000E+00  0.00000000000E+00  0.39256162041E+03  0.39256162041E+03  0.00000000000E+00 0.  1.
         -1   -1    0    0    0  502 -0.00000000000E+00 -0.00000000000E+00 -0.26408152347E+03  0.26408152347E+03  0.00000000000E+00 0.  1.
         25    1    1    2    0    0  0.21456105774E+01  0.47608819017E+02  0.43886089057E+02  0.14079130692E+03  0.12500000000E+03 0.  0.
         -2    1    1    2    0  501 -0.59850170110E+02 -0.44660331177E+02  0.29156017269E+03  0.30097163046E+03  0.00000000000E+00 0.  1.
         -1    1    1    2    0  502  0.57704559533E+02 -0.29484878404E+01 -0.20696616480E+03  0.21488020650E+03  0.00000000000E+00 0.  1.
<mgrwt>
<rscale>  0 0.63965753E+02</rscale>
<asrwt>0</asrwt>
<pdfrwt beam="1">  1       -2 0.60394096E-01 0.70813932E+02</pdfrwt>
<pdfrwt beam="2">  1       -1 0.40627927E-01 0.57779839E+02</pdfrwt>
<totfact> 0.11768877E+02</totfact>
</mgrwt>
</event>
<event>
 5    1  0.7156190E-003  0.9111937E+02  0.7546771E-02  0.1356350E+00
          2   -1    0    0  502    0  0.00000000000E+00  0.00000000000E+00  0.52677043974E+03  0.52677043974E+03  0.00000000000E+00 0. -1.
         -1   -1    0    0    0  501 -0.00000000000E+00 -0.00000000000E+00 -0.54386518369E+02  0.54386518369E+02  0.00000000000E+00 0.  1.
         25    1    1    2    0    0 -0.80358662348E+02 -0.90649106020E+02  0.15775568495E+03  0.23491835001E+03  0.12500000000E+03 0.  0.
          2    1    1    2  502    0  0.25821345832E+02  0.80365108918E+02  0.14521238108E+03  0.16796406833E+03  0.00000000000E+00 0. -1.
         -1    1    1    2    0  501  0.54537316516E+02  0.10283997102E+02  0.16941585534E+03  0.17827453977E+03  0.00000000000E+00 0.  1.
<mgrwt>
<rscale>  0 0.71112481E+02</rscale>
<asrwt>0</asrwt>
<pdfrwt beam="1">  1        2 0.81041603E-01 0.91119369E+02</pdfrwt>
<pdfrwt beam="2">  1       -1 0.83671570E-02 0.55498464E+02</pdfrwt>
<totfact> 0.48716034E+03</totfact>
</mgrwt>
</event>
<event>
 5    1  0.7156190E-003  0.1366396E+03  0.7546771E-02  0.1338608E+00
          2   -1    0    0  501    0  0.00000000000E+00  0.00000000000E+00  0.18114016825E+04  0.18114016825E+04  0.00000000000E+00 0.  1.
          1   -1    0    0  502    0 -0.00000000000E+00 -0.00000000000E+00 -0.18488421121E+04  0.18488421121E+04  0.00000000000E+00 0. -1.
         25    1    1    2    0    0 -0.24377500764E+02  0.91764920071E+02 -0.65469056163E+03  0.67324571635E+03  0.12500000000E+03 0.  0.
          2    1    1    2  501    0  0.46813460680E+02 -0.12854524499E+03  0.17991347471E+04  0.18043284675E+04  0.00000000000E+00 0.  1.
          1    1    1    2  502    0 -0.22435959916E+02  0.36780324920E+02 -0.11818846151E+04  0.11826696107E+04  0.00000000000E+00 0. -1.
<mgrwt>
<rscale>  0 0.76725980E+02</rscale>
<asrwt>0</asrwt>
<pdfrwt beam="1">  1        2 0.27867718E+00 0.13663962E+03</pdfrwt>
<pdfrwt beam="2">  1        1 0.28443725E+00 0.43083229E+02</pdfrwt>
<totfact> 0.71701105E+00</totfact>
</mgrwt>
</event>
<event>
 5    1  0.7156190E-003  0.8597500E+02  0.7546771E-02  0.1325491E+00
          1   -1    0    0  502    0  0.00000000000E+00  0.00000000000E+00  0.20601187697E+04  0.20601187697E+04  0.00000000000E+00 0. -1.
         -2   -1    0    0    0  501 -0.00000000000E+00 -0.00000000000E+00 -0.17936881015E+03  0.17936881015E+03  0.00000000000E+00 0.  1.
         25    1    1    2    0    0  0.10428544851E+03 -0.12346430324E+03  0.10818621515E+03  0.23118855095E+03  0.12500000000E+03 0.  0.
          1    1    1    2  502    0 -0.54321786586E+02  0.65113656986E+02  0.18768550703E+04  0.18787697037E+04  0.00000000000E+00 0. -1.
         -2    1    1    2    0  501 -0.49963661920E+02  0.58350646252E+02 -0.10429132587E+03  0.12952932518E+03  0.00000000000E+00 0.  1.
<mgrwt>
<rscale>  0 0.81268181E+02</rscale>
<asrwt>0</asrwt>
<pdfrwt beam="1">  1        1 0.31694133E+00 0.85974999E+02</pdfrwt>
<pdfrwt beam="2">  1       -2 0.27595203E-01 0.76819043E+02</pdfrwt>
<totfact> 0.36422175E+01</totfact>
</mgrwt>
</event>
<event>
 5    1  0.7156190E-003  0.1395267E+03  0.7546771E-02  0.1290981E+00
          2   -1    0    0  502    0  0.00000000000E+00  0.00000000000E+00  0.37840387567E+03  0.37840387567E+03  0.00000000000E+00 0. -1.
         -1   -1    0    0    0  501 -0.00000000000E+00 -0.00000000000E+00 -0.19800717628E+03  0.19800717628E+03  0.00000000000E+00 0.  1.
         25    1    1    2    0    0  0.10002619377E+03 -0.38948041710E+02 -0.59505281563E+02  0.17518010140E+03  0.12500000000E+03 0.  0.
          2    1    1    2  502    0 -0.14538623552E+03 -0.73295904396E+01  0.28653659273E+03  0.32139399395E+03  0.00000000000E+00 0. -1.
         -1    1    1    2    0  501  0.45360041751E+02  0.46277632149E+02 -0.46634611772E+02  0.79836956606E+02  0.00000000000E+00 0.  1.
<mgrwt>
<rscale>  0 0.95086559E+02</rscale>
<asrwt>0</asrwt>
<pdfrwt beam="1">  1        2 0.58215981E-01 0.13952674E+03</pdfrwt>
<pdfrwt beam="2">  1       -1 0.30462642E-01 0.64800869E+02</pdfrwt>
<totfact> 0.94658787E+02</totfact>
</mgrwt>
</event>
<event>
 5    1  0.7156190E-003  0.4516528E+02  0.7546771E-02  0.1499710E+00
          2   -1    0    0  502    0  0.00000000000E+00  0.00000000000E+00  0.74150729556E+02  0.74150729556E+02  0.00000000000E+00 0. -1.
         -1   -1    0    0    0  501 -0.00000000000E+00 -0.00000000000E+00 -0.17439643496E+03  0.17439643496E+03  0.00000000000E+00 0.  1.
         25    1    1    2    0    0 -0.98344193592E+01  0.34071211609E+02 -0.96081575369E+02  0.16159898635E+03  0.12500000000E+03 0.  0.
          2    1    1    2  502    0 -0.27074179155E+02 -0.40952726109E+02  0.64076692944E+00  0.49097327166E+02  0.00000000000E+00 0. -1.
         -1    1    1    2    0  501  0.36908598514E+02  0.68815144999E+01 -0.48048969594E+01  0.37850850993E+02  0.00000000000E+00 0.  1.
<mgrwt>
<rscale>  0 0.41179047E+02</rscale>
<asrwt>0</asrwt>
<pdfrwt beam="1">  1        2 0.11407805E-01 0.45165275E+02</pdfrwt>
<pdfrwt beam="2">  1       -1 0.26830220E-01 0.37544639E+02</pdfrwt>
<totfact> 0.65524180E+03</totfact>
</mgrwt>
</event>
<event>
 5    1  0.7156190E-003  0.8556444E+02  0.7546771E-02  0.1325774E+00
          3   -1    0    0  502    0  0.00000000000E+00  0.00000000000E+00  0.67432509032E+03  0.67432509032E+03  0.00000000000E+00 0. -1.
         -1   -1    0    0    0  501 -0.00000000000E+00 -0.00000000000E+00 -0.22959977650E+03  0.22959977650E+03  0.00000000000E+00 0.  1.
         25    1    1    2    0    0 -0.28678956281E+02  0.16140418033E+02  0.12188047359E+03  0.17765935233E+03  0.12500000000E+03 0.  0.
          3    1    1    2  502    0 -0.51591775318E+02 -0.57152493469E+02  0.51145720104E+03  0.51722005693E+03  0.00000000000E+00 0. -1.
         -1    1    1    2    0  501  0.80270731599E+02  0.41012075436E+02 -0.18861236081E+03  0.20904545757E+03  0.00000000000E+00 0.  1.
<mgrwt>
<rscale>  0 0.81166326E+02</rscale>
<asrwt>0</asrwt>
<pdfrwt beam="1">  1        3 0.10374232E+00 0.76994278E+02</pdfrwt>
<pdfrwt beam="2">  1       -1 0.35323043E-01 0.85564444E+02</pdfrwt>
<totfact> 0.28614017E+01</totfact>
</mgrwt>
</event>
<event>
 5    1  0.7156190E-003  0.8283551E+02  0.7546771E-02  0.1322147E+00
         -3   -1    0    0    0  501 -0.00000000000E+00  0.00000000000E+00  0.62539286092E+03  0.62539286092E+03  0.00000000000E+00 0.  1.
          3   -1    0    0  502    0  0.00000000000E+00 -0.00000000000E+00 -0.17778334940E+03  0.17778334940E+03  0.00000000000E+00 0. -1.
         25    1    1    2    0    0 -0.53044407251E+01  0.19484222801E+02  0.91884289432E+01  0.12695353188E+03  0.12500000000E+03 0.  0.
          3    1    1    2  502    0  0.22372155682E+02 -0.10054231860E+03 -0.92764835956E+02  0.13861668719E+03  0.00000000000E+00 0. -1.
         -3    1    1    2    0  501 -0.17067714957E+02  0.81058095794E+02  0.53118591853E+03  0.53760599126E+03  0.00000000000E+00 0.  1.
<mgrwt>
<rscale>  0 0.82483655E+02</rscale>
<asrwt>0</asrwt>
<pdfrwt beam="2">  1        3 0.27351285E-01 0.82133294E+02</pdfrwt>
<pdfrwt beam="1">  1       -3 0.96214285E-01 0.82835510E+02</pdfrwt>
<totfact> 0.28554880E+01</totfact>
</mgrwt>
</event>
<event>
 5    1  0.7156190E-003  0.1360751E+03  0.7546771E-02  0.1308907E+00
          3   -1    0    0  502    0  0.00000000000E+00  0.00000000000E+00  0.11840942757E+04  0.11840942757E+04  0.00000000000E+00 0. -1.
         -2   -1    0    0    0  501 -0.00000000000E+00 -0.00000000000E+00 -0.22399656357E+03  0.22399656357E+03  0.00000000000E+00 0.  1.
         25    1    1    2    0    0  0.68899855822E+02 -0.14133713707E+03  0.46999742238E+02  0.20629433394E+03  0.12500000000E+03 0.  0.
          3    1    1    2  502    0 -0.98217302855E+02  0.93245303232E+02  0.10474223487E+04  0.10561415160E+04  0.00000000000E+00 0. -1.
         -2    1    1    2    0  501  0.29317447033E+02  0.48091833837E+02 -0.13432437882E+03  0.14565498937E+03  0.00000000000E+00 0.  1.
<mgrwt>
<rscale>  0 0.87545575E+02</rscale>
<asrwt>0</asrwt>
<pdfrwt beam="1">  1        3 0.18216835E+00 0.13607512E+03</pdfrwt>
<pdfrwt beam="2">  1       -2 0.34461010E-01 0.56323505E+02</pdfrwt>
<totfact> 0.64926303E+00</totfact>
</mgrwt>
</event>
<event>
 5    1  0.7156190E-003  0.1375699E+03  0.7546771E-02  0.1332678E+00
          2   -1    0    0  501    0  0.00000000000E+00  0.00000000000E+00  0.13052156856E+04  0.13052156856E+04  0.00000000000E+00 0. -1.
          3   -1    0    0  502    0 -0.00000000000E+00 -0.00000000000E+00 -0.34175952926E+04  0.34175952926E+04  0.00000000000E+00 0. -1.
         25    1    1    2    0    0 -0.12569150556E+03  0.65904796242E+02 -0.12028026495E+03  0.22412973670E+03  0.12500000000E+03 0.  0.
          2    1    1    2  501    0  0.95365319619E+02 -0.99236252869E+02  0.12493553407E+04  0.12569133405E+04  0.00000000000E+00 0. -1.
          3    1    1    2  502    0  0.30326185940E+02  0.33331456627E+02 -0.32414546828E+04  0.32417679010E+04  0.00000000000E+00 0. -1.
<mgrwt>
<rscale>  0 0.78735598E+02</rscale>
<asrwt>0</asrwt>
<pdfrwt beam="1">  1        2 0.20080241E+00 0.13756985E+03</pdfrwt>
<pdfrwt beam="2">  1        3 0.52578389E+00 0.45062884E+02</pdfrwt>
<totfact> 0.48395255E-02</totfact>
</mgrwt>
</event>
<event>
 5    1  0.7156190E-003  0.1134825E+03  0.7546771E-02  0.1413520E+00
         -1   -1    0    0    0  501 -0.00000000000E+00  0.00000000000E+00  0.40695872535E+03  0.40695872535E+03  0.00000000000E+00 0.  1.
          1   -1    0    0  502    0  0.00000000000E+00 -0.00000000000E+00 -0.10656738021E+03  0.10656738021E+03  0.00000000000E+00 0. -1.
         25    1    1    2    0    0  0.12457210666E+03  0.43900307573E+02  0.13996353074E+03  0.22947818350E+03  0.12500000000E+03 0.  0.
          1    1    1    2  502    0 -0.97032760381E+02 -0.49207603295E+02 -0.11906501188E+02  0.10944637765E+03  0.00000000000E+00 0. -1.
         -1    1    1    2    0  501 -0.27539346281E+02  0.53072957217E+01  0.17233431559E+03  0.17460154441E+03  0.00000000000E+00 0.  1.
<mgrwt>
<rscale>  0 0.56415773E+02</rscale>
<asrwt>0</asrwt>
<pdfrwt beam="2">  1        1 0.16394982E-01 0.11348248E+03</pdfrwt>
<pdfrwt beam="1">  1       -1 0.62609034E-01 0.28046087E+02</pdfrwt>
<totfact> 0.89165304E+02</totfact>
</mgrwt>
</event>
<event>
 5    1  0.7156190E-003  0.1361019E+03  0.7546771E-02  0.1417240E+00
         -1   -1    0    0    0  501  0.00000000000E+00  0.00000000000E+00  0.61120429497E+03  0.61120429497E+03  0.00000000000E+00 0.  1.
         -1   -1    0    0    0  502 -0.00000000000E+00 -0.00000000000E+00 -0.35136081666E+03  0.35136081666E+03  0.00000000000E+00 0.  1.
         25    1    1    2    0    0  0.47044949896E+02 -0.12496921288E+03 -0.19537381207E+03  0.26763119759E+03  0.12500000000E+03 0.  0.
         -1    1    1    2    0  501 -0.26082947824E+02  0.13373502547E+03  0.56583383112E+03  0.58200799105E+03  0.00000000000E+00 0.  1.
         -1    1    1    2    0  502 -0.20962002072E+02 -0.87658125957E+01 -0.11061654073E+03  0.11292592300E+03  0.00000000000E+00 0.  1.
<mgrwt>
<rscale>  0 0.55609131E+02</rscale>
<asrwt>0</asrwt>
<pdfrwt beam="1">  1       -1 0.94031430E-01 0.13610193E+03</pdfrwt>
<pdfrwt beam="2">  1       -1 0.54055510E-01 0.22721026E+02</pdfrwt>
<totfact> 0.36579907E+01</totfact>
</mgrwt>
</event>
<event>
 5    1  0.7156190E-003  0.8730915E+02  0.7546771E-02  0.1423967E+00
          2   -1    0    0  502    0  0.00000000000E+00  0.00000000000E+00  0.78998172840E+03  0.78998172840E+03  0.00000000000E+00 0. -1.
         -1   -1    0    0    0  501 -0.00000000000E+00 -0.00000000000E+00 -0.52513434597E+02  0.52513434597E+02  0.00000000000E+00 0.  1.
         25    1    1    2    0    0  0.48630960521E+00  0.63392484605E+02  0.23355830739E+03  0.27238451967E+03  0.12500000000E+03 0.  0.
          2    1    1    2  502    0  0.17217110052E+02  0.28893649339E+02  0.46847781341E+03  0.46968365259E+03  0.00000000000E+00 0. -1.
         -1    1    1    2    0  501 -0.17703419658E+02 -0.92286133944E+02  0.35432172998E+02  0.10042699074E+03  0.00000000000E+00 0.  1.
<mgrwt>
<rscale>  0 0.54190308E+02</rscale>
<asrwt>0</asrwt>
<pdfrwt beam="1">  1        2 0.12153564E+00 0.33634385E+02</pdfrwt>
<pdfrwt beam="2">  1       -1 0.80789905E-02 0.87309149E+02</pdfrwt>
<totfact> 0.34752131E+03</totfact>
</mgrwt>
</event>
<event>
 5    1  0.7156190E-003  0.3094715E+03  0.7546771E-02  0.1218938E+00
         -2   -1    0    0    0  501  0.00000000000E+00  0.00000000000E+00  0.11136186414E+04  0.11136186414E+04  0.00000000000E+00 0.  1.
         -1   -1    0    0    0  502 -0.00000000000E+00 -0.00000000000E+00 -0.78302083808E+03  0.78302083808E+03  0.00000000000E+00 0.  1.
         25    1    1    2    0    0 -0.23603233199E+03  0.14389228793E+03  0.38894403257E+03  0.49327346649E+03  0.12500000000E+03 0.  0.
         -2    1    1    2    0  501  0.28667680246E+03 -0.17548177034E+03  0.62913740135E+03  0.71329608899E+03  0.00000000000E+00 0.  1.
         -1    1    1    2    0  502 -0.50644470476E+02  0.31589482413E+02 -0.68748363056E+03  0.69006992405E+03  0.00000000000E+00 0.  1.
<mgrwt>
<rscale>  0 0.13591172E+03</rscale>
<asrwt>0</asrwt>
<pdfrwt beam="1">  1       -2 0.17132594E+00 0.30947153E+03</pdfrwt>
<pdfrwt beam="2">  1       -1 0.12046474E+00 0.59688841E+02</pdfrwt>
<totfact> 0.11805941E+00</totfact>
</mgrwt>
</event>
<event>
 5    1  0.7156190E-003  0.7261082E+02  0.7546771E-02  0.1432413E+00
          2   -1    0    0  502    0  0.00000000000E+00  0.00000000000E+00  0.14790815754E+04  0.14790815754E+04  0.00000000000E+00 0. -1.
         -2   -1    0    0    0  501 -0.00000000000E+00 -0.00000000000E+00 -0.11735794383E+02  0.11735794383E+02  0.00000000000E+00 0.  1.
         25    1    1    2    0    0  0.50216111193E+02 -0.53274302202E+02  0.71968171242E+03  0.73411618718E+03  0.12500000000E+03 0.  0.
          2    1    1    2  502    0  0.22667526372E+02  0.30409776493E+02  0.18260111999E+03  0.18649863346E+03  0.00000000000E+00 0.  1.
         -2    1    1    2    0  501 -0.72883637565E+02  0.22864525708E+02  0.56506294863E+03  0.57020254917E+03  0.00000000000E+00 0. -1.
<mgrwt>
<rscale>  0 0.52478753E+02</rscale>
<asrwt>0</asrwt>
<pdfrwt beam="1">  1        2 0.22755086E+00 0.37928502E+02</pdfrwt>
<pdfrwt beam="2">  1       -2 0.18055080E-02 0.72610817E+02</pdfrwt>
<totfact> 0.12481102E+04</totfact>
</mgrwt>
</event>
<event>
 5    1  0.7156190E-003  0.2607188E+02  0.7546771E-02  0.1675469E+00
         -1   -1    0    0    0  501  0.00000000000E+00  0.00000000000E+00  0.83939556621E+02  0.83939556621E+02  0.00000000000E+00 0.  1.
         -1   -1    0    0    0  502 -0.00000000000E+00 -0.00000000000E+00 -0.16582419595E+03  0.16582419595E+03  0.00000000000E+00 0.  1.
         25    1    1    2    0    0 -0.85351655679E+01 -0.22458797524E+01 -0.46529183798E+01  0.12539753856E+03  0.12500000000E+03 0.  0.
         -1    1    1    2    0  502  0.21730652268E+02 -0.15522420624E+02 -0.93280326387E+02  0.97027759331E+02  0.00000000000E+00 0.  1.
         -1    1    1    2    0  501 -0.13195486700E+02  0.17768300376E+02  0.16048605441E+02  0.27338454677E+02  0.00000000000E+00 0.  1.
<mgrwt>
<rscale>  0 0.24021397E+02</rscale>
<asrwt>0</asrwt>
<pdfrwt beam="1">  1       -1 0.12913778E-01 0.22132179E+02</pdfrwt>
<pdfrwt beam="2">  1       -1 0.25511415E-01 0.26071880E+02</pdfrwt>
<totfact> 0.36785695E+03</totfact>
</mgrwt>
</event>
<event>
 5    1  0.7156190E-003  0.1076954E+03  0.7546771E-02  0.1361049E+00
         -1   -1    0    0    0  501 -0.00000000000E+00  0.00000000000E+00  0.45101174074E+03  0.45101174074E+03  0.00000000000E+00 0.  1.
          2   -1    0    0  502    0  0.00000000000E+00 -0.00000000000E+00 -0.23211864616E+04  0.23211864616E+04  0.00000000000E+00 0. -1.
         25    1    1    2    0    0 -0.11067868908E+02 -0.11145974416E+03 -0.78129506462E+03  0.79911998491E+03  0.12500000000E+03 0.  0.
          2    1    1    2  502    0  0.52942424926E+02  0.94617160902E+02 -0.15279009079E+04  0.15317429588E+04  0.00000000000E+00 0. -1.
         -1    1    1    2    0  501 -0.41874556018E+02  0.16842583256E+02  0.43902125168E+03  0.44133525860E+03  0.00000000000E+00 0.  1.
<mgrwt>
<rscale>  0 0.69719515E+02</rscale>
<asrwt>0</asrwt>
<pdfrwt beam="2">  1        2 0.35710561E+00 0.10769539E+03</pdfrwt>
<pdfrwt beam="1">  1       -1 0.69386421E-01 0.45134810E+02</pdfrwt>
<totfact> 0.14713698E+01</totfact>
</mgrwt>
</event>
<event>
 5    1  0.7156190E-003  0.1207122E+03  0.7546771E-02  0.1284585E+00
          2   -1    0    0  501    0  0.00000000000E+00  0.00000000000E+00  0.10114486723E+04  0.10114486723E+04  0.00000000000E+00 0. -1.
          3   -1    0    0  502    0 -0.00000000000E+00 -0.00000000000E+00 -0.13301723362E+03  0.13301723362E+03  0.00000000000E+00 0. -1.
         25    1    1    2    0    0 -0.14600730346E+03  0.12198150174E+03  0.21422923599E+03  0.31259684097E+03  0.12500000000E+03 0.  0.
          2    1    1    2  501    0  0.59314825260E+02 -0.52995965266E+02  0.70820650490E+03  0.71265929757E+03  0.00000000000E+00 0. -1.
          3    1    1    2  502    0  0.86692478205E+02 -0.68985536476E+02 -0.44004302230E+02  0.11920976736E+03  0.00000000000E+00 0. -1.
<mgrwt>
<rscale>  0 0.97987779E+02</rscale>
<asrwt>0</asrwt>
<pdfrwt beam="1">  1        2 0.15560748E+00 0.79541315E+02</pdfrwt>
<pdfrwt beam="2">  1        3 0.20464190E-01 0.12071217E+03</pdfrwt>
<totfact> 0.35208627E+02</totfact>
</mgrwt>
</event>
<event>
 5    1  0.7156190E-003  0.9076550E+02  0.7546771E-02  0.1375296E+00
          2   -1    0    0  502    0  0.00000000000E+00  0.00000000000E+00  0.13681700847E+04  0.13681700847E+04  0.00000000000E+00 0. -1.
         -3   -1    0    0    0  501 -0.00000000000E+00 -0.00000000000E+00 -0.10069352135E+03  0.10069352135E+03  0.00000000000E+00 0.  1.
         25    1    1    2    0    0  0.42061745249E+02 -0.10077072178E+03  0.12486744155E+03  0.20770365125E+03  0.12500000000E+03 0.  0.
          2    1    1    2  502    0  0.23746113406E+02  0.41231275189E+02  0.11679102381E+04  0.11688790443E+04  0.00000000000E+00 0. -1.
         -3    1    1    2    0  501 -0.65807858654E+02  0.59539446587E+02 -0.25301116291E+02  0.92280910519E+02  0.00000000000E+00 0.  1.
<mgrwt>
<rscale>  0 0.65716514E+02</rscale>
<asrwt>0</asrwt>
<pdfrwt beam="1">  1        2 0.21048769E+00 0.47580416E+02</pdfrwt>
<pdfrwt beam="2">  1       -3 0.15491312E-01 0.90765499E+02</pdfrwt>
<totfact> 0.36939723E+02</totfact>
</mgrwt>
</event>
<event>
 5    1  0.7156190E-003  0.3429731E+02  0.7546771E-02  0.1560986E+00
         -3   -1    0    0    0  501 -0.00000000000E+00  0.00000000000E+00  0.15634902593E+04  0.15634902593E+04  0.00000000000E+00 0.  1.
          3   -1    0    0  502    0  0.00000000000E+00 -0.00000000000E+00 -0.68883629550E+02  0.68883629550E+02  0.00000000000E+00 0. -1.
         25    1    1    2    0    0  0.21483299235E+02  0.31065628249E+01  0.94209879749E+02  0.15802431560E+03  0.12500000000E+03 0.  0.
          3    1    1    2  502    0 -0.13050622456E+02  0.30312429670E+02 -0.29363232345E+02  0.44174218191E+02  0.00000000000E+00 0. -1.
         -3    1    1    2    0  501 -0.84326767786E+01 -0.33418992494E+02  0.14297599824E+04  0.14301753551E+04  0.00000000000E+00 0.  1.
<mgrwt>
<rscale>  0 0.33643657E+02</rscale>
<asrwt>0</asrwt>
<pdfrwt beam="2">  1        3 0.10597483E-01 0.33002457E+02</pdfrwt>
<pdfrwt beam="1">  1       -3 0.24053694E+00 0.34297315E+02</pdfrwt>
<totfact> 0.13276794E+01</totfact>
</mgrwt>
</event>
<event>
 5    1  0.7156190E-003  0.4944527E+02  0.7546771E-02  0.1489386E+00
          2   -1    0    0  502    0  0.00000000000E+00  0.00000000000E+00  0.35270673338E+03  0.35270673338E+03  0.00000000000E+00 0. -1.
         -2   -1    0    0    0  501 -0.00000000000E+00 -0.00000000000E+00 -0.38486372933E+02  0.38486372933E+02  0.00000000000E+00 0.  1.
         25    1    1    2    0    0  0.40519087764E+01  0.36130516182E+02  0.13378780357E+03  0.18667085618E+03  0.12500000000E+03 0.  0.
          2    1    1    2  502    0 -0.40857643311E+02 -0.34650755873E+02  0.13961808172E+03  0.14954340722E+03  0.00000000000E+00 0. -1.
         -2    1    1    2    0  501  0.36805734534E+02 -0.14797603091E+01  0.40814475150E+02  0.54978842903E+02  0.00000000000E+00 0.  1.
<mgrwt>
<rscale>  0 0.42677156E+02</rscale>
<asrwt>0</asrwt>
<pdfrwt beam="1">  1        2 0.54262572E-01 0.49445269E+02</pdfrwt>
<pdfrwt beam="2">  1       -2 0.59209807E-02 0.36835469E+02</pdfrwt>
<totfact> 0.11486932E+04</totfact>
</mgrwt>
</event>
<event>
 5    1  0.7156190E-003  0.6180190E+02  0.7546771E-02  0.1437103E+00
          1   -1    0    0  502    0  0.00000000000E+00  0.00000000000E+00  0.20228164302E+04  0.20228164302E+04  0.00000000000E+00 0. -1.
         -2   -1    0    0    0  501 -0.00000000000E+00 -0.00000000000E+00 -0.95840475414E+01  0.95840475414E+01  0.00000000000E+00 0.  1.
         25    1    1    2    0    0  0.96285819845E+01 -0.89579456803E+02  0.12948069962E+04  0.13039429995E+04  0.12500000000E+03 0.  0.
          1    1    1    2  502    0  0.13581531700E+02  0.53362632717E+02  0.59892220400E+03  0.60144811499E+03  0.00000000000E+00 0. -1.
         -2    1    1    2    0  501 -0.23210113684E+02  0.36216824086E+02  0.11950318246E+03  0.12700936321E+03  0.00000000000E+00 0.  1.
<mgrwt>
<rscale>  0 0.51560299E+02</rscale>
<asrwt>0</asrwt>
<pdfrwt beam="1">  1        1 0.31120219E+00 0.61801901E+02</pdfrwt>
<pdfrwt beam="2">  1       -2 0.14744705E-02 0.43015901E+02</pdfrwt>
<totfact> 0.31896559E+03</totfact>
</mgrwt>
</event>
<event>
 5    1  0.7156190E-003  0.6002414E+02  0.7546771E-02  0.1399241E+00
          3   -1    0    0  502    0 -0.00000000000E+00  0.00000000000E+00  0.25865416898E+03  0.25865416898E+03  0.00000000000E+00 0. -1.
          2   -1    0    0  501    0  0.00000000000E+00 -0.00000000000E+00 -0.38572161917E+03  0.38572161917E+03  0.00000000000E+00 0. -1.
         25    1    1    2    0    0  0.45462957823E+02  0.40567341853E+02 -0.11723650743E+02  0.13955297828E+03  0.12500000000E+03 0.  0.
          2    1    1    2  501    0  0.13868036107E+02 -0.57664570444E+02 -0.30223331869E+03  0.30799757147E+03  0.00000000000E+00 0. -1.
          3    1    1    2  502    0 -0.59330993930E+02  0.17097228591E+02  0.18688951925E+03  0.19682523840E+03  0.00000000000E+00 0. -1.
<mgrwt>
<rscale>  0 0.59665360E+02</rscale>
<asrwt>0</asrwt>
<pdfrwt beam="2">  1        2 0.59341787E-01 0.59308727E+02</pdfrwt>
<pdfrwt beam="1">  1        3 0.39792949E-01 0.60024138E+02</pdfrwt>
<totfact> 0.30026922E+02</totfact>
</mgrwt>
</event>
<event>
 5    1  0.9285712E-003  0.6464768E+02  0.7546771E-02  0.1399634E+00
          2   -1    0    0  502    0  0.00000000000E+00  0.00000000000E+00  0.11699399823E+04  0.11699399823E+04  0.00000000000E+00 0. -1.
         -1   -1    0    0    0  501 -0.00000000000E+00 -0.00000000000E+00 -0.16798192200E+02  0.16798192200E+02  0.00000000000E+00 0.  1.
         25    1    1    2    0    0  0.72820522126E+02  0.50027762035E+02  0.77977021331E+03  0.79465224531E+03  0.12500000000E+03 0.  0.
          2    1    1    2  502    0 -0.11598642538E+02 -0.53656482234E+02  0.13019735655E+03  0.14129719830E+03  0.00000000000E+00 0. -1.
         -1    1    1    2    0  501 -0.61221879587E+02  0.36287201983E+01  0.24317422023E+03  0.25078873088E+03  0.00000000000E+00 0.  1.
<mgrwt>
<rscale>  0 0.59572516E+02</rscale>
<asrwt>0</asrwt>
<pdfrwt beam="1">  1        2 0.17999070E+00 0.54895779E+02</pdfrwt>
<pdfrwt beam="2">  1       -1 0.25843382E-02 0.64647678E+02</pdfrwt>
<totfact> 0.10400497E+04</totfact>
</mgrwt>
</event>
<event>
 5    1  0.7156190E-003  0.4282761E+02  0.7546771E-02  0.1543768E+00
          1   -1    0    0  501    0  0.00000000000E+00  0.00000000000E+00  0.64624263618E+03  0.64624263618E+03  0.00000000000E+00 0. -1.
          1   -1    0    0  502    0 -0.00000000000E+00 -0.00000000000E+00 -0.59309578756E+02  0.59309578756E+02  0.00000000000E+00 0. -1.
         25    1    1    2    0    0  0.70197225657E+02  0.36956714625E+01  0.59100639796E+02  0.15511026433E+03  0.12500000000E+03 0.  0.
          1    1    1    2  501    0 -0.41267821463E+02 -0.95178177677E+01  0.51741851909E+03  0.51914886674E+03  0.00000000000E+00 0. -1.
          1    1    1    2  502    0 -0.28929404194E+02  0.58221463052E+01  0.10413898537E+02  0.31293083858E+02  0.00000000000E+00 0. -1.
<mgrwt>
<rscale>  0 0.35550235E+02</rscale>
<asrwt>0</asrwt>
<pdfrwt beam="1">  1        1 0.99421939E-01 0.42827605E+02</pdfrwt>
<pdfrwt beam="2">  1        1 0.91245510E-02 0.29509453E+02</pdfrwt>
<totfact> 0.25068013E+03</totfact>
</mgrwt>
</event>
<event>
 5    1  0.7156190E-003  0.5094699E+02  0.7546771E-02  0.1492033E+00
         -2   -1    0    0    0  501 -0.00000000000E+00  0.00000000000E+00  0.41819338686E+03  0.41819338686E+03  0.00000000000E+00 0.  1.
          1   -1    0    0  502    0  0.00000000000E+00 -0.00000000000E+00 -0.31831812382E+02  0.31831812382E+02  0.00000000000E+00 0. -1.
         25    1    1    2    0    0 -0.22476089246E+02  0.40124364909E+02  0.27315765686E+03  0.30390005717E+03  0.12500000000E+03 0.  0.
          1    1    1    2  502    0  0.50496533303E+02 -0.18989607163E+02  0.48641275576E+02  0.72639374622E+02  0.00000000000E+00 0. -1.
         -2    1    1    2    0  501 -0.28020444057E+02 -0.21134757746E+02  0.64562642034E+02  0.73485767441E+02  0.00000000000E+00 0.  1.
<mgrwt>
<rscale>  0 0.42285977E+02</rscale>
<asrwt>0</asrwt>
<pdfrwt beam="2">  1        1 0.48972022E-02 0.50946992E+02</pdfrwt>
<pdfrwt beam="1">  1       -2 0.64337440E-01 0.35097340E+02</pdfrwt>
<totfact> 0.30053080E+03</totfact>
</mgrwt>
</event>
<event>
 5    1  0.7156190E-003  0.7491406E+02  0.7546771E-02  0.1447969E+00
          1   -1    0    0  502    0 -0.00000000000E+00  0.00000000000E+00  0.82420545206E+03  0.82420545206E+03  0.00000000000E+00 0. -1.
          2   -1    0    0  501    0  0.00000000000E+00 -0.00000000000E+00 -0.23922207376E+02  0.23922207376E+02  0.00000000000E+00 0. -1.
         25    1    1    2    0    0 -0.58998806263E+02  0.66259054189E+02  0.27700969848E+03  0.31659199998E+03  0.12500000000E+03 0.  0.
          2    1    1    2  501    0  0.23326583708E+02 -0.22957306545E+02  0.12018839648E+03  0.12456491512E+03  0.00000000000E+00 0. -1.
          1    1    1    2  502    0  0.35672222555E+02 -0.43301747644E+02  0.40308514973E+03  0.40697074434E+03  0.00000000000E+00 0. -1.
<mgrwt>
<rscale>  0 0.49516051E+02</rscale>
<asrwt>0</asrwt>
<pdfrwt beam="2">  1        2 0.36803402E-02 0.74914057E+02</pdfrwt>
<pdfrwt beam="1">  1        1 0.12680082E+00 0.32728694E+02</pdfrwt>
<totfact> 0.69714834E+03</totfact>
</mgrwt>
</event>
<event>
 5    1  0.7156190E-003  0.1373390E+03  0.7546771E-02  0.1319399E+00
          1   -1    0    0  502    0 -0.00000000000E+00  0.00000000000E+00  0.52378269756E+03  0.52378269756E+03  0.00000000000E+00 0. -1.
          2   -1    0    0  501    0  0.00000000000E+00 -0.00000000000E+00 -0.53942911707E+03  0.53942911707E+03  0.00000000000E+00 0. -1.
         25    1    1    2    0    0  0.50588621580E+02 -0.10610099871E+03  0.13532342596E+03  0.21852702390E+03  0.12500000000E+03 0.  0.
          2    1    1    2  501    0 -0.10033190495E+03  0.95951853069E+02 -0.48620012040E+03  0.50563208594E+03  0.00000000000E+00 0. -1.
          1    1    1    2  502    0  0.49743283372E+02  0.10149145639E+02  0.33523027492E+03  0.33905270479E+03  0.00000000000E+00 0. -1.
<mgrwt>
<rscale>  0 0.83501140E+02</rscale>
<asrwt>0</asrwt>
<pdfrwt beam="2">  1        2 0.82989095E-01 0.13733902E+03</pdfrwt>
<pdfrwt beam="1">  1        1 0.80581953E-01 0.50768094E+02</pdfrwt>
<totfact> 0.34976830E+02</totfact>
</mgrwt>
</event>
<event>
 5    1  0.7156190E-003  0.9146176E+02  0.7546771E-02  0.1483034E+00
          2   -1    0    0  502    0  0.00000000000E+00  0.00000000000E+00  0.35675925466E+03  0.35675925466E+03  0.00000000000E+00 0. -1.
          2   -1    0    0  501    0 -0.00000000000E+00 -0.00000000000E+00 -0.45412787773E+03  0.45412787773E+03  0.00000000000E+00 0. -1.
         25    1    1    2    0    0  0.77228530950E+02 -0.17653235894E+02 -0.10864590265E+03  0.18358871123E+03  0.12500000000E+03 0.  0.
          2    1    1    2  501    0 -0.93856270655E+02  0.51244668944E+01 -0.30048405083E+03  0.31484269803E+03  0.00000000000E+00 0. -1.
          2    1    1    2  502    0  0.16627739704E+02  0.12528769000E+02  0.31176133040E+03  0.31245572312E+03  0.00000000000E+00 0. -1.
<mgrwt>
<rscale>  0 0.43637009E+02</rscale>
<asrwt>0</asrwt>
<pdfrwt beam="1">  1        2 0.54886039E-01 0.20819505E+02</pdfrwt>
<pdfrwt beam="2">  1        2 0.69865828E-01 0.91461758E+02</pdfrwt>
<totfact> 0.97706381E+02</totfact>
</mgrwt>
</event>
<event>
 5    1  0.7156190E-003  0.3530940E+02  0.7546771E-02  0.1546459E+00
         -2   -1    0    0    0  501  0.00000000000E+00  0.00000000000E+00  0.11551602073E+03  0.11551602073E+03  0.00000000000E+00 0.  1.
         -3   -1    0    0    0  502 -0.00000000000E+00 -0.00000000000E+00 -0.14244515438E+03  0.14244515438E+03  0.00000000000E+00 0.  1.
         25    1    1    2    0    0 -0.12566382369E+02  0.34552578378E+02 -0.82707122308E+02  0.15432842486E+03  0.12500000000E+03 0.  0.
         -2    1    1    2    0  501  0.35295685040E+02 -0.98397856673E+00  0.52084690574E+02  0.62925103007E+02  0.00000000000E+00 0.  1.
         -3    1    1    2    0  502 -0.22729302671E+02 -0.33568599811E+02  0.36932980816E+01  0.40707647241E+02  0.00000000000E+00 0.  1.
<mgrwt>
<rscale>  0 0.35242394E+02</rscale>
<asrwt>0</asrwt>
<pdfrwt beam="1">  1       -2 0.17771696E-01 0.35309398E+02</pdfrwt>
<pdfrwt beam="2">  1       -3 0.21914639E-01 0.35175518E+02</pdfrwt>
<totfact> 0.15068094E+03</totfact>
</mgrwt>
</event>
<event>
 5    1  0.7156190E-003  0.5332951E+02  0.7546771E-02  0.1554337E+00
         -2   -1    0    0    0  501 -0.00000000000E+00  0.00000000000E+00  0.55494142331E+03  0.55494142331E+03  0.00000000000E+00 0.  1.
          1   -1    0    0  502    0  0.00000000000E+00 -0.00000000000E+00 -0.21973956802E+02  0.21973956802E+02  0.00000000000E+00 0. -1.
         25    1    1    2    0    0  0.39322332367E+01  0.39631900312E+02  0.28529937014E+03  0.31401732529E+03  0.12500000000E+03 0.  0.
          1    1    1    2  502    0 -0.14852731671E+02  0.16420123574E+02  0.26779852134E+02  0.34747439857E+02  0.00000000000E+00 0. -1.
         -2    1    1    2    0  501  0.10920498435E+02 -0.56052023886E+02  0.22088824423E+03  0.22815061496E+03  0.00000000000E+00 0.  1.
<mgrwt>
<rscale>  0 0.34362318E+02</rscale>
<asrwt>0</asrwt>
<pdfrwt beam="2">  1        1 0.33806091E-02 0.22141005E+02</pdfrwt>
<pdfrwt beam="1">  1       -2 0.85375593E-01 0.53329509E+02</pdfrwt>
<totfact> 0.24034712E+03</totfact>
</mgrwt>
</event>
<event>
 5    1  0.7156190E-003  0.1176925E+03  0.7546771E-02  0.1416692E+00
         -1   -1    0    0    0  501 -0.00000000000E+00  0.00000000000E+00  0.50778417776E+02  0.50778417776E+02  0.00000000000E+00 0.  1.
          1   -1    0    0  502    0  0.00000000000E+00 -0.00000000000E+00 -0.42359699724E+04  0.42359699724E+04  0.00000000000E+00 0. -1.
         25    1    1    2    0    0 -0.99756690018E+02  0.56311933823E+02 -0.36160251222E+03  0.39937927830E+03  0.12500000000E+03 0.  0.
          1    1    1    2  502    0  0.87165681399E+02 -0.79500557832E+02 -0.38489578841E+04  0.38507655068E+04  0.00000000000E+00 0. -1.
         -1    1    1    2    0  501  0.12591008620E+02  0.23188624009E+02  0.25368841652E+02  0.36603605127E+02  0.00000000000E+00 0.  1.
<mgrwt>
<rscale>  0 0.55726909E+02</rscale>
<asrwt>0</asrwt>
<pdfrwt beam="2">  1        1 0.65168798E+00 0.11769245E+03</pdfrwt>
<pdfrwt beam="1">  1       -1 0.78120607E-02 0.26386470E+02</pdfrwt>
<totfact> 0.69324442E+00</totfact>
</mgrwt>
</event>
<event>
 5    1  0.7156190E-003  0.7683217E+02  0.7546771E-02  0.1379808E+00
          2   -1    0    0  501    0  0.00000000000E+00  0.00000000000E+00  0.57620249965E+03  0.57620249965E+03  0.00000000000E+00 0. -1.
          2   -1    0    0  502    0 -0.00000000000E+00 -0.00000000000E+00 -0.80667080530E+03  0.80667080530E+03  0.00000000000E+00 0. -1.
         25    1    1    2    0    0 -0.56049540926E+02 -0.98366992547E+02  0.43738430716E+03  0.46877249110E+03  0.12500000000E+03 0.  0.
          2    1    1    2  501    0  0.35796733248E+02  0.48123927001E+02  0.11482766373E+03  0.12954810234E+03  0.00000000000E+00 0. -1.
          2    1    1    2  502    0  0.20252807678E+02  0.50243065545E+02 -0.78268027654E+03  0.78455271151E+03  0.00000000000E+00 0. -1.
<mgrwt>
<rscale>  0 0.64514395E+02</rscale>
<asrwt>0</asrwt>
<pdfrwt beam="1">  1        2 0.88646538E-01 0.76832170E+02</pdfrwt>
<pdfrwt beam="2">  1        2 0.12410320E+00 0.54171412E+02</pdfrwt>
<totfact> 0.31546913E+02</totfact>
</mgrwt>
</event>
<event>
 5    1  0.7156190E-003  0.1414193E+03  0.7546771E-02  0.1307724E+00
          2   -1    0    0  501    0  0.00000000000E+00  0.00000000000E+00  0.81090103653E+03  0.81090103653E+03  0.00000000000E+00 0. -1.
          1   -1    0    0  502    0 -0.00000000000E+00 -0.00000000000E+00 -0.20014773155E+03  0.20014773155E+03  0.00000000000E+00 0. -1.
         25    1    1    2    0    0 -0.12291475822E+03  0.45579238005E+02  0.28175102438E+03  0.33495394380E+03  0.12500000000E+03 0.  0.
          2    1    1    2  501    0 -0.20293769708E+02 -0.50883592546E+02  0.47110424939E+03  0.47427860048E+03  0.00000000000E+00 0. -1.
          1    1    1    2  502    0  0.14320852793E+03  0.53043545411E+01 -0.14210196880E+03  0.20181622379E+03  0.00000000000E+00 0. -1.
<mgrwt>
<rscale>  0 0.88017708E+02</rscale>
<asrwt>0</asrwt>
<pdfrwt beam="1">  1        2 0.12475400E+00 0.54781174E+02</pdfrwt>
<pdfrwt beam="2">  1        1 0.30791959E-01 0.14141933E+03</pdfrwt>
<totfact> 0.73249012E+02</totfact>
</mgrwt>
</event>
<event>
 5    1  0.7156190E-003  0.6293901E+02  0.7546771E-02  0.1420760E+00
          2   -1    0    0  501    0  0.00000000000E+00  0.00000000000E+00  0.57206696405E+03  0.57206696405E+03  0.00000000000E+00 0. -1.
          1   -1    0    0  502    0 -0.00000000000E+00 -0.00000000000E+00 -0.12794395083E+04  0.12794395083E+04  0.00000000000E+00 0. -1.
         25    1    1    2    0    0 -0.84481451634E+01  0.70062082739E+02  0.18606970583E+02  0.14474559043E+03  0.12500000000E+03 0.  0.
          2    1    1    2  501    0 -0.35865918505E+02 -0.52092886362E+02  0.48787875725E+03  0.49196109063E+03  0.00000000000E+00 0. -1.
          1    1    1    2  502    0  0.44314063668E+02 -0.17969196377E+02 -0.12138582721E+04  0.12147997913E+04  0.00000000000E+00 0. -1.
<mgrwt>
<rscale>  0 0.54860386E+02</rscale>
<asrwt>0</asrwt>
<pdfrwt beam="1">  1        2 0.88010302E-01 0.62939013E+02</pdfrwt>
<pdfrwt beam="2">  1        1 0.19683685E+00 0.47818702E+02</pdfrwt>
<totfact> 0.87706966E+01</totfact>
</mgrwt>
</event>
<event>
 5    1  0.7156190E-003  0.5534470E+02  0.7546771E-02  0.1443702E+00
          3   -1    0    0  502    0  0.00000000000E+00  0.00000000000E+00  0.89010350125E+03  0.89010350125E+03  0.00000000000E+00 0. -1.
         -1   -1    0    0    0  501 -0.00000000000E+00 -0.00000000000E+00 -0.12249834500E+04  0.12249834500E+04  0.00000000000E+00 0.  1.
         25    1    1    2    0    0  0.87006952914E+02  0.20984010090E+02  0.20857368528E+03  0.25911102008E+03  0.12500000000E+03 0.  0.
          3    1    1    2  502    0 -0.43720483499E+02  0.13389223837E+02  0.65482682870E+03  0.65642130341E+03  0.00000000000E+00 0. -1.
         -1    1    1    2    0  501 -0.43286469414E+02 -0.34373233927E+02 -0.11982804627E+04  0.11995546278E+04  0.00000000000E+00 0.  1.
<mgrwt>
<rscale>  0 0.50305290E+02</rscale>
<asrwt>0</asrwt>
<pdfrwt beam="1">  1        3 0.13693900E+00 0.45724742E+02</pdfrwt>
<pdfrwt beam="2">  1       -1 0.18845899E+00 0.55344702E+02</pdfrwt>
<totfact> 0.44974139E-01</totfact>
</mgrwt>
</event>
<event>
 5    1  0.7156190E-003  0.6097210E+02  0.7546771E-02  0.1427097E+00
          2   -1    0    0  502    0  0.00000000000E+00  0.00000000000E+00  0.53269352937E+03  0.53269352937E+03  0.00000000000E+00 0. -1.
         -1   -1    0    0    0  501 -0.00000000000E+00 -0.00000000000E+00 -0.32118912075E+02  0.32118912075E+02  0.00000000000E+00 0.  1.
         25    1    1    2    0    0  0.43892220685E+02  0.66898476058E+02  0.25710412969E+03  0.29686607525E+03  0.12500000000E+03 0.  0.
          2    1    1    2  502    0 -0.55192604122E+02 -0.21249834948E+02  0.17625839718E+03  0.18591611445E+03  0.00000000000E+00 0. -1.
         -1    1    1    2    0  501  0.11300383437E+02 -0.45648641110E+02  0.67212090430E+02  0.82030251743E+02  0.00000000000E+00 0.  1.
<mgrwt>
<rscale>  0 0.53547249E+02</rscale>
<asrwt>0</asrwt>
<pdfrwt beam="1">  1        2 0.81952844E-01 0.60972099E+02</pdfrwt>
<pdfrwt beam="2">  1       -1 0.49413715E-02 0.47026557E+02</pdfrwt>
<totfact> 0.10237812E+04</totfact>
</mgrwt>
</event>
<event>
 5    1  0.7156190E-003  0.9563064E+02  0.7546771E-02  0.1353708E+00
          2   -1    0    0  502    0  0.00000000000E+00  0.00000000000E+00  0.48348576394E+03  0.48348576394E+03  0.00000000000E+00 0. -1.
          2   -1    0    0  501    0 -0.00000000000E+00 -0.00000000000E+00 -0.16357901363E+04  0.16357901363E+04  0.00000000000E+00 0. -1.
         25    1    1    2    0    0  0.10140955577E+02  0.41361119145E+02  0.54698304831E+02  0.14293525006E+03  0.12500000000E+03 0.  0.
          2    1    1    2  501    0 -0.30402578890E+02 -0.91498624490E+02 -0.15883019795E+04  0.15912257832E+04  0.00000000000E+00 0. -1.
          2    1    1    2  502    0  0.20261623312E+02  0.50137505345E+02  0.38129930231E+03  0.38511486697E+03  0.00000000000E+00 0. -1.
<mgrwt>
<rscale>  0 0.71912454E+02</rscale>
<asrwt>0</asrwt>
<pdfrwt beam="1">  1        2 0.74382425E-01 0.54076823E+02</pdfrwt>
<pdfrwt beam="2">  1        2 0.25166002E+00 0.95630637E+02</pdfrwt>
<totfact> 0.13003179E+02</totfact>
</mgrwt>
</event>
<event>
 5    1  0.7156190E-003  0.1439437E+03  0.7546771E-02  0.1407950E+00
          1   -1    0    0  502    0  0.00000000000E+00  0.00000000000E+00  0.16268447490E+03  0.16268447490E+03  0.00000000000E+00 0. -1.
          1   -1    0    0  501    0 -0.00000000000E+00 -0.00000000000E+00 -0.11174998996E+04  0.11174998996E+04  0.00000000000E+00 0. -1.
         25    1    1    2    0    0  0.14744226226E+03  0.28225520763E+02 -0.21985123857E+03  0.29410111837E+03  0.12500000000E+03 0.  0.
          1    1    1    2  501    0 -0.43573453892E+01 -0.22677328427E+02 -0.81948271696E+03  0.81980800867E+03  0.00000000000E+00 0. -1.
          1    1    1    2  502    0 -0.14308491687E+03 -0.55481923358E+01  0.84518530818E+02  0.16627524749E+03  0.00000000000E+00 0. -1.
<mgrwt>
<rscale>  0 0.57653885E+02</rscale>
<asrwt>0</asrwt>
<pdfrwt beam="1">  1        1 0.25028382E-01 0.14394370E+03</pdfrwt>
<pdfrwt beam="2">  1        1 0.17192305E+00 0.23092156E+02</pdfrwt>
<totfact> 0.35541023E+02</totfact>
</mgrwt>
</event>
<event>
 5    1  0.7156190E-003  0.6624566E+02  0.7546771E-02  0.1379379E+00
          2   -1    0    0  501    0  0.00000000000E+00  0.00000000000E+00  0.63005615761E+02  0.63005615761E+02  0.00000000000E+00 0. -1.
          1   -1    0    0  502    0 -0.00000000000E+00 -0.00000000000E+00 -0.13944404179E+04  0.13944404179E+04  0.00000000000E+00 0. -1.
         25    1    1    2    0    0 -0.11962627784E+02 -0.23609736991E+01 -0.33169145143E+03  0.35467294457E+03  0.12500000000E+03 0.  0.
          2    1    1    2  501    0  0.36830508399E+01 -0.66143199154E+02  0.28572417148E+02  0.72144789691E+02  0.00000000000E+00 0. -1.
          1    1    1    2  502    0  0.82795769444E+01  0.68504172854E+02 -0.10283157679E+04  0.10306282994E+04  0.00000000000E+00 0. -1.
<mgrwt>
<rscale>  0 0.64627312E+02</rscale>
<asrwt>0</asrwt>
<pdfrwt beam="1">  1        2 0.96931717E-02 0.66245661E+02</pdfrwt>
<pdfrwt beam="2">  1        1 0.21452929E+00 0.63048498E+02</pdfrwt>
<totfact> 0.79541893E+02</totfact>
</mgrwt>
</event>
<event>
 5    1  0.7156190E-003  0.4397034E+02  0.7546771E-02  0.1526586E+00
         -3   -1    0    0    0  502 -0.00000000000E+00  0.00000000000E+00  0.43389205706E+03  0.43389205706E+03  0.00000000000E+00 0.  1.
         -2   -1    0    0    0  501  0.00000000000E+00 -0.00000000000E+00 -0.33986178662E+02  0.33986178662E+02  0.00000000000E+00 0. -1.
         25    1    1    2    0    0 -0.38080073916E+01 -0.50968586960E+02  0.22242200925E+03  0.26020923884E+03  0.12500000000E+03 0.  0.
         -2    1    1    2    0  501 -0.24989697151E+02  0.36636104841E+02  0.23164694595E+02  0.50032911341E+02  0.00000000000E+00 0. -1.
         -3    1    1    2    0  502  0.28797704543E+02  0.14332482120E+02  0.15431917455E+03  0.15763608554E+03  0.00000000000E+00 0.  1.
<mgrwt>
<rscale>  0 0.37608536E+02</rscale>
<asrwt>0</asrwt>
<pdfrwt beam="2">  1       -2 0.52286432E-02 0.43970336E+02</pdfrwt>
<pdfrwt beam="1">  1       -3 0.66752620E-01 0.32167186E+02</pdfrwt>
<totfact> 0.12379537E+03</totfact>
</mgrwt>
</event>
<event>
 5    1  0.7156190E-003  0.6253218E+02  0.7546771E-02  0.1389040E+00
          2   -1    0    0  502    0  0.00000000000E+00  0.00000000000E+00  0.11672317774E+04  0.11672317774E+04  0.00000000000E+00 0. -1.
         -2   -1    0    0    0  501 -0.00000000000E+00 -0.00000000000E+00 -0.75924703692E+02  0.75924703692E+02  0.00000000000E+00 0.  1.
         25    1    1    2    0    0 -0.45445428444E+02 -0.58249486180E+02  0.21054528968E+03  0.25575888766E+03  0.12500000000E+03 0.  0.
          2    1    1    2  502    0  0.62483932098E+02 -0.24560159396E+01  0.91398984635E+03  0.91612647217E+03  0.00000000000E+00 0. -1.
         -2    1    1    2    0  501 -0.17038503653E+02  0.60705502119E+02 -0.33228062355E+02  0.71271121236E+02  0.00000000000E+00 0.  1.
<mgrwt>
<rscale>  0 0.62146178E+02</rscale>
<asrwt>0</asrwt>
<pdfrwt beam="1">  1        2 0.17957411E+00 0.62532182E+02</pdfrwt>
<pdfrwt beam="2">  1       -2 0.11680724E-01 0.61762558E+02</pdfrwt>
<totfact> 0.10851438E+03</totfact>
</mgrwt>
</event>
<event>
 5    1  0.7156190E-003  0.1711244E+03  0.7546771E-02  0.1375169E+00
          1   -1    0    0  502    0 -0.00000000000E+00  0.00000000000E+00  0.70325495248E+03  0.70325495248E+03  0.00000000000E+00 0. -1.
          2   -1    0    0  501    0  0.00000000000E+00 -0.00000000000E+00 -0.96159595198E+03  0.96159595198E+03  0.00000000000E+00 0.  1.
         25    1    1    2    0    0  0.10766005271E+03  0.16148876152E+03  0.42846786192E+02  0.23479811357E+03  0.12500000000E+03 0.  0.
          2    1    1    2  501    0 -0.99388973746E+02 -0.13761763482E+03 -0.85700802348E+03  0.87365870558E+03  0.00000000000E+00 0.  1.
          1    1    1    2  502    0 -0.82710789680E+01 -0.23871126700E+02  0.55582023780E+03  0.55639408532E+03  0.00000000000E+00 0. -1.
<mgrwt>
<rscale>  0 0.65750985E+02</rscale>
<asrwt>0</asrwt>
<pdfrwt beam="2">  1        2 0.14793784E+00 0.17112444E+03</pdfrwt>
<pdfrwt beam="1">  1        1 0.10819307E+00 0.25263441E+02</pdfrwt>
<totfact> 0.12042588E+02</totfact>
</mgrwt>
</event>
<event>
 5    1  0.7156190E-003  0.1129722E+03  0.7546771E-02  0.1380960E+00
          1   -1    0    0  502    0 -0.00000000000E+00  0.00000000000E+00  0.10106817509E+04  0.10106817509E+04  0.00000000000E+00 0. -1.
          2   -1    0    0  501    0  0.00000000000E+00 -0.00000000000E+00 -0.12530406146E+04  0.12530406146E+04  0.00000000000E+00 0. -1.
         25    1    1    2    0    0 -0.79472245338E+02  0.29172897012E+02 -0.97946843415E+02  0.17995966169E+03  0.12500000000E+03 0.  0.
          2    1    1    2  501    0  0.97843543195E+02 -0.60709531963E+02 -0.11107666473E+04  0.11167191012E+04  0.00000000000E+00 0. -1.
          1    1    1    2  502    0 -0.18371297858E+02  0.31536634952E+02  0.96635462711E+03  0.96704360257E+03  0.00000000000E+00 0. -1.
<mgrwt>
<rscale>  0 0.64212136E+02</rscale>
<asrwt>0</asrwt>
<pdfrwt beam="2">  1        2 0.19277548E+00 0.11297223E+03</pdfrwt>
<pdfrwt beam="1">  1        1 0.15548950E+00 0.36497451E+02</pdfrwt>
<totfact> 0.48611190E+01</totfact>
</mgrwt>
</event>
<event>
 5    1  0.7156190E-003  0.7180185E+02  0.7546771E-02  0.1436300E+00
         -1   -1    0    0    0  501 -0.00000000000E+00  0.00000000000E+00  0.33350070884E+03  0.33350070884E+03  0.00000000000E+00 0.  1.
          2   -1    0    0  502    0  0.00000000000E+00 -0.00000000000E+00 -0.14111161496E+04  0.14111161496E+04  0.00000000000E+00 0.  1.
         25    1    1    2    0    0  0.10581505528E+03 -0.16467644515E+02 -0.71144281499E+02  0.17931680911E+03  0.12500000000E+03 0.  0.
          2    1    1    2  502    0 -0.37248389670E+02 -0.17778955338E+00 -0.12811562284E+04  0.12816976070E+04  0.00000000000E+00 0.  1.
         -1    1    1    2    0  501 -0.68566665608E+02  0.16645434068E+02  0.27468506913E+03  0.28360244236E+03  0.00000000000E+00 0.  1.
<mgrwt>
<rscale>  0 0.51715896E+02</rscale>
<asrwt>0</asrwt>
<pdfrwt beam="2">  1        2 0.21709479E+00 0.37248814E+02</pdfrwt>
<pdfrwt beam="1">  1       -1 0.51307803E-01 0.71801855E+02</pdfrwt>
<totfact> 0.81128203E+01</totfact>
</mgrwt>
</event>
<event>
 5    1  0.7156190E-003  0.1123720E+03  0.7546771E-02  0.1367605E+00
          1   -1    0    0  502    0 -0.00000000000E+00  0.00000000000E+00  0.40403488331E+04  0.40403488331E+04  0.00000000000E+00 0. -1.
          2   -1    0    0  501    0  0.00000000000E+00 -0.00000000000E+00 -0.42734727214E+03  0.42734727214E+03  0.00000000000E+00 0.  1.
         25    1    1    2    0    0  0.69459039516E+02 -0.21350450810E+02  0.14967929080E+04  0.15037600903E+04  0.12500000000E+03 0.  0.
          2    1    1    2  501    0 -0.11040695116E+03  0.21970365180E+02 -0.41622087522E+03  0.43117538053E+03  0.00000000000E+00 0.  1.
          1    1    1    2  502    0  0.40947911645E+02 -0.61991437011E+00  0.25324295282E+04  0.25327606344E+04  0.00000000000E+00 0. -1.
<mgrwt>
<rscale>  0 0.67837485E+02</rscale>
<asrwt>0</asrwt>
<pdfrwt beam="2">  1        2 0.65745737E-01 0.11237196E+03</pdfrwt>
<pdfrwt beam="1">  1        1 0.62159210E+00 0.40952604E+02</pdfrwt>
<totfact> 0.18132500E+00</totfact>
</mgrwt>
</event>
<event>
 5    1  0.7156190E-003  0.1581343E+03  0.7546771E-02  0.1359405E+00
          1   -1    0    0  502    0 -0.00000000000E+00  0.00000000000E+00  0.10709682064E+04  0.10709682064E+04  0.00000000000E+00 0. -1.
          2   -1    0    0  501    0  0.00000000000E+00 -0.00000000000E+00 -0.24255219623E+04  0.24255219623E+04  0.00000000000E+00 0. -1.
         25    1    1    2    0    0  0.50408770033E+01  0.17262062196E+03 -0.60343243164E+03  0.63998358504E+03  0.12500000000E+03 0.  0.
          2    1    1    2  501    0 -0.26690005750E+02 -0.16092618253E+02 -0.17977481674E+04  0.17980182986E+04  0.00000000000E+00 0. -1.
          1    1    1    2  502    0  0.21649128747E+02 -0.15652800371E+03  0.10466268432E+04  0.10584882850E+04  0.00000000000E+00 0. -1.
<mgrwt>
<rscale>  0 0.70202838E+02</rscale>
<asrwt>0</asrwt>
<pdfrwt beam="2">  1        2 0.37315722E+00 0.31166148E+02</pdfrwt>
<pdfrwt beam="1">  1        1 0.16476434E+00 0.15813435E+03</pdfrwt>
<totfact> 0.11910828E+01</totfact>
</mgrwt>
</event>
<event>
 5    1  0.7156190E-003  0.9683335E+02  0.7546771E-02  0.1348074E+00
          2   -1    0    0  502    0  0.00000000000E+00  0.00000000000E+00  0.23327501005E+03  0.23327501005E+03  0.00000000000E+00 0. -1.
          2   -1    0    0  501    0 -0.00000000000E+00 -0.00000000000E+00 -0.93603421585E+03  0.93603421585E+03  0.00000000000E+00 0.  1.
         25    1    1    2    0    0 -0.10311057469E+03  0.10591138438E+03 -0.15056312570E+03  0.24524124200E+03  0.12500000000E+03 0.  0.
          2    1    1    2  501    0  0.56628668294E+02 -0.74623870121E+02 -0.73085228867E+03  0.73683145693E+03  0.00000000000E+00 0.  1.
          2    1    1    2  502    0  0.46481906399E+02 -0.31287514264E+02  0.17865620857E+03  0.18723652697E+03  0.00000000000E+00 0. -1.
<mgrwt>
<rscale>  0 0.73659163E+02</rscale>
<asrwt>0</asrwt>
<pdfrwt beam="1">  1        2 0.35888464E-01 0.56031029E+02</pdfrwt>
<pdfrwt beam="2">  1        2 0.14400526E+00 0.96833353E+02</pdfrwt>
<totfact> 0.65778529E+02</totfact>
</mgrwt>
</event>
<event>
 5    1  0.7156190E-003  0.1359934E+03  0.7546771E-02  0.1260840E+00
          3   -1    0    0  502    0 -0.00000000000E+00  0.00000000000E+00  0.52290776561E+03  0.52290776561E+03  0.00000000000E+00 0. -1.
          1   -1    0    0  501    0  0.00000000000E+00 -0.00000000000E+00 -0.74787758043E+03  0.74787758043E+03  0.00000000000E+00 0. -1.
         25    1    1    2    0    0 -0.77160256516E-01 -0.57428565237E+02  0.74079138877E+02  0.15623944725E+03  0.12500000000E+03 0.  0.
          1    1    1    2  501    0  0.46229930494E+02  0.13322115613E+03 -0.69480122901E+03  0.70896673458E+03  0.00000000000E+00 0. -1.
          3    1    1    2  502    0 -0.46152770238E+02 -0.75792590894E+02  0.39575227531E+03  0.40557916422E+03  0.00000000000E+00 0. -1.
<mgrwt>
<rscale>  0 0.10985402E+03</rscale>
<asrwt>0</asrwt>
<pdfrwt beam="2">  1        1 0.11505809E+00 0.13599339E+03</pdfrwt>
<pdfrwt beam="1">  1        3 0.80447349E-01 0.88738915E+02</pdfrwt>
<totfact> 0.20724881E+01</totfact>
</mgrwt>
</event>
<event>
 5    1  0.7156190E-003  0.5591912E+02  0.7546771E-02  0.1426360E+00
          2   -1    0    0  501    0  0.00000000000E+00  0.00000000000E+00  0.13147467329E+03  0.13147467329E+03  0.00000000000E+00 0. -1.
          1   -1    0    0  502    0 -0.00000000000E+00 -0.00000000000E+00 -0.11095288969E+04  0.11095288969E+04  0.00000000000E+00 0. -1.
         25    1    1    2    0    0  0.21681000792E+02 -0.93100004817E+01 -0.75444776539E+02  0.14789745167E+03  0.12500000000E+03 0.  0.
          2    1    1    2  501    0 -0.48324231620E+02 -0.34838019742E+02  0.85194715264E+02  0.10395700308E+03  0.00000000000E+00 0. -1.
          1    1    1    2  502    0  0.26643230829E+02  0.44148020224E+02 -0.98780416236E+03  0.98914911546E+03  0.00000000000E+00 0. -1.
<mgrwt>
<rscale>  0 0.53697743E+02</rscale>
<asrwt>0</asrwt>
<pdfrwt beam="1">  1        2 0.20226873E-01 0.55919115E+02</pdfrwt>
<pdfrwt beam="2">  1        1 0.17069675E+00 0.51564614E+02</pdfrwt>
<totfact> 0.52753861E+02</totfact>
</mgrwt>
</event>
<event>
 5    1  0.7156190E-003  0.5942429E+02  0.7546771E-02  0.1452566E+00
          1   -1    0    0  502    0 -0.00000000000E+00  0.00000000000E+00  0.17102130116E+03  0.17102130116E+03  0.00000000000E+00 0.  1.
          2   -1    0    0  501    0  0.00000000000E+00 -0.00000000000E+00 -0.25992845036E+03  0.25992845036E+03  0.00000000000E+00 0. -1.
         25    1    1    2    0    0 -0.78879831775E+02 -0.29745426452E+02  0.15021292487E+02  0.15151718544E+03  0.12500000000E+03 0.  0.
          2    1    1    2  501    0  0.58294232368E+02 -0.44183804912E+01 -0.18232729067E+03  0.19147057355E+03  0.00000000000E+00 0. -1.
          1    1    1    2  502    0  0.20585599406E+02  0.34163806943E+02  0.78398848986E+02  0.87961992531E+02  0.00000000000E+00 0.  1.
<mgrwt>
<rscale>  0 0.48684974E+02</rscale>
<asrwt>0</asrwt>
<pdfrwt beam="2">  1        2 0.39988992E-01 0.59424288E+02</pdfrwt>
<pdfrwt beam="1">  1        1 0.26310969E-01 0.39886497E+02</pdfrwt>
<totfact> 0.29075951E+03</totfact>
</mgrwt>
</event>
<event>
 5    1  0.7156190E-003  0.2337838E+02  0.7546771E-02  0.1688498E+00
          1   -1    0    0  501    0  0.00000000000E+00  0.00000000000E+00  0.71375814852E+03  0.71375814852E+03  0.00000000000E+00 0. -1.
          1   -1    0    0  502    0 -0.00000000000E+00 -0.00000000000E+00 -0.17317692436E+04  0.17317692436E+04  0.00000000000E+00 0. -1.
         25    1    1    2    0    0 -0.53522464219E+01  0.20778517859E+02 -0.32560338971E+03  0.34943234072E+03  0.12500000000E+03 0.  0.
          1    1    1    2  501    0 -0.17126572930E+02 -0.15924317343E+02  0.70155399512E+03  0.70194366687E+03  0.00000000000E+00 0. -1.
          1    1    1    2  502    0  0.22478819352E+02 -0.48542005157E+01 -0.13939617004E+04  0.13941513845E+04  0.00000000000E+00 0. -1.
<mgrwt>
<rscale>  0 0.23186889E+02</rscale>
<asrwt>0</asrwt>
<pdfrwt beam="1">  1        1 0.10980895E+00 0.23378378E+02</pdfrwt>
<pdfrwt beam="2">  1        1 0.26642604E+00 0.22996969E+02</pdfrwt>
<totfact> 0.24532706E+01</totfact>
</mgrwt>
</event>
<event>
 5    1  0.7156190E-003  0.1084054E+03  0.7546771E-02  0.1282226E+00
          1   -1    0    0  502    0 -0.00000000000E+00  0.00000000000E+00  0.92164255961E+03  0.92164255961E+03  0.00000000000E+00 0. -1.
          2   -1    0    0  501    0  0.00000000000E+00 -0.00000000000E+00 -0.11069412050E+03  0.11069412050E+03  0.00000000000E+00 0. -1.
         25    1    1    2    0    0  0.21168112954E+02  0.28221764349E+02  0.27403847608E+01  0.12991176505E+03  0.12500000000E+03 0.  0.
          2    1    1    2  501    0 -0.31677306449E+02  0.84850362178E+02  0.44452451828E+01  0.90679633382E+02  0.00000000000E+00 0. -1.
          1    1    1    2  502    0  0.10509193495E+02 -0.11307212653E+03  0.80376280916E+03  0.81174528169E+03  0.00000000000E+00 0. -1.
<mgrwt>
<rscale>  0 0.99087555E+02</rscale>
<asrwt>0</asrwt>
<pdfrwt beam="2">  1        2 0.17029865E-01 0.90570612E+02</pdfrwt>
<pdfrwt beam="1">  1        1 0.14179116E+00 0.10840540E+03</pdfrwt>
<totfact> 0.84498986E+02</totfact>
</mgrwt>
</event>
<event>
 5    1  0.7156190E-003  0.8724382E+02  0.7546771E-02  0.1327898E+00
          1   -1    0    0  501    0  0.00000000000E+00  0.00000000000E+00  0.33054107775E+03  0.33054107775E+03  0.00000000000E+00 0. -1.
          1   -1    0    0  502    0 -0.00000000000E+00 -0.00000000000E+00 -0.48600174267E+03  0.48600174267E+03  0.00000000000E+00 0. -1.
         25    1    1    2    0    0 -0.17126203193E+02  0.42377359313E+02 -0.11065560760E+03  0.17308613726E+03  0.12500000000E+03 0.  0.
          1    1    1    2  501    0  0.87871463768E+02 -0.20308473634E+02  0.28836749699E+03  0.30214175740E+03  0.00000000000E+00 0. -1.
          1    1    1    2  502    0 -0.70745260576E+02 -0.22068885679E+02 -0.33317255430E+03  0.34131492576E+03  0.00000000000E+00 0. -1.
<mgrwt>
<rscale>  0 0.80407864E+02</rscale>
<asrwt>0</asrwt>
<pdfrwt beam="1">  1        1 0.50852474E-01 0.87243816E+02</pdfrwt>
<pdfrwt beam="2">  1        1 0.74769499E-01 0.74107541E+02</pdfrwt>
<totfact> 0.45070284E+02</totfact>
</mgrwt>
</event>
<event>
 5    1  0.7156190E-003  0.9978021E+02  0.7546771E-02  0.1441887E+00
          1   -1    0    0  502    0 -0.00000000000E+00  0.00000000000E+00  0.47504544058E+03  0.47504544058E+03  0.00000000000E+00 0. -1.
          2   -1    0    0  501    0  0.00000000000E+00 -0.00000000000E+00 -0.35429583595E+03  0.35429583595E+03  0.00000000000E+00 0. -1.
         25    1    1    2    0    0  0.12205473925E+02  0.73783593465E+02  0.25636535814E+03  0.29485791343E+03  0.12500000000E+03 0.  0.
          2    1    1    2  501    0 -0.17765784236E+02 -0.98881839886E+02 -0.32663800873E+03  0.34173912579E+03  0.00000000000E+00 0. -1.
          1    1    1    2  502    0  0.55603103111E+01  0.25098246421E+02  0.19102225523E+03  0.19274423731E+03  0.00000000000E+00 0. -1.
<mgrwt>
<rscale>  0 0.50646114E+02</rscale>
<asrwt>0</asrwt>
<pdfrwt beam="2">  1        2 0.54507052E-01 0.99780209E+02</pdfrwt>
<pdfrwt beam="1">  1        1 0.73083914E-01 0.25706789E+02</pdfrwt>
<totfact> 0.63066289E+02</totfact>
</mgrwt>
</event>
<event>
 5    1  0.7156190E-003  0.1470467E+03  0.7546771E-02  0.1285264E+00
         -1   -1    0    0    0  501 -0.00000000000E+00  0.00000000000E+00  0.61368084041E+02  0.61368084041E+02  0.00000000000E+00 0.  1.
          2   -1    0    0  502    0  0.00000000000E+00 -0.00000000000E+00 -0.19451203876E+04  0.19451203876E+04  0.00000000000E+00 0. -1.
         25    1    1    2    0    0 -0.36335819033E+02 -0.81703696825E+02 -0.17669113504E+03  0.23418057781E+03  0.12500000000E+03 0.  0.
          2    1    1    2  502    0  0.55581523760E+02  0.14366282546E+03 -0.17000909127E+04  0.17070551909E+04  0.00000000000E+00 0. -1.
         -1    1    1    2    0  501 -0.19245704727E+02 -0.61959128636E+02 -0.69702557546E+01  0.65252702910E+02  0.00000000000E+00 0.  1.
<mgrwt>
<rscale>  0 0.97674424E+02</rscale>
<asrwt>0</asrwt>
<pdfrwt beam="2">  1        2 0.29924926E+00 0.14704667E+03</pdfrwt>
<pdfrwt beam="1">  1       -1 0.94412446E-02 0.64879356E+02</pdfrwt>
<totfact> 0.58552878E+02</totfact>
</mgrwt>
</event>
<event>
 5    1  0.7156190E-003  0.5703861E+02  0.7546771E-02  0.1531715E+00
         -1   -1    0    0    0  501 -0.00000000000E+00  0.00000000000E+00  0.13603012823E+02  0.13603012823E+02  0.00000000000E+00 0.  1.
          2   -1    0    0  502    0  0.00000000000E+00 -0.00000000000E+00 -0.10923398130E+04  0.10923398130E+04  0.00000000000E+00 0. -1.
         25    1    1    2    0    0  0.68737336295E+01 -0.59537683656E+02 -0.51948284416E+03  0.53766105435E+03  0.12500000000E+03 0.  0.
          2    1    1    2  502    0  0.16625243617E+02  0.54802905233E+02 -0.51298578941E+03  0.51617262354E+03  0.00000000000E+00 0. -1.
         -1    1    1    2    0  501 -0.23498977246E+02  0.47347784227E+01 -0.46268166648E+02  0.52109147981E+02  0.00000000000E+00 0.  1.
<mgrwt>
<rscale>  0 0.36976829E+02</rscale>
<asrwt>0</asrwt>
<pdfrwt beam="2">  1        2 0.16805228E+00 0.57038610E+02</pdfrwt>
<pdfrwt beam="1">  1       -1 0.20927711E-02 0.23971234E+02</pdfrwt>
<totfact> 0.13092382E+04</totfact>
</mgrwt>
</event>
<event>
 5    1  0.7156190E-003  0.9072484E+02  0.7546771E-02  0.1383775E+00
          2   -1    0    0  501    0  0.00000000000E+00  0.00000000000E+00  0.71207310628E+03  0.71207310628E+03  0.00000000000E+00 0. -1.
          1   -1    0    0  502    0 -0.00000000000E+00 -0.00000000000E+00 -0.46015473587E+03  0.46015473587E+03  0.00000000000E+00 0. -1.
         25    1    1    2    0    0 -0.23073374448E+02 -0.12298489179E+03 -0.31416359293E+03  0.36052937098E+03  0.12500000000E+03 0.  0.
          2    1    1    2  501    0  0.39115067728E+02  0.81563238326E+02  0.68178615131E+03  0.68776079162E+03  0.00000000000E+00 0. -1.
          1    1    1    2  502    0 -0.16041693280E+02  0.41421653466E+02 -0.11570418798E+03  0.12393767956E+03  0.00000000000E+00 0. -1.
<mgrwt>
<rscale>  0 0.63481883E+02</rscale>
<asrwt>0</asrwt>
<pdfrwt beam="1">  1        2 0.10954971E+00 0.90724843E+02</pdfrwt>
<pdfrwt beam="2">  1        1 0.70793037E-01 0.44419470E+02</pdfrwt>
<totfact> 0.30341629E+02</totfact>
</mgrwt>
</event>
<event>
 5    1  0.7156190E-003  0.1150548E+03  0.7546771E-02  0.1413991E+00
          2   -1    0    0  501    0  0.00000000000E+00  0.00000000000E+00  0.13672969326E+04  0.13672969326E+04  0.00000000000E+00 0. -1.
          1   -1    0    0  502    0 -0.00000000000E+00 -0.00000000000E+00 -0.15933318351E+03  0.15933318351E+03  0.00000000000E+00 0. -1.
         25    1    1    2    0    0 -0.82554852458E+02 -0.67774150288E+02  0.67935121475E+03  0.69896474309E+03  0.12500000000E+03 0.  0.
          2    1    1    2  501    0  0.12981019910E+02 -0.24313449258E+02  0.65553477085E+03  0.65611392798E+03  0.00000000000E+00 0. -1.
          1    1    1    2  502    0  0.69573832548E+02  0.92087599546E+02 -0.12692223652E+03  0.17155144502E+03  0.00000000000E+00 0. -1.
<mgrwt>
<rscale>  0 0.56312626E+02</rscale>
<asrwt>0</asrwt>
<pdfrwt beam="1">  1        2 0.21035337E+00 0.27561761E+02</pdfrwt>
<pdfrwt beam="2">  1        1 0.24512798E-01 0.11505476E+03</pdfrwt>
<totfact> 0.50163519E+02</totfact>
</mgrwt>
</event>
<event>
 5    1  0.7156190E-003  0.2615994E+02  0.7546771E-02  0.1658220E+00
          2   -1    0    0  502    0  0.00000000000E+00  0.00000000000E+00  0.21085519386E+04  0.21085519386E+04  0.00000000000E+00 0. -1.
         -1   -1    0    0    0  501 -0.00000000000E+00 -0.00000000000E+00 -0.55523610885E+01  0.55523610885E+01  0.00000000000E+00 0.  1.
         25    1    1    2    0    0  0.58839638044E+01  0.37197820443E+02  0.11146881974E+04  0.11223070330E+04  0.12500000000E+03 0.  0.
          2    1    1    2  502    0 -0.19542965449E+02 -0.17142021897E+02  0.89515714184E+03  0.89553452474E+03  0.00000000000E+00 0. -1.
         -1    1    1    2    0  501  0.13659001644E+02 -0.20055798546E+02  0.93154238217E+02  0.96262741905E+02  0.00000000000E+00 0.  1.
<mgrwt>
<rscale>  0 0.25194804E+02</rscale>
<asrwt>0</asrwt>
<pdfrwt beam="1">  1        2 0.32439197E+00 0.26159945E+02</pdfrwt>
<pdfrwt beam="2">  1       -1 0.85421108E-03 0.24265271E+02</pdfrwt>
<totfact> 0.15080236E+04</totfact>
</mgrwt>
</event>
<event>
 5    1  0.7156190E-003  0.7202101E+02  0.7546771E-02  0.1397031E+00
         -1   -1    0    0    0  501 -0.00000000000E+00  0.00000000000E+00  0.96368286674E+03  0.96368286674E+03  0.00000000000E+00 0.  1.
          1   -1    0    0  502    0  0.00000000000E+00 -0.00000000000E+00 -0.61412159943E+03  0.61412159943E+03  0.00000000000E+00 0. -1.
         25    1    1    2    0    0  0.94193767985E+02  0.16593389927E+02 -0.82627077498E+02  0.17776400213E+03  0.12500000000E+03 0.  0.
          1    1    1    2  502    0 -0.39931095245E+02  0.30595270329E+02 -0.48120172003E+03  0.48382399516E+03  0.00000000000E+00 0. -1.
         -1    1    1    2    0  501 -0.54262672739E+02 -0.47188660255E+02  0.91339006484E+03  0.91621646889E+03  0.00000000000E+00 0.  1.
<mgrwt>
<rscale>  0 0.60191325E+02</rscale>
<asrwt>0</asrwt>
<pdfrwt beam="2">  1        1 0.94480246E-01 0.50304701E+02</pdfrwt>
<pdfrwt beam="1">  1       -1 0.14825890E+00 0.72021014E+02</pdfrwt>
<totfact> 0.15553279E+01</totfact>
</mgrwt>
</event>
<event>
 5    1  0.7156190E-003  0.1159227E+03  0.7546771E-02  0.1269817E+00
          2   -1    0    0  501    0  0.00000000000E+00  0.00000000000E+00  0.34052271521E+03  0.34052271521E+03  0.00000000000E+00 0.  1.
          1   -1    0    0  502    0 -0.00000000000E+00 -0.00000000000E+00 -0.60951251683E+03  0.60951251683E+03  0.00000000000E+00 0. -1.
         25    1    1    2    0    0  0.93939962934E+02  0.43997135411E+02 -0.64451377250E+02  0.17475538501E+03  0.12500000000E+03 0.  0.
          2    1    1    2  501    0 -0.60674591735E+02  0.73599406747E+02  0.26942638010E+03  0.28581261878E+03  0.00000000000E+00 0.  1.
          1    1    1    2  502    0 -0.33265371198E+02 -0.11759654216E+03 -0.47396480448E+03  0.48946722825E+03  0.00000000000E+00 0. -1.
<mgrwt>
<rscale>  0 0.10515360E+03</rscale>
<asrwt>0</asrwt>
<pdfrwt beam="1">  1        2 0.52388110E-01 0.95384898E+02</pdfrwt>
<pdfrwt beam="2">  1        1 0.93771156E-01 0.11592274E+03</pdfrwt>
<totfact> 0.45984110E+02</totfact>
</mgrwt>
</event>
<event>
 5    1  0.7156190E-003  0.3528550E+02  0.7546771E-02  0.1548075E+00
          2   -1    0    0  502    0  0.00000000000E+00  0.00000000000E+00  0.83501080041E+03  0.83501080041E+03  0.00000000000E+00 0. -1.
         -1   -1    0    0    0  501 -0.00000000000E+00 -0.00000000000E+00 -0.16985887702E+02  0.16985887702E+02  0.00000000000E+00 0.  1.
         25    1    1    2    0    0 -0.55615040853E+01 -0.37630068403E+02  0.31500576626E+03  0.34102871602E+03  0.12500000000E+03 0.  0.
          2    1    1    2  502    0 -0.28681139011E+02  0.19769433699E+02  0.38958980876E+03  0.39114403655E+03  0.00000000000E+00 0. -1.
         -1    1    1    2    0  501  0.34242643096E+02  0.17860634704E+02  0.11342933769E+03  0.11982393554E+03  0.00000000000E+00 0.  1.
<mgrwt>
<rscale>  0 0.35059242E+02</rscale>
<asrwt>0</asrwt>
<pdfrwt beam="1">  1        2 0.12846317E+00 0.34834440E+02</pdfrwt>
<pdfrwt beam="2">  1       -1 0.26132141E-02 0.35285495E+02</pdfrwt>
<totfact> 0.14873566E+04</totfact>
</mgrwt>
</event>
<event>
 5    1  0.7156190E-003  0.1634287E+03  0.7546771E-02  0.1262552E+00
          1   -1    0    0  502    0  0.00000000000E+00  0.00000000000E+00  0.16825538874E+04  0.16825538874E+04  0.00000000000E+00 0. -1.
          1   -1    0    0  501    0 -0.00000000000E+00 -0.00000000000E+00 -0.45952670586E+04  0.45952670586E+04  0.00000000000E+00 0. -1.
         25    1    1    2    0    0  0.54535112986E+02  0.21608105612E+03 -0.21610793233E+03  0.33465316341E+03  0.12500000000E+03 0.  0.
          1    1    1    2  501    0 -0.71388733633E+02 -0.14545061051E+03 -0.43175541536E+04  0.43205932579E+04  0.00000000000E+00 0. -1.
          1    1    1    2  502    0  0.16853620647E+02 -0.70630445611E+02  0.16209489147E+04  0.16225745247E+04  0.00000000000E+00 0. -1.
<mgrwt>
<rscale>  0 0.10893629E+03</rscale>
<asrwt>0</asrwt>
<pdfrwt beam="1">  1        1 0.25885445E+00 0.72613390E+02</pdfrwt>
<pdfrwt beam="2">  1        1 0.70696416E+00 0.16342874E+03</pdfrwt>
<totfact> 0.30081117E-02</totfact>
</mgrwt>
</event>
<event>
 5    1  0.7156190E-003  0.1683332E+03  0.7546771E-02  0.1333574E+00
         -1   -1    0    0    0  501 -0.00000000000E+00  0.00000000000E+00  0.51154684870E+03  0.51154684870E+03  0.00000000000E+00 0. -1.
          2   -1    0    0  502    0  0.00000000000E+00 -0.00000000000E+00 -0.15858124481E+04  0.15858124481E+04  0.00000000000E+00 0. -1.
         25    1    1    2    0    0  0.41487658511E+02  0.18060106573E+03 -0.37527883389E+03  0.43680335841E+03  0.12500000000E+03 0.  0.
          2    1    1    2  502    0 -0.34174452631E+02 -0.12933309794E+02 -0.11648303015E+04  0.11654032757E+04  0.00000000000E+00 0. -1.
         -1    1    1    2    0  501 -0.73132058795E+01 -0.16766775594E+03  0.46584353599E+03  0.49515266270E+03  0.00000000000E+00 0. -1.
<mgrwt>
<rscale>  0 0.78427527E+02</rscale>
<asrwt>0</asrwt>
<pdfrwt beam="2">  1        2 0.24397114E+00 0.36539892E+02</pdfrwt>
<pdfrwt beam="1">  1       -1 0.78699516E-01 0.16833320E+03</pdfrwt>
<totfact> 0.28959124E+01</totfact>
</mgrwt>
</event>
<event>
 5    1  0.7156190E-003  0.5153097E+02  0.7546771E-02  0.1534893E+00
          2   -1    0    0  502    0  0.00000000000E+00  0.00000000000E+00  0.98772652930E+02  0.98772652930E+02  0.00000000000E+00 0. -1.
         -1   -1    0    0    0  501 -0.00000000000E+00 -0.00000000000E+00 -0.16736806343E+03  0.16736806343E+03  0.00000000000E+00 0.  1.
         25    1    1    2    0    0  0.45023767809E+02 -0.20888523028E+01  0.23856750122E+02  0.13500239812E+03  0.12500000000E+03 0.  0.
          2    1    1    2  502    0  0.34135264529E+01  0.25760098297E+02 -0.66315472209E+02  0.71224831916E+02  0.00000000000E+00 0. -1.
         -1    1    1    2    0  501 -0.48437294261E+02 -0.23671245994E+02 -0.26136688410E+02  0.59913486322E+02  0.00000000000E+00 0.  1.
<mgrwt>
<rscale>  0 0.36592989E+02</rscale>
<asrwt>0</asrwt>
<pdfrwt beam="1">  1        2 0.15195793E-01 0.25985281E+02</pdfrwt>
<pdfrwt beam="2">  1       -1 0.25748932E-01 0.51530974E+02</pdfrwt>
<totfact> 0.49143722E+03</totfact>
</mgrwt>
</event>
<event>
 5    1  0.7156190E-003  0.5510762E+02  0.7546771E-02  0.1552083E+00
          2   -1    0    0  502    0  0.00000000000E+00  0.00000000000E+00  0.28822603490E+04  0.28822603490E+04  0.00000000000E+00 0. -1.
         -1   -1    0    0    0  501 -0.00000000000E+00 -0.00000000000E+00 -0.54164487019E+01  0.54164487019E+01  0.00000000000E+00 0.  1.
         25    1    1    2    0    0  0.59310574134E+02 -0.35240102500E+02  0.13840899537E+04  0.13914343710E+04  0.12500000000E+03 0.  0.
          2    1    1    2  502    0 -0.37728550061E+02  0.37837323606E+02  0.13982526902E+04  0.13992732729E+04  0.00000000000E+00 0. -1.
         -1    1    1    2    0  501 -0.21582024073E+02 -0.25972211059E+01  0.94501256384E+02  0.96969153749E+02  0.00000000000E+00 0.  1.
<mgrwt>
<rscale>  0 0.34610911E+02</rscale>
<asrwt>0</asrwt>
<pdfrwt beam="1">  1        2 0.44342345E+00 0.55107623E+02</pdfrwt>
<pdfrwt beam="2">  1       -1 0.83330210E-03 0.21737740E+02</pdfrwt>
<totfact> 0.55111203E+03</totfact>
</mgrwt>
</event>
<event>
 5    1  0.7156190E-003  0.6041715E+02  0.7546771E-02  0.1492552E+00
         -2   -1    0    0    0  501 -0.00000000000E+00  0.00000000000E+00  0.13364144704E+03  0.13364144704E+03  0.00000000000E+00 0.  1.
          1   -1    0    0  502    0  0.00000000000E+00 -0.00000000000E+00 -0.11663289517E+03  0.11663289517E+03  0.00000000000E+00 0. -1.
         25    1    1    2    0    0 -0.49176913412E+02 -0.39155759759E+02 -0.23630997365E+02  0.14189773209E+03  0.12500000000E+03 0.  0.
          1    1    1    2  502    0  0.24158005719E+02 -0.16911977482E+02  0.36382293580E+02  0.46832632948E+02  0.00000000000E+00 0. -1.
         -2    1    1    2    0  501  0.25018907693E+02  0.56067737241E+02  0.42572556569E+01  0.61543977181E+02  0.00000000000E+00 0.  1.
<mgrwt>
<rscale>  0 0.42209773E+02</rscale>
<asrwt>0</asrwt>
<pdfrwt beam="2">  1        1 0.17943522E-01 0.29489392E+02</pdfrwt>
<pdfrwt beam="1">  1       -2 0.20560223E-01 0.60417147E+02</pdfrwt>
<totfact> 0.44595361E+03</totfact>
</mgrwt>
</event>
<event>
 5    1  0.7156190E-003  0.7594531E+02  0.7546771E-02  0.1437117E+00
          1   -1    0    0  502    0 -0.00000000000E+00  0.00000000000E+00  0.25585348320E+03  0.25585348320E+03  0.00000000000E+00 0. -1.
          2   -1    0    0  501    0  0.00000000000E+00 -0.00000000000E+00 -0.94500632432E+03  0.94500632432E+03  0.00000000000E+00 0. -1.
         25    1    1    2    0    0  0.10460504361E+03 -0.19096716072E+02 -0.39301108313E+03  0.42589859260E+03  0.12500000000E+03 0.  0.
          2    1    1    2  501    0 -0.69755075756E+02  0.15845245831E+02 -0.53186491585E+03  0.53665364167E+03  0.00000000000E+00 0. -1.
          1    1    1    2  502    0 -0.34849967857E+02  0.32514702412E+01  0.23572315786E+03  0.23830757326E+03  0.00000000000E+00 0. -1.
<mgrwt>
<rscale>  0 0.51557600E+02</rscale>
<asrwt>0</asrwt>
<pdfrwt beam="2">  1        2 0.14538559E+00 0.75945314E+02</pdfrwt>
<pdfrwt beam="1">  1        1 0.39362074E-01 0.35001319E+02</pdfrwt>
<totfact> 0.43421398E+02</totfact>
</mgrwt>
</event>
<event>
 5    1  0.7156190E-003  0.4864640E+02  0.7546771E-02  0.1455639E+00
          2   -1    0    0  501    0  0.00000000000E+00  0.00000000000E+00  0.27399818698E+03  0.27399818698E+03  0.00000000000E+00 0. -1.
          1   -1    0    0  502    0 -0.00000000000E+00 -0.00000000000E+00 -0.76292068389E+03  0.76292068389E+03  0.00000000000E+00 0. -1.
         25    1    1    2    0    0 -0.14333012039E+02  0.18991070906E+02 -0.44915515651E+03  0.46683128711E+03  0.12500000000E+03 0.  0.
          2    1    1    2  501    0 -0.43703681060E+02 -0.21364934065E+02  0.26011849962E+03  0.26462824110E+03  0.00000000000E+00 0. -1.
          1    1    1    2  502    0  0.58036693100E+02  0.23738631586E+01 -0.29988584002E+03  0.30545934266E+03  0.00000000000E+00 0. -1.
<mgrwt>
<rscale>  0 0.48140151E+02</rscale>
<asrwt>0</asrwt>
<pdfrwt beam="1">  1        2 0.42153567E-01 0.48646399E+02</pdfrwt>
<pdfrwt beam="2">  1        1 0.11737241E+00 0.47639171E+02</pdfrwt>
<totfact> 0.43501729E+02</totfact>
</mgrwt>
</event>
<event>
 5    1  0.7156190E-003  0.3555775E+02  0.7546771E-02  0.1569306E+00
         -1   -1    0    0    0  501 -0.00000000000E+00  0.00000000000E+00  0.18487592326E+03  0.18487592326E+03  0.00000000000E+00 0.  1.
          3   -1    0    0  502    0  0.00000000000E+00 -0.00000000000E+00 -0.20523337016E+03  0.20523337016E+03  0.00000000000E+00 0. -1.
         25    1    1    2    0    0  0.48718104611E+02  0.28139702857E+02 -0.36761163844E+01  0.13712698650E+03  0.12500000000E+03 0.  0.
          3    1    1    2  502    0 -0.30167837920E+02  0.15595441843E+01 -0.13047320211E+03  0.13392455746E+03  0.00000000000E+00 0. -1.
         -1    1    1    2    0  501 -0.18550266691E+02 -0.29699247041E+02  0.11379187159E+03  0.11905774947E+03  0.00000000000E+00 0.  1.
<mgrwt>
<rscale>  0 0.32773965E+02</rscale>
<asrwt>0</asrwt>
<pdfrwt beam="2">  1        3 0.31574365E-01 0.30208122E+02</pdfrwt>
<pdfrwt beam="1">  1       -1 0.28442450E-01 0.35557749E+02</pdfrwt>
<totfact> 0.40628779E+02</totfact>
</mgrwt>
</event>
<event>
 5    1  0.7156190E-003  0.5557364E+02  0.7546771E-02  0.1417958E+00
          2   -1    0    0  501    0  0.00000000000E+00  0.00000000000E+00  0.29565579119E+03  0.29565579119E+03  0.00000000000E+00 0. -1.
          2   -1    0    0  502    0 -0.00000000000E+00 -0.00000000000E+00 -0.51851913084E+03  0.51851913084E+03  0.00000000000E+00 0. -1.
         25    1    1    2    0    0  0.31820756079E+02  0.39651311257E+02  0.14147916739E+03  0.19551506798E+03  0.12500000000E+03 0.  0.
          2    1    1    2  501    0 -0.61942125877E+02  0.70512902997E+01  0.11782436314E+03  0.13330089348E+03  0.00000000000E+00 0. -1.
          2    1    1    2  502    0  0.30121369798E+02 -0.46702601556E+02 -0.48216687018E+03  0.48535896057E+03  0.00000000000E+00 0. -1.
<mgrwt>
<rscale>  0 0.55455236E+02</rscale>
<asrwt>0</asrwt>
<pdfrwt beam="1">  1        2 0.45485507E-01 0.55337080E+02</pdfrwt>
<pdfrwt beam="2">  1        2 0.79772173E-01 0.55573644E+02</pdfrwt>
<totfact> 0.10421982E+03</totfact>
</mgrwt>
</event>
<event>
 5    1  0.7156190E-003  0.5497655E+02  0.7546771E-02  0.1457465E+00
          1   -1    0    0  502    0 -0.00000000000E+00  0.00000000000E+00  0.27162194460E+04  0.27162194460E+04  0.00000000000E+00 0. -1.
          2   -1    0    0  501    0  0.00000000000E+00 -0.00000000000E+00 -0.66642158639E+01  0.66642158639E+01  0.00000000000E+00 0. -1.
         25    1    1    2    0    0 -0.16405854990E+02 -0.18008536066E+02  0.13701074986E+04  0.13760134510E+04  0.12500000000E+03 0.  0.
          2    1    1    2  501    0 -0.38950127479E+02 -0.14597491747E+02  0.14919662338E+03  0.15488651208E+03  0.00000000000E+00 0. -1.
          1    1    1    2  502    0  0.55355982469E+02  0.32606027812E+02  0.11902511081E+04  0.11919836988E+04  0.00000000000E+00 0. -1.
<mgrwt>
<rscale>  0 0.47820354E+02</rscale>
<asrwt>0</asrwt>
<pdfrwt beam="2">  1        2 0.10252661E-02 0.41595663E+02</pdfrwt>
<pdfrwt beam="1">  1        1 0.41787903E+00 0.54976555E+02</pdfrwt>
<totfact> 0.20639993E+03</totfact>
</mgrwt>
</event>
<event>
 5    1  0.7156190E-003  0.1527118E+03  0.7546771E-02  0.1260005E+00
          2   -1    0    0  502    0  0.00000000000E+00  0.00000000000E+00  0.11255682817E+04  0.11255682817E+04  0.00000000000E+00 0. -1.
          2   -1    0    0  501    0 -0.00000000000E+00 -0.00000000000E+00 -0.17107005430E+03  0.17107005430E+03  0.00000000000E+00 0. -1.
         25    1    1    2    0    0  0.12440593590E+03  0.16191747347E+01  0.48064089948E+02  0.18279665029E+03  0.12500000000E+03 0.  0.
          2    1    1    2  501    0  0.10009046821E+02  0.79043976970E+02 -0.81248837505E+02  0.11379589144E+03  0.00000000000E+00 0. -1.
          2    1    1    2  502    0 -0.13441498272E+03 -0.80663151705E+02  0.98768297495E+03  0.10000457943E+04  0.00000000000E+00 0. -1.
<mgrwt>
<rscale>  0 0.11030564E+03</rscale>
<asrwt>0</asrwt>
<pdfrwt beam="1">  1        2 0.17316435E+00 0.15271175E+03</pdfrwt>
<pdfrwt beam="2">  1        2 0.26318471E-01 0.79675161E+02</pdfrwt>
<totfact> 0.69610626E+02</totfact>
</mgrwt>
</event>
<event>
 5    1  0.7156190E-003  0.6192180E+02  0.7546771E-02  0.1408860E+00
         -1   -1    0    0    0  502 -0.00000000000E+00  0.00000000000E+00  0.85224771299E+02  0.85224771299E+02  0.00000000000E+00 0. -1.
         -2   -1    0    0    0  501  0.00000000000E+00 -0.00000000000E+00 -0.45737807643E+03  0.45737807643E+03  0.00000000000E+00 0.  1.
         25    1    1    2    0    0  0.69063369342E+02  0.16053997116E+02 -0.67034981904E+02  0.15857543507E+03  0.12500000000E+03 0.  0.
         -2    1    1    2    0  501 -0.36340911995E+02  0.38989111571E+02 -0.31478614200E+03  0.31926654679E+03  0.00000000000E+00 0.  1.
         -1    1    1    2    0  502 -0.32722457347E+02 -0.55043108687E+02  0.96678187687E+01  0.64760865872E+02  0.00000000000E+00 0. -1.
<mgrwt>
<rscale>  0 0.57448997E+02</rscale>
<asrwt>0</asrwt>
<pdfrwt beam="2">  1       -2 0.70365858E-01 0.53299275E+02</pdfrwt>
<pdfrwt beam="1">  1       -1 0.13111503E-01 0.61921804E+02</pdfrwt>
<totfact> 0.52703518E+02</totfact>
</mgrwt>
</event>
<event>
 5    1  0.7156190E-003  0.5144816E+02  0.7546771E-02  0.1486520E+00
          2   -1    0    0  501    0  0.00000000000E+00  0.00000000000E+00  0.17565251523E+02  0.17565251523E+02  0.00000000000E+00 0. -1.
          2   -1    0    0  502    0 -0.00000000000E+00 -0.00000000000E+00 -0.22070594122E+04  0.22070594122E+04  0.00000000000E+00 0.  1.
         25    1    1    2    0    0  0.35171114065E+02 -0.79067068708E+02 -0.17917902246E+04  0.17982285221E+04  0.12500000000E+03 0.  0.
          2    1    1    2  501    0 -0.22422665290E+02  0.45274346527E+02 -0.33987437842E+02  0.60890789970E+02  0.00000000000E+00 0. -1.
          2    1    1    2  502    0 -0.12748448775E+02  0.33792722181E+02 -0.36371649821E+03  0.36550535165E+03  0.00000000000E+00 0.  1.
<mgrwt>
<rscale>  0 0.43106576E+02</rscale>
<asrwt>0</asrwt>
<pdfrwt beam="1">  1        2 0.27023477E-02 0.51448158E+02</pdfrwt>
<pdfrwt beam="2">  1        2 0.33954744E+00 0.36117461E+02</pdfrwt>
<totfact> 0.34125298E+03</totfact>
</mgrwt>
</event>
<event>
 5    1  0.7156190E-003  0.1386546E+03  0.7546771E-02  0.1270740E+00
          2   -1    0    0  501    0  0.00000000000E+00  0.00000000000E+00  0.27400828430E+04  0.27400828430E+04  0.00000000000E+00 0. -1.
          1   -1    0    0  502    0 -0.00000000000E+00 -0.00000000000E+00 -0.21237879210E+03  0.21237879210E+03  0.00000000000E+00 0. -1.
         25    1    1    2    0    0  0.19395293219E+03 -0.23079289035E+02  0.10527360869E+03  0.25467219356E+03  0.12500000000E+03 0.  0.
          2    1    1    2  501    0 -0.74149994271E+02 -0.27366169387E+02  0.25286715835E+04  0.25299065410E+04  0.00000000000E+00 0. -1.
          1    1    1    2  502    0 -0.11980293792E+03  0.50445458422E+02 -0.10624114127E+03  0.16788290058E+03  0.00000000000E+00 0. -1.
<mgrwt>
<rscale>  0 0.10468566E+03</rscale>
<asrwt>0</asrwt>
<pdfrwt beam="1">  1        2 0.42155118E+00 0.79038781E+02</pdfrwt>
<pdfrwt beam="2">  1        1 0.32673662E-01 0.13865456E+03</pdfrwt>
<totfact> 0.64665543E+01</totfact>
</mgrwt>
</event>
<event>
 5    1  0.7156190E-003  0.2991006E+02  0.7546771E-02  0.1643682E+00
          1   -1    0    0  501    0  0.00000000000E+00  0.00000000000E+00  0.85100129724E+03  0.85100129724E+03  0.00000000000E+00 0. -1.
          1   -1    0    0  502    0 -0.00000000000E+00 -0.00000000000E+00 -0.12978223039E+04  0.12978223039E+04  0.00000000000E+00 0. -1.
         25    1    1    2    0    0  0.29711676478E+01 -0.38183432912E+02  0.44480911772E+03  0.46362371984E+03  0.12500000000E+03 0.  0.
          1    1    1    2  501    0 -0.19045016802E+02  0.12959888295E+02  0.39627674534E+03  0.39694575230E+03  0.00000000000E+00 0. -1.
          1    1    1    2  502    0  0.16073849154E+02  0.25223544617E+02 -0.12879068697E+04  0.12882541290E+04  0.00000000000E+00 0. -1.
<mgrwt>
<rscale>  0 0.26249139E+02</rscale>
<asrwt>0</asrwt>
<pdfrwt beam="1">  1        1 0.13092328E+00 0.23036305E+02</pdfrwt>
<pdfrwt beam="2">  1        1 0.19966497E+00 0.29910061E+02</pdfrwt>
<totfact> 0.34206293E+01</totfact>
</mgrwt>
</event>
<event>
 5    1  0.7156190E-003  0.4486546E+02  0.7546771E-02  0.1528058E+00
          2   -1    0    0  502    0  0.00000000000E+00  0.00000000000E+00  0.25817345316E+04  0.25817345316E+04  0.00000000000E+00 0.  1.
         -2   -1    0    0    0  501 -0.00000000000E+00 -0.00000000000E+00 -0.57736462502E+02  0.57736462502E+02  0.00000000000E+00 0.  1.
         25    1    1    2    0    0  0.20758463477E+02  0.69465409184E+01  0.89373415858E+03  0.90269868420E+03  0.12500000000E+03 0.  0.
          2    1    1    2  502    0  0.21639726088E+02 -0.22503079767E+02  0.16737714097E+04  0.16740625431E+04  0.00000000000E+00 0.  1.
         -2    1    1    2    0  501 -0.42398189566E+02  0.15556538849E+02 -0.43507499116E+02  0.62709766853E+02  0.00000000000E+00 0.  1.
<mgrwt>
<rscale>  0 0.37425713E+02</rscale>
<asrwt>0</asrwt>
<pdfrwt beam="1">  1        2 0.39718984E+00 0.31219647E+02</pdfrwt>
<pdfrwt beam="2">  1       -2 0.88825347E-02 0.44865465E+02</pdfrwt>
<totfact> 0.34758038E+02</totfact>
</mgrwt>
</event>
<event>
 5    1  0.7156190E-003  0.1810333E+03  0.7546771E-02  0.1251492E+00
          2   -1    0    0  501    0  0.00000000000E+00  0.00000000000E+00  0.53798237111E+03  0.53798237111E+03  0.00000000000E+00 0. -1.
          2   -1    0    0  502    0 -0.00000000000E+00 -0.00000000000E+00 -0.20828795351E+04  0.20828795351E+04  0.00000000000E+00 0.  1.
         25    1    1    2    0    0 -0.67742008069E+02  0.16720516775E+03 -0.37991120746E+03  0.43875286134E+03  0.12500000000E+03 0.  0.
          2    1    1    2  501    0 -0.39493250722E+01 -0.18157777371E+03  0.49151394228E+03  0.52399622186E+03  0.00000000000E+00 0. -1.
          2    1    1    2  502    0  0.71691333141E+02  0.14372605952E+02 -0.16564998988E+04  0.16581128230E+04  0.00000000000E+00 0.  1.
<mgrwt>
<rscale>  0 0.11505115E+03</rscale>
<asrwt>0</asrwt>
<pdfrwt beam="1">  1        2 0.82766519E-01 0.18103334E+03</pdfrwt>
<pdfrwt beam="2">  1        2 0.32044300E+00 0.73117844E+02</pdfrwt>
<totfact> 0.69853566E+01</totfact>
</mgrwt>
</event>
<event>
 5    1  0.7156190E-003  0.5122382E+02  0.7546771E-02  0.1519008E+00
          2   -1    0    0  502    0  0.00000000000E+00  0.00000000000E+00  0.25162536842E+04  0.25162536842E+04  0.00000000000E+00 0.  1.
         -2   -1    0    0    0  501 -0.00000000000E+00 -0.00000000000E+00 -0.48106044516E+01  0.48106044516E+01  0.00000000000E+00 0. -1.
         25    1    1    2    0    0 -0.13278120415E+02  0.31978311059E+02  0.16785370627E+04  0.16835410870E+04  0.12500000000E+03 0.  0.
          2    1    1    2  502    0 -0.28387975433E+02  0.61274157158E+01  0.38062415353E+03  0.38173049214E+03  0.00000000000E+00 0. -1.
         -2    1    1    2    0  501  0.41666095848E+02 -0.38105726775E+02  0.45228186345E+03  0.45579270942E+03  0.00000000000E+00 0.  1.
<mgrwt>
<rscale>  0 0.38569787E+02</rscale>
<asrwt>0</asrwt>
<pdfrwt beam="1">  1        2 0.38711490E+00 0.29041735E+02</pdfrwt>
<pdfrwt beam="2">  1       -2 0.74009500E-03 0.51223816E+02</pdfrwt>
<totfact> 0.13438424E+04</totfact>
</mgrwt>
</event>
<event>
 5    1  0.7156190E-003  0.1222950E+03  0.7546771E-02  0.1407982E+00
          1   -1    0    0  501    0  0.00000000000E+00  0.00000000000E+00  0.18520739657E+04  0.18520739657E+04  0.00000000000E+00 0. -1.
          1   -1    0    0  502    0 -0.00000000000E+00 -0.00000000000E+00 -0.58772045069E+03  0.58772045069E+03  0.00000000000E+00 0. -1.
         25    1    1    2    0    0 -0.70343309481E+02 -0.69783696642E+02 -0.46963193297E+02  0.16627834204E+03  0.12500000000E+03 0.  0.
          1    1    1    2  501    0 -0.13554292247E+02 -0.23551183935E+02  0.17841266898E+04  0.17843336073E+04  0.00000000000E+00 0. -1.
          1    1    1    2  502    0  0.83897601728E+02  0.93334880576E+02 -0.47280998145E+03  0.48918246704E+03  0.00000000000E+00 0. -1.
<mgrwt>
<rscale>  0 0.57646619E+02</rscale>
<asrwt>0</asrwt>
<pdfrwt beam="1">  1        1 0.28493445E+00 0.27173095E+02</pdfrwt>
<pdfrwt beam="2">  1        1 0.90418532E-01 0.12229496E+03</pdfrwt>
<totfact> 0.24810069E+01</totfact>
</mgrwt>
</event>
<event>
 5    1  0.7156190E-003  0.1300794E+03  0.7546771E-02  0.1352091E+00
          1   -1    0    0  502    0 -0.00000000000E+00  0.00000000000E+00  0.71934152604E+03  0.71934152604E+03  0.00000000000E+00 0. -1.
          2   -1    0    0  501    0  0.00000000000E+00 -0.00000000000E+00 -0.12394077996E+04  0.12394077996E+04  0.00000000000E+00 0.  1.
         25    1    1    2    0    0 -0.35698055952E+01 -0.15064572739E+03  0.96667066587E+02  0.21834926255E+03  0.12500000000E+03 0.  0.
          2    1    1    2  501    0  0.31143353153E+02  0.25585816849E+02 -0.11709177824E+04  0.11716112818E+04  0.00000000000E+00 0.  1.
          1    1    1    2  502    0 -0.27573547558E+02  0.12505991054E+03  0.55418444223E+03  0.56878878132E+03  0.00000000000E+00 0. -1.
<mgrwt>
<rscale>  0 0.72408091E+02</rscale>
<asrwt>0</asrwt>
<pdfrwt beam="2">  1        2 0.19067812E+00 0.40305613E+02</pdfrwt>
<pdfrwt beam="1">  1        1 0.11066793E+00 0.13007944E+03</pdfrwt>
<totfact> 0.82644346E+01</totfact>
</mgrwt>
</event>
<event>
 5    1  0.7156190E-003  0.3772569E+02  0.7546771E-02  0.1618747E+00
         -3   -1    0    0    0  501 -0.00000000000E+00  0.00000000000E+00  0.14843897981E+02  0.14843897981E+02  0.00000000000E+00 0.  1.
          2   -1    0    0  502    0  0.00000000000E+00 -0.00000000000E+00 -0.92108674137E+03  0.92108674137E+03  0.00000000000E+00 0.  1.
         25    1    1    2    0    0  0.26704429879E+02 -0.22597950367E+02 -0.68824129027E+03  0.70037480507E+03  0.12500000000E+03 0.  0.
          2    1    1    2  502    0 -0.14496302925E+02 -0.15326779506E+02 -0.92478470954E+01  0.23034227671E+02  0.00000000000E+00 0.  1.
         -3    1    1    2    0  501 -0.12208126954E+02  0.37924729873E+02 -0.20875370602E+03  0.21252160662E+03  0.00000000000E+00 0.  1.
<mgrwt>
<rscale>  0 0.28211199E+02</rscale>
<asrwt>0</asrwt>
<pdfrwt beam="2">  1        2 0.14170570E+00 0.21096279E+02</pdfrwt>
<pdfrwt beam="1">  1       -3 0.22836759E-02 0.37725693E+02</pdfrwt>
<totfact> 0.11730391E+04</totfact>
</mgrwt>
</event>
<event>
 5    1  0.7156190E-003  0.4614612E+03  0.7546771E-02  0.1024358E+00
          1   -1    0    0  502    0  0.00000000000E+00  0.00000000000E+00  0.98180341688E+03  0.98180341688E+03  0.00000000000E+00 0. -1.
         -1   -1    0    0    0  501 -0.00000000000E+00 -0.00000000000E+00 -0.54223298513E+02  0.54223298513E+02  0.00000000000E+00 0.  1.
         25    1    1    2    0    0 -0.16339574441E+03  0.40948664365E+02  0.22503995445E+03  0.30764093275E+03  0.12500000000E+03 0.  0.
          1    1    1    2  502    0  0.89930051438E+02  0.20069992233E+02  0.42501391360E+03  0.43488739404E+03  0.00000000000E+00 0. -1.
         -1    1    1    2    0  501  0.73465692974E+02 -0.61018656598E+02  0.27752625031E+03  0.29349838860E+03  0.00000000000E+00 0.  1.
<mgrwt>
<rscale>  0 0.46146124E+03</rscale>
<asrwt>0</asrwt>
<pdfrwt beam="1">  1        1 0.15104667E+00 0.46146124E+03</pdfrwt>
<pdfrwt beam="2">  1       -1 0.83420466E-02 0.46146124E+03</pdfrwt>
<totfact> 0.13294012E+03</totfact>
</mgrwt>
</event>
<event>
 5    1  0.7156190E-003  0.4374807E+02  0.7546771E-02  0.1542407E+00
         -1   -1    0    0    0  501 -0.00000000000E+00  0.00000000000E+00  0.56642699821E+02  0.56642699821E+02  0.00000000000E+00 0.  1.
          2   -1    0    0  502    0  0.00000000000E+00 -0.00000000000E+00 -0.38243437481E+03  0.38243437481E+03  0.00000000000E+00 0. -1.
         25    1    1    2    0    0  0.37527179142E+02  0.38688711357E+02 -0.95048188496E+02  0.16602488879E+03  0.12500000000E+03 0.  0.
          2    1    1    2  502    0 -0.86683163381E+01 -0.42759367714E+02 -0.23884936836E+03  0.24280140856E+03  0.00000000000E+00 0. -1.
         -1    1    1    2    0  501 -0.28858862804E+02  0.40706563564E+01  0.81058818597E+01  0.30250777283E+02  0.00000000000E+00 0.  1.
<mgrwt>
<rscale>  0 0.35707386E+02</rscale>
<asrwt>0</asrwt>
<pdfrwt beam="2">  1        2 0.58836058E-01 0.43748071E+02</pdfrwt>
<pdfrwt beam="1">  1       -1 0.87142614E-02 0.29144540E+02</pdfrwt>
<totfact> 0.60816974E+03</totfact>
</mgrwt>
</event>
<event>
 5    1  0.7156190E-003  0.9431185E+02  0.7546771E-02  0.1459696E+00
          2   -1    0    0  502    0  0.00000000000E+00  0.00000000000E+00  0.14007734010E+04  0.14007734010E+04  0.00000000000E+00 0. -1.
         -1   -1    0    0    0  501 -0.00000000000E+00 -0.00000000000E+00 -0.18396569781E+02  0.18396569781E+02  0.00000000000E+00 0.  1.
         25    1    1    2    0    0  0.80835795125E+02 -0.80524727586E+02  0.55411397873E+03  0.57938412038E+03  0.12500000000E+03 0.  0.
          2    1    1    2  502    0 -0.64677968287E+02  0.62972966932E+02  0.78670554512E+03  0.79186769657E+03  0.00000000000E+00 0. -1.
         -1    1    1    2    0  501 -0.16157826838E+02  0.17551760654E+02  0.41557307321E+02  0.47918153782E+02  0.00000000000E+00 0.  1.
<mgrwt>
<rscale>  0 0.47433791E+02</rscale>
<asrwt>0</asrwt>
<pdfrwt beam="1">  1        2 0.21550352E+00 0.94311845E+02</pdfrwt>
<pdfrwt beam="2">  1       -1 0.28302426E-02 0.23856648E+02</pdfrwt>
<totfact> 0.57314782E+03</totfact>
</mgrwt>
</event>
<event>
 5    1  0.7156190E-003  0.1475430E+03  0.7546771E-02  0.1240643E+00
          1   -1    0    0  502    0 -0.00000000000E+00  0.00000000000E+00  0.38493372176E+03  0.38493372176E+03  0.00000000000E+00 0. -1.
          2   -1    0    0  501    0  0.00000000000E+00 -0.00000000000E+00 -0.12314335925E+04  0.12314335925E+04  0.00000000000E+00 0. -1.
         25    1    1    2    0    0  0.16382638188E+03 -0.52498430874E+02 -0.17174755441E+02  0.21334277787E+03  0.12500000000E+03 0.  0.
          2    1    1    2  501    0 -0.88533822785E+02  0.11839121713E+03 -0.11023630684E+04  0.11122315643E+04  0.00000000000E+00 0. -1.
          1    1    1    2  502    0 -0.75292559100E+02 -0.65892786252E+02  0.27303795313E+03  0.29079297204E+03  0.00000000000E+00 0. -1.
<mgrwt>
<rscale>  0 0.12150015E+03</rscale>
<asrwt>0</asrwt>
<pdfrwt beam="2">  1        2 0.18945132E+00 0.14754301E+03</pdfrwt>
<pdfrwt beam="1">  1        1 0.59220573E-01 0.10005413E+03</pdfrwt>
<totfact> 0.17585488E+02</totfact>
</mgrwt>
</event>
<event>
 5    1  0.7156190E-003  0.1629027E+03  0.7546771E-02  0.1323502E+00
          1   -1    0    0  502    0 -0.00000000000E+00  0.00000000000E+00  0.97250561152E+03  0.97250561152E+03  0.00000000000E+00 0. -1.
          2   -1    0    0  501    0  0.00000000000E+00 -0.00000000000E+00 -0.15058448587E+04  0.15058448587E+04  0.00000000000E+00 0.  1.
         25    1    1    2    0    0  0.67372499370E+02 -0.18086119174E+03 -0.55359151222E+03  0.59944840208E+03  0.12500000000E+03 0.  0.
          2    1    1    2  501    0 -0.66439585300E+02  0.13960739247E+03 -0.92243983469E+03  0.93530727098E+03  0.00000000000E+00 0.  1.
          1    1    1    2  502    0 -0.93291406926E+00  0.41253799270E+02  0.94269209975E+03  0.94359479715E+03  0.00000000000E+00 0. -1.
<mgrwt>
<rscale>  0 0.81988246E+02</rscale>
<asrwt>0</asrwt>
<pdfrwt beam="2">  1        2 0.23166844E+00 0.16290268E+03</pdfrwt>
<pdfrwt beam="1">  1        1 0.14961625E+00 0.41264346E+02</pdfrwt>
<totfact> 0.36633553E+01</totfact>
</mgrwt>
</event>
<event>
 5    1  0.7156190E-003  0.4945586E+03  0.7546771E-02  0.1015209E+00
         -2   -1    0    0    0  501 -0.00000000000E+00  0.00000000000E+00  0.75459643918E+02  0.75459643918E+02  0.00000000000E+00 0.  1.
          2   -1    0    0  502    0  0.00000000000E+00 -0.00000000000E+00 -0.81032787508E+03  0.81032787508E+03  0.00000000000E+00 0. -1.
         25    1    1    2    0    0 -0.30114044044E+01  0.18736922337E+03 -0.16467994285E+03  0.27903544219E+03  0.12500000000E+03 0.  0.
          2    1    1    2  502    0  0.33958726698E+02 -0.84865341215E+02 -0.35245812007E+03  0.36411817816E+03  0.00000000000E+00 0. -1.
         -2    1    1    2    0  501 -0.30947322294E+02 -0.10250388215E+03 -0.21773016824E+03  0.24263389865E+03  0.00000000000E+00 0.  1.
<mgrwt>
<rscale>  0 0.49455860E+03</rscale>
<asrwt>0</asrwt>
<pdfrwt beam="2">  1        2 0.12466583E+00 0.49455860E+03</pdfrwt>
<pdfrwt beam="1">  1       -2 0.11609176E-01 0.49455860E+03</pdfrwt>
<totfact> 0.18243396E+03</totfact>
</mgrwt>
</event>
<event>
 5    1  0.7156190E-003  0.8912376E+02  0.7546771E-02  0.1390693E+00
          2   -1    0    0  502    0  0.00000000000E+00  0.00000000000E+00  0.63918773918E+03  0.63918773918E+03  0.00000000000E+00 0.  1.
          2   -1    0    0  501    0 -0.00000000000E+00 -0.00000000000E+00 -0.55500164204E+03  0.55500164204E+03  0.00000000000E+00 0. -1.
         25    1    1    2    0    0  0.13545659967E+02 -0.59165478928E+02  0.12059999770E+03  0.18399292988E+03  0.12500000000E+03 0.  0.
          2    1    1    2  501    0 -0.54448554190E+02  0.71638975318E+02 -0.51848360021E+03  0.52623381830E+03  0.00000000000E+00 0. -1.
          2    1    1    2  502    0  0.40902894224E+02 -0.12473496390E+02  0.48206969964E+03  0.48396263304E+03  0.00000000000E+00 0.  1.
<mgrwt>
<rscale>  0 0.61734582E+02</rscale>
<asrwt>0</asrwt>
<pdfrwt beam="1">  1        2 0.98336575E-01 0.42762540E+02</pdfrwt>
<pdfrwt beam="2">  1        2 0.85384869E-01 0.89123764E+02</pdfrwt>
<totfact> 0.43077014E+02</totfact>
</mgrwt>
</event>
<event>
 5    1  0.1000900E-002  0.8086715E+02  0.7546771E-02  0.1355742E+00
          2   -1    0    0  502    0  0.00000000000E+00  0.00000000000E+00  0.79717291116E+03  0.79717291116E+03  0.00000000000E+00 0. -1.
         -1   -1    0    0    0  501 -0.00000000000E+00 -0.00000000000E+00 -0.30056833499E+02  0.30056833499E+02  0.00000000000E+00 0.  1.
         25    1    1    2    0    0  0.80961448780E+02  0.65811832996E+02  0.29296374576E+03  0.33516967327E+03  0.12500000000E+03 0.  0.
          2    1    1    2  502    0 -0.15012036127E+02 -0.61037729195E+02  0.18300891270E+03  0.19350252644E+03  0.00000000000E+00 0. -1.
         -1    1    1    2    0  501 -0.65949412652E+02 -0.47741038017E+01  0.29114341921E+03  0.29855754495E+03  0.00000000000E+00 0.  1.
<mgrwt>
<rscale>  0 0.71295460E+02</rscale>
<asrwt>0</asrwt>
<pdfrwt beam="1">  1        2 0.12264197E+00 0.62856707E+02</pdfrwt>
<pdfrwt beam="2">  1       -1 0.46241288E-02 0.80867148E+02</pdfrwt>
<totfact> 0.75829543E+03</totfact>
</mgrwt>
</event>
<event>
 5    1  0.7156190E-003  0.2859922E+02  0.7546771E-02  0.1633602E+00
          2   -1    0    0  502    0  0.00000000000E+00  0.00000000000E+00  0.28903845630E+03  0.28903845630E+03  0.00000000000E+00 0. -1.
         -1   -1    0    0    0  501 -0.00000000000E+00 -0.00000000000E+00 -0.50116379372E+02  0.50116379372E+02  0.00000000000E+00 0.  1.
         25    1    1    2    0    0  0.18490739887E+02 -0.27459553265E+01  0.22042661473E+03  0.25409120452E+03  0.12500000000E+03 0.  0.
          2    1    1    2  502    0 -0.19474729772E+02  0.28251008375E+02  0.39273467997E+02  0.52151604601E+02  0.00000000000E+00 0. -1.
         -1    1    1    2    0  501  0.98398988525E+00 -0.25505053049E+02 -0.20778005796E+02  0.32912026556E+02  0.00000000000E+00 0.  1.
<mgrwt>
<rscale>  0 0.27017908E+02</rscale>
<asrwt>0</asrwt>
<pdfrwt beam="1">  1        2 0.44467454E-01 0.28599224E+02</pdfrwt>
<pdfrwt beam="2">  1       -1 0.77102123E-02 0.25524027E+02</pdfrwt>
<totfact> 0.94313510E+03</totfact>
</mgrwt>
</event>
<event>
 5    1  0.7156190E-003  0.1094563E+03  0.7546771E-02  0.1321321E+00
          1   -1    0    0  502    0  0.00000000000E+00  0.00000000000E+00  0.15601846728E+04  0.15601846728E+04  0.00000000000E+00 0. -1.
         -2   -1    0    0    0  501 -0.00000000000E+00 -0.00000000000E+00 -0.79034897661E+03  0.79034897661E+03  0.00000000000E+00 0. -1.
         25    1    1    2    0    0  0.16237975036E+02  0.86890551041E+02 -0.24484092084E+02  0.15504228603E+03  0.12500000000E+03 0.  0.
          1    1    1    2  502    0 -0.60583733095E+02  0.15826885051E+02  0.14897769365E+04  0.14910922840E+04  0.00000000000E+00 0. -1.
         -2    1    1    2    0  501  0.44345758059E+02 -0.10271743609E+03 -0.69545714823E+03  0.70439907933E+03  0.00000000000E+00 0. -1.
<mgrwt>
<rscale>  0 0.82787794E+02</rscale>
<asrwt>0</asrwt>
<pdfrwt beam="1">  1        1 0.24002841E+00 0.62616923E+02</pdfrwt>
<pdfrwt beam="2">  1       -2 0.12159215E+00 0.10945633E+03</pdfrwt>
<totfact> 0.37499865E+00</totfact>
</mgrwt>
</event>
<event>
 5    1  0.7156190E-003  0.7753867E+02  0.7546771E-02  0.1401725E+00
          2   -1    0    0  501    0  0.00000000000E+00  0.00000000000E+00  0.16679420284E+04  0.16679420284E+04  0.00000000000E+00 0. -1.
          1   -1    0    0  502    0 -0.00000000000E+00 -0.00000000000E+00 -0.60746479297E+02  0.60746479297E+02  0.00000000000E+00 0. -1.
         25    1    1    2    0    0  0.19251309304E+02  0.47527396611E+02  0.17135831649E+03  0.21821580825E+03  0.12500000000E+03 0.  0.
          2    1    1    2  501    0 -0.64248038560E+02 -0.46128524864E+02  0.14581046461E+04  0.14602482016E+04  0.00000000000E+00 0. -1.
          1    1    1    2  502    0  0.44996729255E+02 -0.13988717474E+01 -0.22267413460E+02  0.50224497887E+02  0.00000000000E+00 0. -1.
<mgrwt>
<rscale>  0 0.59081910E+02</rscale>
<asrwt>0</asrwt>
<pdfrwt beam="1">  1        2 0.25660643E+00 0.77538669E+02</pdfrwt>
<pdfrwt beam="2">  1        1 0.93456135E-02 0.45018468E+02</pdfrwt>
<totfact> 0.10533934E+03</totfact>
</mgrwt>
</event>
<event>
 5    1  0.7156190E-003  0.5653137E+02  0.7546771E-02  0.1434115E+00
         -1   -1    0    0    0  501 -0.00000000000E+00  0.00000000000E+00  0.18247785323E+02  0.18247785323E+02  0.00000000000E+00 0.  1.
          2   -1    0    0  502    0  0.00000000000E+00 -0.00000000000E+00 -0.12407977202E+04  0.12407977202E+04  0.00000000000E+00 0. -1.
         25    1    1    2    0    0  0.88742143096E+01 -0.82716409373E+02 -0.38018058790E+03  0.40875791793E+03  0.12500000000E+03 0.  0.
          2    1    1    2  502    0 -0.35353709916E+02  0.42567347892E+02 -0.63534623064E+03  0.63775128122E+03  0.00000000000E+00 0. -1.
         -1    1    1    2    0  501  0.26479495606E+02  0.40149061481E+02 -0.20702311630E+03  0.21253630633E+03  0.00000000000E+00 0.  1.
<mgrwt>
<rscale>  0 0.52142742E+02</rscale>
<asrwt>0</asrwt>
<pdfrwt beam="2">  1        2 0.19089197E+00 0.56531370E+02</pdfrwt>
<pdfrwt beam="1">  1       -1 0.28073513E-02 0.48094811E+02</pdfrwt>
<totfact> 0.81310369E+03</totfact>
</mgrwt>
</event>
<event>
 5    1  0.7156190E-003  0.6153951E+02  0.7546771E-02  0.1402862E+00
         -1   -1    0    0    0  501 -0.00000000000E+00  0.00000000000E+00  0.14978647180E+04  0.14978647180E+04  0.00000000000E+00 0.  1.
          3   -1    0    0  502    0  0.00000000000E+00 -0.00000000000E+00 -0.29152457596E+02  0.29152457596E+02  0.00000000000E+00 0. -1.
         25    1    1    2    0    0 -0.44419166828E-01 -0.11984442706E+02  0.22966301015E+03  0.26175126947E+03  0.12500000000E+03 0.  0.
          3    1    1    2  502    0  0.43666561119E+02 -0.35404194445E+02  0.52338432191E+02  0.76808443732E+02  0.00000000000E+00 0. -1.
         -1    1    1    2    0  501 -0.43622141952E+02  0.47388637151E+02  0.11867108181E+04  0.11884574624E+04  0.00000000000E+00 0.  1.
<mgrwt>
<rscale>  0 0.58817497E+02</rscale>
<asrwt>0</asrwt>
<pdfrwt beam="2">  1        3 0.44849946E-02 0.56215883E+02</pdfrwt>
<pdfrwt beam="1">  1       -1 0.23044067E+00 0.61539511E+02</pdfrwt>
<totfact> 0.12548587E+02</totfact>
</mgrwt>
</event>
<event>
 5    1  0.7156190E-003  0.2613012E+03  0.7546771E-02  0.1203699E+00
          2   -1    0    0  501    0  0.00000000000E+00  0.00000000000E+00  0.19651582422E+04  0.19651582422E+04  0.00000000000E+00 0. -1.
          1   -1    0    0  502    0 -0.00000000000E+00 -0.00000000000E+00 -0.11645190877E+04  0.11645190877E+04  0.00000000000E+00 0. -1.
         25    1    1    2    0    0 -0.26468207701E+03  0.32984137832E+02  0.26933072237E+03  0.39913480586E+03  0.12500000000E+03 0.  0.
          2    1    1    2  501    0  0.23736500725E+03 -0.11152221625E+03  0.16187849665E+04  0.16398914961E+04  0.00000000000E+00 0. -1.
          1    1    1    2  502    0  0.27317069760E+02  0.78538078416E+02 -0.10874765343E+04  0.10906510279E+04  0.00000000000E+00 0. -1.
<mgrwt>
<rscale>  0 0.14740431E+03</rscale>
<asrwt>0</asrwt>
<pdfrwt beam="1">  1        2 0.30233204E+00 0.26130125E+03</pdfrwt>
<pdfrwt beam="2">  1        1 0.17915678E+00 0.83153184E+02</pdfrwt>
<totfact> 0.14194291E+01</totfact>
</mgrwt>
</event>
<event>
 5    1  0.7156190E-003  0.1952959E+03  0.7546771E-02  0.1250834E+00
          2   -1    0    0  502    0  0.00000000000E+00  0.00000000000E+00  0.44308454376E+03  0.44308454376E+03  0.00000000000E+00 0. -1.
         -1   -1    0    0    0  501 -0.00000000000E+00 -0.00000000000E+00 -0.18557140503E+03  0.18557140503E+03  0.00000000000E+00 0.  1.
         25    1    1    2    0    0 -0.34498167824E+01  0.14523759462E+03 -0.55745885046E+02  0.19959575102E+03  0.12500000000E+03 0.  0.
          2    1    1    2  502    0  0.34507949909E+02 -0.20598215495E+03  0.28917618801E+03  0.35671040702E+03  0.00000000000E+00 0. -1.
         -1    1    1    2    0  501 -0.31058133126E+02  0.60744560328E+02  0.24082835756E+02  0.72349790744E+02  0.00000000000E+00 0.  1.
<mgrwt>
<rscale>  0 0.11542902E+03</rscale>
<asrwt>0</asrwt>
<pdfrwt beam="1">  1        2 0.68166853E-01 0.19529587E+03</pdfrwt>
<pdfrwt beam="2">  1       -1 0.28549447E-01 0.68223964E+02</pdfrwt>
<totfact> 0.88708665E+02</totfact>
</mgrwt>
</event>
<event>
 5    1  0.7156190E-003  0.1176343E+03  0.7546771E-02  0.1301719E+00
          2   -1    0    0  501    0  0.00000000000E+00  0.00000000000E+00  0.15110472744E+04  0.15110472744E+04  0.00000000000E+00 0. -1.
          1   -1    0    0  502    0 -0.00000000000E+00 -0.00000000000E+00 -0.46657484047E+03  0.46657484047E+03  0.00000000000E+00 0. -1.
         25    1    1    2    0    0  0.11592750677E+03 -0.25796090996E+02 -0.13915015521E+03  0.22156802755E+03  0.12500000000E+03 0.  0.
          2    1    1    2  501    0 -0.31205527576E+02 -0.62186981620E+02  0.14559385167E+04  0.14576000721E+04  0.00000000000E+00 0. -1.
          1    1    1    2  502    0 -0.84721979194E+02  0.87983072615E+02 -0.27231592756E+03  0.29845401527E+03  0.00000000000E+00 0. -1.
<mgrwt>
<rscale>  0 0.90469230E+02</rscale>
<asrwt>0</asrwt>
<pdfrwt beam="1">  1        2 0.23246881E+00 0.69577336E+02</pdfrwt>
<pdfrwt beam="2">  1        1 0.71780746E-01 0.11763431E+03</pdfrwt>
<totfact> 0.10375821E+02</totfact>
</mgrwt>
</event>
<event>
 5    1  0.7156190E-003  0.1379896E+03  0.7546771E-02  0.1315386E+00
          2   -1    0    0  501    0  0.00000000000E+00  0.00000000000E+00  0.45817807457E+03  0.45817807457E+03  0.00000000000E+00 0. -1.
          2   -1    0    0  502    0 -0.00000000000E+00 -0.00000000000E+00 -0.13529757844E+04  0.13529757844E+04  0.00000000000E+00 0. -1.
         25    1    1    2    0    0  0.14675884205E+03  0.11407895811E+03 -0.11459413418E+03  0.25161276198E+03  0.12500000000E+03 0.  0.
          2    1    1    2  501    0 -0.11265301135E+03 -0.74322555997E+02  0.37737279065E+03  0.40078019714E+03  0.00000000000E+00 0. -1.
          2    1    1    2  502    0 -0.34105830697E+02 -0.39756402112E+02 -0.11575763663E+04  0.11587608998E+04  0.00000000000E+00 0. -1.
<mgrwt>
<rscale>  0 0.85017934E+02</rscale>
<asrwt>0</asrwt>
<pdfrwt beam="1">  1        2 0.70488935E-01 0.13798965E+03</pdfrwt>
<pdfrwt beam="2">  1        2 0.20815012E+00 0.52381096E+02</pdfrwt>
<totfact> 0.19921955E+02</totfact>
</mgrwt>
</event>
<event>
 5    1  0.7156190E-003  0.4949661E+02  0.7546771E-02  0.1468068E+00
         -2   -1    0    0    0  501 -0.00000000000E+00  0.00000000000E+00  0.90174022308E+01  0.90174022308E+01  0.00000000000E+00 0.  1.
          1   -1    0    0  502    0  0.00000000000E+00 -0.00000000000E+00 -0.15743630587E+04  0.15743630587E+04  0.00000000000E+00 0. -1.
         25    1    1    2    0    0  0.43418924687E+02  0.23607005394E+02 -0.11095987737E+04  0.11177105763E+04  0.12500000000E+03 0.  0.
          1    1    1    2  502    0  0.58497230716E+01 -0.42387227181E+02 -0.21504528694E+03  0.21926096717E+03  0.00000000000E+00 0. -1.
         -2    1    1    2    0  501 -0.49268647759E+02  0.18780221788E+02 -0.24070159586E+03  0.24640891751E+03  0.00000000000E+00 0.  1.
<mgrwt>
<rscale>  0 0.46020745E+02</rscale>
<asrwt>0</asrwt>
<pdfrwt beam="2">  1        1 0.24220968E+00 0.42788974E+02</pdfrwt>
<pdfrwt beam="1">  1       -2 0.13872928E-02 0.49496605E+02</pdfrwt>
<totfact> 0.70137228E+03</totfact>
</mgrwt>
</event>
<event>
 5    1  0.7156190E-003  0.6473538E+02  0.7546771E-02  0.1456366E+00
          1   -1    0    0  502    0  0.00000000000E+00  0.00000000000E+00  0.23242999672E+02  0.23242999672E+02  0.00000000000E+00 0. -1.
          1   -1    0    0  501    0 -0.00000000000E+00 -0.00000000000E+00 -0.10654841538E+04  0.10654841538E+04  0.00000000000E+00 0. -1.
         25    1    1    2    0    0  0.34325586333E+02  0.88251674218E+01 -0.38803645715E+03  0.40921072999E+03  0.12500000000E+03 0.  0.
          1    1    1    2  501    0 -0.69855599417E+02 -0.64446426368E+01 -0.63537269412E+03  0.63923375898E+03  0.00000000000E+00 0. -1.
          1    1    1    2  502    0  0.35530013084E+02 -0.23805247850E+01 -0.18832002858E+02  0.40282664505E+02  0.00000000000E+00 0. -1.
<mgrwt>
<rscale>  0 0.48012557E+02</rscale>
<asrwt>0</asrwt>
<pdfrwt beam="1">  1        1 0.35758448E-02 0.35609672E+02</pdfrwt>
<pdfrwt beam="2">  1        1 0.16392070E+00 0.64735380E+02</pdfrwt>
<totfact> 0.40114707E+03</totfact>
</mgrwt>
</event>
<event>
 5    1  0.7156190E-003  0.8840641E+02  0.7546771E-02  0.1311435E+00
          2   -1    0    0  501    0  0.00000000000E+00  0.00000000000E+00  0.23858382124E+03  0.23858382124E+03  0.00000000000E+00 0.  1.
          1   -1    0    0  502    0 -0.00000000000E+00 -0.00000000000E+00 -0.19519322252E+04  0.19519322252E+04  0.00000000000E+00 0. -1.
         25    1    1    2    0    0 -0.30744826718E+02 -0.25983202077E+02 -0.27472215131E+03  0.30449570043E+03  0.12500000000E+03 0.  0.
          2    1    1    2  501    0 -0.44997927247E+02  0.76097835682E+02  0.21366630393E+03  0.23123361237E+03  0.00000000000E+00 0.  1.
          1    1    1    2  502    0  0.75742753965E+02 -0.50114633605E+02 -0.16522925566E+04  0.16547867336E+04  0.00000000000E+00 0. -1.
<mgrwt>
<rscale>  0 0.86547226E+02</rscale>
<asrwt>0</asrwt>
<pdfrwt beam="1">  1        2 0.36705203E-01 0.88406414E+02</pdfrwt>
<pdfrwt beam="2">  1        1 0.30029726E+00 0.84727137E+02</pdfrwt>
<totfact> 0.78395764E+01</totfact>
</mgrwt>
</event>
<event>
 5    1  0.7156190E-003  0.4354667E+02  0.7546771E-02  0.1602558E+00
          2   -1    0    0  501    0  0.00000000000E+00  0.00000000000E+00  0.28090595394E+02  0.28090595394E+02  0.00000000000E+00 0. -1.
          1   -1    0    0  502    0 -0.00000000000E+00 -0.00000000000E+00 -0.54857712032E+03  0.54857712032E+03  0.00000000000E+00 0. -1.
         25    1    1    2    0    0 -0.53984247177E+02  0.12598369737E+02 -0.26469900057E+03  0.29793217142E+03  0.12500000000E+03 0.  0.
          2    1    1    2  501    0  0.36095671956E+02 -0.21806419123E+02 -0.29287487590E+02  0.51343688786E+02  0.00000000000E+00 0. -1.
          1    1    1    2  502    0  0.17888575221E+02  0.92080493865E+01 -0.22650003677E+03  0.22739185551E+03  0.00000000000E+00 0. -1.
<mgrwt>
<rscale>  0 0.29599526E+02</rscale>
<asrwt>0</asrwt>
<pdfrwt beam="1">  1        2 0.43216305E-02 0.43546675E+02</pdfrwt>
<pdfrwt beam="2">  1        1 0.84396472E-01 0.20119376E+02</pdfrwt>
<totfact> 0.92701313E+03</totfact>
</mgrwt>
</event>
<event>
 5    1  0.7156190E-003  0.2827343E+03  0.7546771E-02  0.1198721E+00
         -1   -1    0    0    0  501 -0.00000000000E+00  0.00000000000E+00  0.12985761569E+04  0.12985761569E+04  0.00000000000E+00 0.  1.
          2   -1    0    0  502    0  0.00000000000E+00 -0.00000000000E+00 -0.25633962482E+04  0.25633962482E+04  0.00000000000E+00 0. -1.
         25    1    1    2    0    0 -0.23290306923E+03  0.18196144112E+03 -0.17804248958E+03  0.36698492314E+03  0.12500000000E+03 0.  0.
          2    1    1    2  502    0  0.16635608971E+03 -0.22833292493E+03 -0.22807918806E+04  0.22982214593E+04  0.00000000000E+00 0. -1.
         -1    1    1    2    0  501  0.66546979519E+02  0.46371483817E+02  0.11940142789E+04  0.11967660228E+04  0.00000000000E+00 0.  1.
<mgrwt>
<rscale>  0 0.15143496E+03</rscale>
<asrwt>0</asrwt>
<pdfrwt beam="2">  1        2 0.39436865E+00 0.28273429E+03</pdfrwt>
<pdfrwt beam="1">  1       -1 0.19978095E+00 0.81109895E+02</pdfrwt>
<totfact> 0.79354055E-01</totfact>
</mgrwt>
</event>
<event>
 5    1  0.7156190E-003  0.5118273E+02  0.7546771E-02  0.1521055E+00
          2   -1    0    0  502    0  0.00000000000E+00  0.00000000000E+00  0.98647385482E+01  0.98647385482E+01  0.00000000000E+00 0. -1.
         -1   -1    0    0    0  501 -0.00000000000E+00 -0.00000000000E+00 -0.12634745876E+04  0.12634745876E+04  0.00000000000E+00 0.  1.
         25    1    1    2    0    0 -0.28196959323E+01 -0.44014323078E+02 -0.87608455468E+03  0.88605550519E+03  0.12500000000E+03 0.  0.
          2    1    1    2  502    0 -0.25411983757E+02  0.49008112305E+02 -0.28920505586E+03  0.29442677923E+03  0.00000000000E+00 0. -1.
         -1    1    1    2    0  501  0.28231679690E+02 -0.49937892271E+01 -0.88320238467E+02  0.92857041692E+02  0.00000000000E+00 0.  1.
<mgrwt>
<rscale>  0 0.38306736E+02</rscale>
<asrwt>0</asrwt>
<pdfrwt beam="1">  1        2 0.15176519E-02 0.51182731E+02</pdfrwt>
<pdfrwt beam="2">  1       -1 0.19438072E+00 0.28669944E+02</pdfrwt>
<totfact> 0.16188643E+03</totfact>
</mgrwt>
</event>
<event>
 5    1  0.7156190E-003  0.5343135E+02  0.7546771E-02  0.1458180E+00
          1   -1    0    0  501    0  0.00000000000E+00  0.00000000000E+00  0.61305726594E+03  0.61305726594E+03  0.00000000000E+00 0. -1.
          1   -1    0    0  502    0 -0.00000000000E+00 -0.00000000000E+00 -0.73211523134E+02  0.73211523134E+02  0.00000000000E+00 0. -1.
         25    1    1    2    0    0  0.10070289694E+02 -0.55354372562E+02  0.49115681479E+03  0.50992698891E+03  0.12500000000E+03 0.  0.
          1    1    1    2  501    0 -0.47244841878E+02  0.34598444180E+02  0.96152116842E+02  0.11258044678E+03  0.00000000000E+00 0. -1.
          1    1    1    2  502    0  0.37174552184E+02  0.20755928381E+02 -0.47463188825E+02  0.63761353393E+02  0.00000000000E+00 0. -1.
<mgrwt>
<rscale>  0 0.47696102E+02</rscale>
<asrwt>0</asrwt>
<pdfrwt beam="1">  1        1 0.94316499E-01 0.53431346E+02</pdfrwt>
<pdfrwt beam="2">  1        1 0.11263312E-01 0.42576471E+02</pdfrwt>
<totfact> 0.21062073E+03</totfact>
</mgrwt>
</event>
<event>
 5    1  0.7156190E-003  0.1345174E+03  0.7546771E-02  0.1360894E+00
          2   -1    0    0  502    0  0.00000000000E+00  0.00000000000E+00  0.38766245810E+03  0.38766245810E+03  0.00000000000E+00 0. -1.
         -2   -1    0    0    0  501 -0.00000000000E+00 -0.00000000000E+00 -0.22877712060E+03  0.22877712060E+03  0.00000000000E+00 0.  1.
         25    1    1    2    0    0 -0.18789898274E+02 -0.11938044916E+03  0.66162486084E+01  0.17399289257E+03  0.12500000000E+03 0.  0.
          2    1    1    2  502    0  0.29560041123E+02 -0.20865578624E+02  0.26172723417E+03  0.26421641415E+03  0.00000000000E+00 0. -1.
         -2    1    1    2    0  501 -0.10770142849E+02  0.14024602778E+03 -0.10945814527E+03  0.17823027198E+03  0.00000000000E+00 0.  1.
<mgrwt>
<rscale>  0 0.69765080E+02</rscale>
<asrwt>0</asrwt>
<pdfrwt beam="1">  1        2 0.59640378E-01 0.36182432E+02</pdfrwt>
<pdfrwt beam="2">  1       -2 0.35196480E-01 0.13451739E+03</pdfrwt>
<totfact> 0.63014403E+02</totfact>
</mgrwt>
</event>
<event>
 5    1  0.7156190E-003  0.9790618E+02  0.7546771E-02  0.1372459E+00
          1   -1    0    0  502    0 -0.00000000000E+00  0.00000000000E+00  0.15271236718E+04  0.15271236718E+04  0.00000000000E+00 0.  1.
          2   -1    0    0  501    0  0.00000000000E+00 -0.00000000000E+00 -0.10103290802E+04  0.10103290802E+04  0.00000000000E+00 0. -1.
         25    1    1    2    0    0 -0.33438513375E+02  0.89973870173E+02 -0.92594310217E+02  0.18278987328E+03  0.12500000000E+03 0.  0.
          2    1    1    2  501    0  0.44534176620E+02  0.74460160527E+01 -0.87042946263E+03  0.87159978514E+03  0.00000000000E+00 0. -1.
          1    1    1    2  502    0 -0.11095663244E+02 -0.97419886226E+02  0.14798183644E+04  0.14830630936E+04  0.00000000000E+00 0.  1.
<mgrwt>
<rscale>  0 0.66488313E+02</rscale>
<asrwt>0</asrwt>
<pdfrwt beam="2">  1        2 0.15543524E+00 0.45152365E+02</pdfrwt>
<pdfrwt beam="1">  1        1 0.23494210E+00 0.97906184E+02</pdfrwt>
<totfact> 0.29494913E+01</totfact>
</mgrwt>
</event>
<event>
 5    1  0.7156190E-003  0.1558256E+03  0.7546771E-02  0.1266691E+00
          2   -1    0    0  502    0  0.00000000000E+00  0.00000000000E+00  0.22461207296E+04  0.22461207296E+04  0.00000000000E+00 0. -1.
          2   -1    0    0  501    0 -0.00000000000E+00 -0.00000000000E+00 -0.78058552809E+02  0.78058552809E+02  0.00000000000E+00 0. -1.
         25    1    1    2    0    0 -0.91989048397E+02  0.13690655380E+02  0.17320182819E+03  0.23296629017E+03  0.12500000000E+03 0.  0.
          2    1    1    2  501    0 -0.62489160260E+02  0.38013431276E+02 -0.15080482173E+02  0.74681571020E+02  0.00000000000E+00 0. -1.
          2    1    1    2  502    0  0.15447820866E+03 -0.51704086656E+02  0.20099408308E+04  0.20165314213E+04  0.00000000000E+00 0. -1.
<mgrwt>
<rscale>  0 0.10675939E+03</rscale>
<asrwt>0</asrwt>
<pdfrwt beam="1">  1        2 0.34555699E+00 0.15582555E+03</pdfrwt>
<pdfrwt beam="2">  1        2 0.12009010E-01 0.73143121E+02</pdfrwt>
<totfact> 0.43218553E+02</totfact>
</mgrwt>
</event>
<event>
 5    1  0.7156190E-003  0.3234566E+02  0.7546771E-02  0.1590108E+00
         -2   -1    0    0    0  501 -0.00000000000E+00  0.00000000000E+00  0.52423857700E+02  0.52423857700E+02  0.00000000000E+00 0.  1.
          1   -1    0    0  502    0  0.00000000000E+00 -0.00000000000E+00 -0.21185264997E+03  0.21185264997E+03  0.00000000000E+00 0. -1.
         25    1    1    2    0    0  0.90686872284E+01  0.30872699244E+00 -0.74486280640E+02  0.14579280642E+03  0.12500000000E+03 0.  0.
          1    1    1    2  502    0  0.26975843567E+02  0.11187640149E+02 -0.73293553743E+02  0.78897429924E+02  0.00000000000E+00 0. -1.
         -2    1    1    2    0  501 -0.36044530796E+02 -0.11496367141E+02 -0.11648957888E+02  0.39586271327E+02  0.00000000000E+00 0.  1.
<mgrwt>
<rscale>  0 0.30734586E+02</rscale>
<asrwt>0</asrwt>
<pdfrwt beam="2">  1        1 0.32592715E-01 0.29203757E+02</pdfrwt>
<pdfrwt beam="1">  1       -2 0.80652089E-02 0.32345658E+02</pdfrwt>
<totfact> 0.90380876E+03</totfact>
</mgrwt>
</event>
<event>
 5    1  0.7156190E-003  0.9541465E+02  0.7546771E-02  0.1402764E+00
          2   -1    0    0  501    0  0.00000000000E+00  0.00000000000E+00  0.18905815053E+02  0.18905815053E+02  0.00000000000E+00 0. -1.
          1   -1    0    0  502    0 -0.00000000000E+00 -0.00000000000E+00 -0.19114525025E+04  0.19114525025E+04  0.00000000000E+00 0. -1.
         25    1    1    2    0    0 -0.39490018970E+02 -0.10092405188E+03 -0.49105557014E+03  0.51817535527E+03  0.12500000000E+03 0.  0.
          2    1    1    2  501    0  0.35688939104E+02  0.65534455804E+01 -0.86473308874E+02  0.93777828782E+02  0.00000000000E+00 0. -1.
          1    1    1    2  502    0  0.38010798659E+01  0.94370606302E+02 -0.13150178085E+04  0.13184051335E+04  0.00000000000E+00 0. -1.
<mgrwt>
<rscale>  0 0.58840310E+02</rscale>
<asrwt>0</asrwt>
<pdfrwt beam="1">  1        2 0.29085875E-02 0.36285645E+02</pdfrwt>
<pdfrwt beam="2">  1        1 0.29406956E+00 0.95414649E+02</pdfrwt>
<totfact> 0.15275303E+03</totfact>
</mgrwt>
</event>
<event>
 5    1  0.7156190E-003  0.7981708E+02  0.7546771E-02  0.1489449E+00
         -3   -1    0    0    0  501 -0.00000000000E+00  0.00000000000E+00  0.23355173400E+03  0.23355173400E+03  0.00000000000E+00 0.  1.
          2   -1    0    0  502    0  0.00000000000E+00 -0.00000000000E+00 -0.23463585939E+03  0.23463585939E+03  0.00000000000E+00 0. -1.
         25    1    1    2    0    0 -0.47339684475E+02 -0.69210087284E+02 -0.54934252925E+02  0.16023062770E+03  0.12500000000E+03 0.  0.
          2    1    1    2  502    0 -0.13859524816E+02  0.18115346938E+02 -0.11711574796E+03  0.11931617930E+03  0.00000000000E+00 0. -1.
         -3    1    1    2    0  501  0.61199209291E+02  0.51094740346E+02  0.17096587550E+03  0.18864078640E+03  0.00000000000E+00 0.  1.
<mgrwt>
<rscale>  0 0.42667912E+02</rscale>
<asrwt>0</asrwt>
<pdfrwt beam="2">  1        2 0.36097824E-01 0.22809038E+02</pdfrwt>
<pdfrwt beam="1">  1       -3 0.35931036E-01 0.79817076E+02</pdfrwt>
<totfact> 0.60505101E+02</totfact>
</mgrwt>
</event>
<event>
 5    1  0.7156190E-003  0.2900491E+02  0.7546771E-02  0.1616249E+00
         -1   -1    0    0    0  501 -0.00000000000E+00  0.00000000000E+00  0.59856403823E+02  0.59856403823E+02  0.00000000000E+00 0.  1.
          1   -1    0    0  502    0  0.00000000000E+00 -0.00000000000E+00 -0.19788803054E+03  0.19788803054E+03  0.00000000000E+00 0. -1.
         25    1    1    2    0    0  0.39190797476E+01 -0.34661480420E+01 -0.58598938400E+02  0.13815284633E+03  0.12500000000E+03 0.  0.
          1    1    1    2  502    0  0.20194739871E+01  0.30671014709E+02 -0.85703468863E+02  0.91048745151E+02  0.00000000000E+00 0. -1.
         -1    1    1    2    0  501 -0.59385537347E+01 -0.27204866667E+02  0.62707805476E+01  0.28542842877E+02  0.00000000000E+00 0.  1.
<mgrwt>
<rscale>  0 0.28419285E+02</rscale>
<asrwt>0</asrwt>
<pdfrwt beam="2">  1        1 0.30444312E-01 0.29004907E+02</pdfrwt>
<pdfrwt beam="1">  1       -1 0.92086777E-02 0.27845488E+02</pdfrwt>
<totfact> 0.82678221E+03</totfact>
</mgrwt>
</event>
<event>
 5    1  0.7156190E-003  0.1095911E+03  0.7546771E-02  0.1337381E+00
         -2   -1    0    0    0  501  0.00000000000E+00  0.00000000000E+00  0.34571082054E+03  0.34571082054E+03  0.00000000000E+00 0.  1.
         -2   -1    0    0    0  502 -0.00000000000E+00 -0.00000000000E+00 -0.13974670409E+03  0.13974670409E+03  0.00000000000E+00 0.  1.
         25    1    1    2    0    0  0.65914248942E+02  0.25980901927E+02  0.23061504886E+03  0.27171307705E+03  0.12500000000E+03 0.  0.
         -2    1    1    2    0  501  0.48876041161E+02 -0.23639472227E+02  0.52413984239E+02  0.75464679093E+02  0.00000000000E+00 0.  1.
         -2    1    1    2    0  502 -0.11479029010E+03 -0.23414297004E+01 -0.77064916656E+02  0.13827976849E+03  0.00000000000E+00 0.  1.
<mgrwt>
<rscale>  0 0.77136203E+02</rscale>
<asrwt>0</asrwt>
<pdfrwt beam="1">  1       -2 0.53186280E-01 0.54292652E+02</pdfrwt>
<pdfrwt beam="2">  1       -2 0.21499493E-01 0.10959114E+03</pdfrwt>
<totfact> 0.40041221E+02</totfact>
</mgrwt>
</event>
<event>
 5    1  0.7156190E-003  0.7685198E+02  0.7546771E-02  0.1338770E+00
          2   -1    0    0  502    0  0.00000000000E+00  0.00000000000E+00  0.15365077589E+04  0.15365077589E+04  0.00000000000E+00 0. -1.
          2   -1    0    0  501    0 -0.00000000000E+00 -0.00000000000E+00 -0.75978130393E+02  0.75978130393E+02  0.00000000000E+00 0. -1.
         25    1    1    2    0    0  0.78156490668E+02  0.15618103211E+02  0.67861641909E+03  0.69462047655E+03  0.12500000000E+03 0.  0.
          2    1    1    2  501    0 -0.46247168243E+02  0.61379367734E+02 -0.43463562778E+02  0.88291045091E+02  0.00000000000E+00 0. -1.
          2    1    1    2  502    0 -0.31909322425E+02 -0.76997470945E+02  0.82537677219E+03  0.82957436765E+03  0.00000000000E+00 0. -1.
<mgrwt>
<rscale>  0 0.76671929E+02</rscale>
<asrwt>0</asrwt>
<pdfrwt beam="1">  1        2 0.23638579E+00 0.76492297E+02</pdfrwt>
<pdfrwt beam="2">  1        2 0.11688944E-01 0.76851983E+02</pdfrwt>
<totfact> 0.11035332E+03</totfact>
</mgrwt>
</event>
<event>
 5    1  0.7156190E-003  0.6784753E+02  0.7546771E-02  0.1505512E+00
          2   -1    0    0  501    0  0.00000000000E+00  0.00000000000E+00  0.45976593046E+03  0.45976593046E+03  0.00000000000E+00 0. -1.
          2   -1    0    0  502    0 -0.00000000000E+00 -0.00000000000E+00 -0.33108130540E+04  0.33108130540E+04  0.00000000000E+00 0. -1.
         25    1    1    2    0    0 -0.45811148060E+02 -0.25142535442E+02 -0.18273747112E+04  0.18323902815E+04  0.12500000000E+03 0.  0.
          2    1    1    2  501    0 -0.23988810515E+02  0.12172951815E+01  0.45602278359E+03  0.45665492879E+03  0.00000000000E+00 0. -1.
          2    1    1    2  502    0  0.69799958574E+02  0.23925240260E+02 -0.14796951959E+04  0.14815337742E+04  0.00000000000E+00 0. -1.
<mgrwt>
<rscale>  0 0.40369242E+02</rscale>
<asrwt>0</asrwt>
<pdfrwt beam="1">  1        2 0.70733219E-01 0.24019676E+02</pdfrwt>
<pdfrwt beam="2">  1        2 0.50935586E+00 0.67847531E+02</pdfrwt>
<totfact> 0.18622673E+01</totfact>
</mgrwt>
</event>
<event>
 5    1  0.7156190E-003  0.1273465E+03  0.7546771E-02  0.1248049E+00
         -1   -1    0    0    0  501 -0.00000000000E+00  0.00000000000E+00  0.46999319158E+03  0.46999319158E+03  0.00000000000E+00 0.  1.
          3   -1    0    0  502    0  0.00000000000E+00 -0.00000000000E+00 -0.55849895975E+03  0.55849895975E+03  0.00000000000E+00 0. -1.
         25    1    1    2    0    0  0.32191762085E+02  0.96751689374E+01  0.35646156211E+02  0.13425932702E+03  0.12500000000E+03 0.  0.
          3    1    1    2  502    0  0.31288349446E+02 -0.12344303280E+03 -0.48979191582E+03  0.50607634202E+03  0.00000000000E+00 0. -1.
         -1    1    1    2    0  501 -0.63480111530E+02  0.11376786386E+03  0.36563999143E+03  0.38815648229E+03  0.00000000000E+00 0.  1.
<mgrwt>
<rscale>  0 0.11704725E+03</rscale>
<asrwt>0</asrwt>
<pdfrwt beam="2">  1        3 0.85922917E-01 0.12734655E+03</pdfrwt>
<pdfrwt beam="1">  1       -1 0.72306645E-01 0.10758092E+03</pdfrwt>
<totfact> 0.11897097E+01</totfact>
</mgrwt>
</event>
<event>
 5    1  0.7156190E-003  0.5112937E+02  0.7546771E-02  0.1472360E+00
         -2   -1    0    0    0  501 -0.00000000000E+00  0.00000000000E+00  0.50060181493E+02  0.50060181493E+02  0.00000000000E+00 0.  1.
          1   -1    0    0  502    0  0.00000000000E+00 -0.00000000000E+00 -0.92377623848E+03  0.92377623848E+03  0.00000000000E+00 0. -1.
         25    1    1    2    0    0 -0.11748597167E+02 -0.18114514212E+02 -0.40661350612E+03  0.42594096835E+03  0.12500000000E+03 0.  0.
          1    1    1    2  502    0  0.21661520104E+00  0.56592552133E+02 -0.49548788597E+03  0.49870934323E+03  0.00000000000E+00 0. -1.
         -2    1    1    2    0  501  0.11531981966E+02 -0.38478037921E+02  0.28385335101E+02  0.49186108396E+02  0.00000000000E+00 0.  1.
<mgrwt>
<rscale>  0 0.45319026E+02</rscale>
<asrwt>0</asrwt>
<pdfrwt beam="2">  1        1 0.14211941E+00 0.51129371E+02</pdfrwt>
<pdfrwt beam="1">  1       -2 0.77015670E-02 0.40168968E+02</pdfrwt>
<totfact> 0.15328936E+03</totfact>
</mgrwt>
</event>
<event>
 5    1  0.7156190E-003  0.3935013E+02  0.7546771E-02  0.1555168E+00
         -1   -1    0    0    0  501 -0.00000000000E+00  0.00000000000E+00  0.27115397413E+02  0.27115397413E+02  0.00000000000E+00 0.  1.
          2   -1    0    0  502    0  0.00000000000E+00 -0.00000000000E+00 -0.46736278037E+03  0.46736278037E+03  0.00000000000E+00 0. -1.
         25    1    1    2    0    0 -0.19542655851E+02  0.24442817576E+02 -0.32652213020E+03  0.35102858607E+03  0.12500000000E+03 0.  0.
          2    1    1    2  502    0  0.25041897916E+02  0.16242348835E+02 -0.92572643903E+02  0.97265641139E+02  0.00000000000E+00 0. -1.
         -1    1    1    2    0  501 -0.54992420642E+01 -0.40685166411E+02 -0.21152608852E+02  0.46183950572E+02  0.00000000000E+00 0.  1.
<mgrwt>
<rscale>  0 0.34271380E+02</rscale>
<asrwt>0</asrwt>
<pdfrwt beam="2">  1        2 0.71901963E-01 0.29848125E+02</pdfrwt>
<pdfrwt beam="1">  1       -1 0.41715998E-02 0.39350127E+02</pdfrwt>
<totfact> 0.14729866E+04</totfact>
</mgrwt>
</event>
<event>
 5    1  0.7156190E-003  0.1119530E+03  0.7546771E-02  0.1383118E+00
          2   -1    0    0  502    0  0.00000000000E+00  0.00000000000E+00  0.73223877267E+03  0.73223877267E+03  0.00000000000E+00 0. -1.
          2   -1    0    0  501    0 -0.00000000000E+00 -0.00000000000E+00 -0.13701391329E+04  0.13701391329E+04  0.00000000000E+00 0. -1.
         25    1    1    2    0    0 -0.28391230201E+02 -0.95581392030E+02 -0.43756592447E+03  0.46586564878E+03  0.12500000000E+03 0.  0.
          2    1    1    2  501    0 -0.35990369908E+02  0.37871268101E+01 -0.91368635133E+03  0.91440275462E+03  0.00000000000E+00 0. -1.
          2    1    1    2  502    0  0.64381600110E+02  0.91794265220E+02  0.71335191561E+03  0.72210950213E+03  0.00000000000E+00 0. -1.
<mgrwt>
<rscale>  0 0.63651210E+02</rscale>
<asrwt>0</asrwt>
<pdfrwt beam="1">  1        2 0.11265212E+00 0.11195303E+03</pdfrwt>
<pdfrwt beam="2">  1        2 0.21079063E+00 0.36189074E+02</pdfrwt>
<totfact> 0.11893558E+02</totfact>
</mgrwt>
</event>
<event>
 5    1  0.7156190E-003  0.2996908E+02  0.7546771E-02  0.1605312E+00
         -2   -1    0    0    0  501 -0.00000000000E+00  0.00000000000E+00  0.94504914264E+02  0.94504914264E+02  0.00000000000E+00 0.  1.
          1   -1    0    0  502    0  0.00000000000E+00 -0.00000000000E+00 -0.13223766588E+03  0.13223766588E+03  0.00000000000E+00 0. -1.
         25    1    1    2    0    0 -0.17718056596E+02  0.95401428690E+01 -0.73209644134E+02  0.14625182341E+03  0.12500000000E+03 0.  0.
          1    1    1    2  502    0  0.34199258372E+02  0.15490158159E+02  0.52214700897E+01  0.37905118690E+02  0.00000000000E+00 0. -1.
         -2    1    1    2    0  501 -0.16481201776E+02 -0.25030301028E+02  0.30255422430E+02  0.42585638048E+02  0.00000000000E+00 0.  1.
<mgrwt>
<rscale>  0 0.29356592E+02</rscale>
<asrwt>0</asrwt>
<pdfrwt beam="2">  1        1 0.20344256E-01 0.28756618E+02</pdfrwt>
<pdfrwt beam="1">  1       -2 0.14539218E-01 0.29969084E+02</pdfrwt>
<totfact> 0.64117451E+03</totfact>
</mgrwt>
</event>
<event>
 5    1  0.7156190E-003  0.1193493E+03  0.7546771E-02  0.1420592E+00
         -1   -1    0    0    0  501 -0.00000000000E+00  0.00000000000E+00  0.70572056847E+02  0.70572056847E+02  0.00000000000E+00 0.  1.
          2   -1    0    0  502    0  0.00000000000E+00 -0.00000000000E+00 -0.12713874263E+04  0.12713874263E+04  0.00000000000E+00 0. -1.
         25    1    1    2    0    0  0.33195879782E+02 -0.11027519832E+03 -0.71936769597E+03  0.73917350318E+03  0.12500000000E+03 0.  0.
          2    1    1    2  502    0 -0.11275023298E+02  0.12280630870E+03 -0.53209195247E+03  0.54619626646E+03  0.00000000000E+00 0. -1.
         -1    1    1    2    0  501 -0.21920856484E+02 -0.12531110386E+02  0.50644279009E+02  0.56589713490E+02  0.00000000000E+00 0.  1.
<mgrwt>
<rscale>  0 0.54895782E+02</rscale>
<asrwt>0</asrwt>
<pdfrwt beam="2">  1        2 0.19559805E+00 0.11934931E+03</pdfrwt>
<pdfrwt beam="1">  1       -1 0.10857240E-01 0.25249805E+02</pdfrwt>
<totfact> 0.99979440E+02</totfact>
</mgrwt>
</event>
<event>
 5    1  0.7156190E-003  0.7550382E+02  0.7546771E-02  0.1361501E+00
          2   -1    0    0  501    0  0.00000000000E+00  0.00000000000E+00  0.56532678441E+02  0.56532678441E+02  0.00000000000E+00 0. -1.
          2   -1    0    0  502    0 -0.00000000000E+00 -0.00000000000E+00 -0.16342990545E+04  0.16342990545E+04  0.00000000000E+00 0. -1.
         25    1    1    2    0    0  0.39529074156E+02  0.12951251634E+02 -0.26094119193E+03  0.29231077344E+03  0.12500000000E+03 0.  0.
          2    1    1    2  501    0 -0.70824048096E+02  0.43029971905E+02 -0.27863802855E+01  0.82917960575E+02  0.00000000000E+00 0. -1.
          2    1    1    2  502    0  0.31294973940E+02 -0.55981223539E+02 -0.13140388039E+04  0.13156029989E+04  0.00000000000E+00 0. -1.
<mgrwt>
<rscale>  0 0.69587515E+02</rscale>
<asrwt>0</asrwt>
<pdfrwt beam="1">  1        2 0.86973369E-02 0.75503816E+02</pdfrwt>
<pdfrwt beam="2">  1        2 0.25143057E+00 0.64134802E+02</pdfrwt>
<totfact> 0.14281207E+03</totfact>
</mgrwt>
</event>
<event>
 5    1  0.7156190E-003  0.6128368E+02  0.7546771E-02  0.1432524E+00
         -1   -1    0    0    0  501 -0.00000000000E+00  0.00000000000E+00  0.16909977897E+03  0.16909977897E+03  0.00000000000E+00 0.  1.
          3   -1    0    0  502    0  0.00000000000E+00 -0.00000000000E+00 -0.48248922317E+03  0.48248922317E+03  0.00000000000E+00 0. -1.
         25    1    1    2    0    0 -0.52660723962E+01  0.39379453158E+02  0.31537728650E+02  0.13490033795E+03  0.12500000000E+03 0.  0.
          3    1    1    2  502    0  0.39978617935E+02  0.20440484926E+02 -0.41547488303E+03  0.41789410350E+03  0.00000000000E+00 0. -1.
         -1    1    1    2    0  501 -0.34712545539E+02 -0.59819938084E+02  0.70547710175E+02  0.98794560686E+02  0.00000000000E+00 0.  1.
<mgrwt>
<rscale>  0 0.52456656E+02</rscale>
<asrwt>0</asrwt>
<pdfrwt beam="2">  1        3 0.74229111E-01 0.44901039E+02</pdfrwt>
<pdfrwt beam="1">  1       -1 0.26015351E-01 0.61283677E+02</pdfrwt>
<totfact> 0.95333083E+01</totfact>
</mgrwt>
</event>
<event>
 5    1  0.7156190E-003  0.9186385E+02  0.7546771E-02  0.1309256E+00
          1   -1    0    0  502    0  0.00000000000E+00  0.00000000000E+00  0.61332556670E+03  0.61332556670E+03  0.00000000000E+00 0. -1.
          1   -1    0    0  501    0 -0.00000000000E+00 -0.00000000000E+00 -0.37290465287E+03  0.37290465287E+03  0.00000000000E+00 0. -1.
         25    1    1    2    0    0 -0.24458380061E+02 -0.54410038117E+02  0.21058664072E+03  0.25205237125E+03  0.12500000000E+03 0.  0.
          1    1    1    2  501    0 -0.56158953656E+02  0.74841876253E+02 -0.34127200856E+03  0.35386680877E+03  0.00000000000E+00 0. -1.
          1    1    1    2  502    0  0.80617333717E+02 -0.20431838136E+02  0.37110628168E+03  0.38031103955E+03  0.00000000000E+00 0. -1.
<mgrwt>
<rscale>  0 0.87406901E+02</rscale>
<asrwt>0</asrwt>
<pdfrwt beam="1">  1        1 0.94357779E-01 0.83166186E+02</pdfrwt>
<pdfrwt beam="2">  1        1 0.57369947E-01 0.91863854E+02</pdfrwt>
<totfact> 0.28599189E+02</totfact>
</mgrwt>
</event>
<event>
 5    1  0.7156190E-003  0.9973265E+02  0.7546771E-02  0.1297528E+00
          2   -1    0    0  501    0  0.00000000000E+00  0.00000000000E+00  0.90740739713E+03  0.90740739713E+03  0.00000000000E+00 0.  1.
          2   -1    0    0  502    0 -0.00000000000E+00 -0.00000000000E+00 -0.13188342003E+03  0.13188342003E+03  0.00000000000E+00 0. -1.
         25    1    1    2    0    0 -0.37930581025E+02 -0.77004127027E+02  0.22785149863E+02  0.15333795228E+03  0.12500000000E+03 0.  0.
          2    1    1    2  501    0 -0.75942905313E+02  0.38844808829E+02  0.76081746799E+03  0.76558439355E+03  0.00000000000E+00 0.  1.
          2    1    1    2  502    0  0.11387348634E+03  0.38159318197E+02 -0.80786407527E+01  0.12036847134E+03  0.00000000000E+00 0. -1.
<mgrwt>
<rscale>  0 0.92234945E+02</rscale>
<asrwt>0</asrwt>
<pdfrwt beam="1">  1        2 0.13960113E+00 0.85300903E+02</pdfrwt>
<pdfrwt beam="2">  1        2 0.20289757E-01 0.99732649E+02</pdfrwt>
<totfact> 0.12925108E+03</totfact>
</mgrwt>
</event>
<event>
 5    1  0.7156190E-003  0.1824763E+03  0.7546771E-02  0.1386738E+00
          2   -1    0    0  502    0  0.00000000000E+00  0.00000000000E+00  0.69591779713E+03  0.69591779713E+03  0.00000000000E+00 0. -1.
         -1   -1    0    0    0  501 -0.00000000000E+00 -0.00000000000E+00 -0.19974704036E+03  0.19974704036E+03  0.00000000000E+00 0.  1.
         25    1    1    2    0    0  0.16528423557E+03 -0.85122848814E+02  0.12794639035E+03  0.25799235787E+03  0.12500000000E+03 0.  0.
          2    1    1    2  502    0  0.47161030213E+01  0.21039476951E+02  0.44131644023E+03  0.44184284722E+03  0.00000000000E+00 0. -1.
         -1    1    1    2    0  501 -0.17000033859E+03  0.64083371863E+02 -0.73092073812E+02  0.19582963239E+03  0.00000000000E+00 0.  1.
<mgrwt>
<rscale>  0 0.62725399E+02</rscale>
<asrwt>0</asrwt>
<pdfrwt beam="1">  1        2 0.10706427E+00 0.21561568E+02</pdfrwt>
<pdfrwt beam="2">  1       -1 0.30730314E-01 0.18247632E+03</pdfrwt>
<totfact> 0.50927957E+02</totfact>
</mgrwt>
</event>
<event>
 5    1  0.7156190E-003  0.8538407E+02  0.7546771E-02  0.1401882E+00
         -2   -1    0    0    0  501 -0.00000000000E+00  0.00000000000E+00  0.27543921510E+02  0.27543921510E+02  0.00000000000E+00 0.  1.
          1   -1    0    0  502    0  0.00000000000E+00 -0.00000000000E+00 -0.84762025763E+03  0.84762025763E+03  0.00000000000E+00 0. -1.
         25    1    1    2    0    0 -0.51332137109E+02 -0.96772852261E+02 -0.38725676140E+03  0.42141757496E+03  0.12500000000E+03 0.  0.
          1    1    1    2  502    0  0.57155576852E+02  0.56358857763E+02 -0.37152507491E+03  0.38009730609E+03  0.00000000000E+00 0. -1.
         -2    1    1    2    0  501 -0.58234397430E+01  0.40413994498E+02 -0.61294499814E+02  0.73649298090E+02  0.00000000000E+00 0.  1.
<mgrwt>
<rscale>  0 0.59045333E+02</rscale>
<asrwt>0</asrwt>
<pdfrwt beam="2">  1        1 0.13040313E+00 0.85384070E+02</pdfrwt>
<pdfrwt beam="1">  1       -2 0.42375258E-02 0.40831402E+02</pdfrwt>
<totfact> 0.40724755E+03</totfact>
</mgrwt>
</event>
<event>
 5    1  0.7156190E-003  0.5114713E+02  0.7546771E-02  0.1457066E+00
          2   -1    0    0  501    0  0.00000000000E+00  0.00000000000E+00  0.25211716208E+03  0.25211716208E+03  0.00000000000E+00 0. -1.
          2   -1    0    0  502    0 -0.00000000000E+00 -0.00000000000E+00 -0.25283351255E+03  0.25283351255E+03  0.00000000000E+00 0. -1.
         25    1    1    2    0    0  0.29475155794E+02  0.24957836817E+02 -0.17173957206E+03  0.21589617653E+03  0.12500000000E+03 0.  0.
          2    1    1    2  501    0  0.69195451346E+01 -0.51150822217E+02  0.21805013745E+03  0.22407621284E+03  0.00000000000E+00 0. -1.
          2    1    1    2  502    0 -0.36394700929E+02  0.26192985400E+02 -0.47026915863E+02  0.64978285261E+02  0.00000000000E+00 0. -1.
<mgrwt>
<rscale>  0 0.47889974E+02</rscale>
<asrwt>0</asrwt>
<pdfrwt beam="1">  1        2 0.38787256E-01 0.51147135E+02</pdfrwt>
<pdfrwt beam="2">  1        2 0.38897463E-01 0.44840236E+02</pdfrwt>
<totfact> 0.25652343E+03</totfact>
</mgrwt>
</event>
<event>
 5    1  0.7156190E-003  0.8145401E+02  0.7546771E-02  0.1362832E+00
          2   -1    0    0  502    0  0.00000000000E+00  0.00000000000E+00  0.23608239094E+03  0.23608239094E+03  0.00000000000E+00 0. -1.
          2   -1    0    0  501    0 -0.00000000000E+00 -0.00000000000E+00 -0.49653112178E+03  0.49653112178E+03  0.00000000000E+00 0. -1.
         25    1    1    2    0    0  0.98168596619E+02  0.20305974319E+01 -0.22357021216E+03  0.27431703639E+03  0.12500000000E+03 0.  0.
          2    1    1    2  501    0 -0.63890946570E+02 -0.49794472866E+02 -0.23661030113E+03  0.25009193746E+03  0.00000000000E+00 0. -1.
          2    1    1    2  502    0 -0.34277650048E+02  0.47763875434E+02  0.19973178245E+03  0.20820453888E+03  0.00000000000E+00 0. -1.
<mgrwt>
<rscale>  0 0.69200705E+02</rscale>
<asrwt>0</asrwt>
<pdfrwt beam="1">  1        2 0.36320368E-01 0.58790689E+02</pdfrwt>
<pdfrwt beam="2">  1        2 0.76389403E-01 0.81454013E+02</pdfrwt>
<totfact> 0.13706835E+03</totfact>
</mgrwt>
</event>
<event>
 5    1  0.7156190E-003  0.1497953E+03  0.7546771E-02  0.1242198E+00
          2   -1    0    0  501    0  0.00000000000E+00  0.00000000000E+00  0.11122240826E+04  0.11122240826E+04  0.00000000000E+00 0. -1.
          1   -1    0    0  502    0 -0.00000000000E+00 -0.00000000000E+00 -0.29557663054E+03  0.29557663054E+03  0.00000000000E+00 0. -1.
         25    1    1    2    0    0 -0.21118818274E+03 -0.24183681731E+01  0.37234230714E+03  0.44594852923E+03  0.12500000000E+03 0.  0.
          2    1    1    2  501    0  0.12931233264E+03  0.54448877455E+02  0.68663624044E+03  0.70082500406E+03  0.00000000000E+00 0. -1.
          1    1    1    2  502    0  0.81875850097E+02 -0.52030509282E+02 -0.24233109556E+03  0.26102717981E+03  0.00000000000E+00 0. -1.
<mgrwt>
<rscale>  0 0.12054689E+03</rscale>
<asrwt>0</asrwt>
<pdfrwt beam="1">  1        2 0.17111139E+00 0.14979527E+03</pdfrwt>
<pdfrwt beam="2">  1        1 0.45473328E-01 0.97009426E+02</pdfrwt>
<totfact> 0.28376741E+02</totfact>
</mgrwt>
</event>
<event>
 5    1  0.7156190E-003  0.5093417E+02  0.7546771E-02  0.1457205E+00
         -2   -1    0    0    0  501  0.00000000000E+00  0.00000000000E+00  0.42151623070E+03  0.42151623070E+03  0.00000000000E+00 0.  1.
         -2   -1    0    0    0  502 -0.00000000000E+00 -0.00000000000E+00 -0.28932347414E+03  0.28932347414E+03  0.00000000000E+00 0.  1.
         25    1    1    2    0    0  0.44949932593E+02  0.92540187572E+01 -0.12716747706E+03  0.18412685987E+03  0.12500000000E+03 0.  0.
         -2    1    1    2    0  501 -0.20465606173E+02  0.40056991669E+02  0.38600590071E+03  0.38861801167E+03  0.00000000000E+00 0.  1.
         -2    1    1    2    0  502 -0.24484326420E+02 -0.49311010427E+02 -0.12664566709E+03  0.13809483329E+03  0.00000000000E+00 0.  1.
<mgrwt>
<rscale>  0 0.47865792E+02</rscale>
<asrwt>0</asrwt>
<pdfrwt beam="1">  1       -2 0.64848651E-01 0.44982259E+02</pdfrwt>
<pdfrwt beam="2">  1       -2 0.44511304E-01 0.50934170E+02</pdfrwt>
<totfact> 0.71979196E+01</totfact>
</mgrwt>
</event>
<event>
 5    1  0.7156190E-003  0.1545728E+03  0.7546771E-02  0.1272107E+00
          1   -1    0    0  502    0 -0.00000000000E+00  0.00000000000E+00  0.47989453050E+03  0.47989453050E+03  0.00000000000E+00 0. -1.
          2   -1    0    0  501    0  0.00000000000E+00 -0.00000000000E+00 -0.17855005931E+04  0.17855005931E+04  0.00000000000E+00 0. -1.
         25    1    1    2    0    0  0.42027671205E+02  0.10450864357E+03 -0.20444880784E+03  0.26478802231E+03  0.12500000000E+03 0.  0.
          2    1    1    2  501    0 -0.45670612501E+02  0.53009988472E+02 -0.15362610750E+04  0.15378536843E+04  0.00000000000E+00 0. -1.
          1    1    1    2  502    0  0.36429412955E+01 -0.15751863204E+03  0.43510382030E+03  0.46275341695E+03  0.00000000000E+00 0. -1.
<mgrwt>
<rscale>  0 0.10399772E+03</rscale>
<asrwt>0</asrwt>
<pdfrwt beam="2">  1        2 0.27469240E+00 0.69970449E+02</pdfrwt>
<pdfrwt beam="1">  1        1 0.73829928E-01 0.15457278E+03</pdfrwt>
<totfact> 0.72582425E+01</totfact>
</mgrwt>
</event>
<event>
 5    1  0.7156190E-003  0.7683010E+02  0.7546771E-02  0.1507952E+00
         -1   -1    0    0    0  501 -0.00000000000E+00  0.00000000000E+00  0.68899918981E+02  0.68899918981E+02  0.00000000000E+00 0.  1.
          2   -1    0    0  502    0  0.00000000000E+00 -0.00000000000E+00 -0.30894425866E+03  0.30894425866E+03  0.00000000000E+00 0. -1.
         25    1    1    2    0    0 -0.39645702931E+02 -0.52577349909E+02 -0.62605364980E+02  0.15453346307E+03  0.12500000000E+03 0.  0.
          2    1    1    2  502    0 -0.47687922536E+01 -0.20309519513E+02 -0.11670514693E+03  0.11855508966E+03  0.00000000000E+00 0. -1.
         -1    1    1    2    0  501  0.44414495185E+02  0.72886869422E+02 -0.60733827768E+02  0.10475562492E+03  0.00000000000E+00 0.  1.
<mgrwt>
<rscale>  0 0.40035238E+02</rscale>
<asrwt>0</asrwt>
<pdfrwt beam="2">  1        2 0.47529885E-01 0.20861878E+02</pdfrwt>
<pdfrwt beam="1">  1       -1 0.10599988E-01 0.76830103E+02</pdfrwt>
<totfact> 0.60685734E+03</totfact>
</mgrwt>
</event>
<event>
 5    1  0.7156190E-003  0.6858168E+02  0.7546771E-02  0.1385951E+00
         -2   -1    0    0    0  501 -0.00000000000E+00  0.00000000000E+00  0.73596497056E+03  0.73596497056E+03  0.00000000000E+00 0.  1.
          2   -1    0    0  502    0  0.00000000000E+00 -0.00000000000E+00 -0.71350526411E+03  0.71350526411E+03  0.00000000000E+00 0. -1.
         25    1    1    2    0    0 -0.12138402439E+03 -0.98338208212E+01 -0.15888779495E+03  0.23601084042E+03  0.12500000000E+03 0.  0.
          2    1    1    2  502    0  0.65572132365E+02 -0.49432811519E+01 -0.51275775206E+03  0.51695710932E+03  0.00000000000E+00 0. -1.
         -2    1    1    2    0  501  0.55811892025E+02  0.14777101973E+02  0.69410525346E+03  0.69650228494E+03  0.00000000000E+00 0.  1.
<mgrwt>
<rscale>  0 0.62925062E+02</rscale>
<asrwt>0</asrwt>
<pdfrwt beam="2">  1        2 0.10977004E+00 0.68581684E+02</pdfrwt>
<pdfrwt beam="1">  1       -2 0.11322538E+00 0.57734998E+02</pdfrwt>
<totfact> 0.29191666E+01</totfact>
</mgrwt>
</event>
<event>
 5    1  0.7156190E-003  0.9885362E+02  0.7546771E-02  0.1365358E+00
          2   -1    0    0  502    0  0.00000000000E+00  0.00000000000E+00  0.13425368766E+04  0.13425368766E+04  0.00000000000E+00 0. -1.
         -3   -1    0    0    0  501 -0.00000000000E+00 -0.00000000000E+00 -0.38710631335E+02  0.38710631335E+02  0.00000000000E+00 0.  1.
         25    1    1    2    0    0  0.42604935878E+02  0.52034560696E+02  0.47678111747E+03  0.49746156640E+03  0.12500000000E+03 0.  0.
          2    1    1    2  502    0 -0.87341669596E+02 -0.67795146828E+02  0.82897406252E+03  0.83631497984E+03  0.00000000000E+00 0. -1.
         -3    1    1    2    0  501  0.44736733718E+02  0.15760586132E+02 -0.19289346830E+01  0.47470961735E+02  0.00000000000E+00 0.  1.
<mgrwt>
<rscale>  0 0.68474819E+02</rscale>
<asrwt>0</asrwt>
<pdfrwt beam="1">  1        2 0.20654410E+00 0.98853622E+02</pdfrwt>
<pdfrwt beam="2">  1       -3 0.59554828E-02 0.47431755E+02</pdfrwt>
<totfact> 0.15509365E+03</totfact>
</mgrwt>
</event>
<event>
 5    1  0.7156190E-003  0.9293421E+02  0.7546771E-02  0.1342197E+00
          1   -1    0    0  501    0  0.00000000000E+00  0.00000000000E+00  0.11110804741E+03  0.11110804741E+03  0.00000000000E+00 0. -1.
          1   -1    0    0  502    0 -0.00000000000E+00 -0.00000000000E+00 -0.47814917332E+03  0.47814917332E+03  0.00000000000E+00 0. -1.
         25    1    1    2    0    0 -0.28323752489E+02  0.61214496148E+02 -0.20922658190E+03  0.25288379163E+03  0.12500000000E+03 0.  0.
          1    1    1    2  501    0 -0.61056068005E+02  0.65504210564E+01  0.63452821610E+02  0.88300690974E+02  0.00000000000E+00 0. -1.
          1    1    1    2  502    0  0.89379820495E+02 -0.67764917205E+02 -0.22126736562E+03  0.24807273813E+03  0.00000000000E+00 0. -1.
<mgrwt>
<rscale>  0 0.75543098E+02</rscale>
<asrwt>0</asrwt>
<pdfrwt beam="1">  1        1 0.17093546E-01 0.61406445E+02</pdfrwt>
<pdfrwt beam="2">  1        1 0.73561410E-01 0.92934214E+02</pdfrwt>
<totfact> 0.17295639E+03</totfact>
</mgrwt>
</event>
<event>
 5    1  0.7156190E-003  0.5182330E+02  0.7546771E-02  0.1441676E+00
          1   -1    0    0  502    0  0.00000000000E+00  0.00000000000E+00  0.11947146529E+04  0.11947146529E+04  0.00000000000E+00 0. -1.
         -1   -1    0    0    0  501 -0.00000000000E+00 -0.00000000000E+00 -0.84697965020E+02  0.84697965020E+02  0.00000000000E+00 0. -1.
         25    1    1    2    0    0 -0.85972842658E+02 -0.69306858487E+01  0.10039308239E+04  0.10153528763E+04  0.12500000000E+03 0.  0.
          1    1    1    2  502    0  0.39659272695E+02  0.29744048233E+02  0.17276113398E+03  0.17973306799E+03  0.00000000000E+00 0. -1.
         -1    1    1    2    0  501  0.46313569963E+02 -0.22813362385E+02 -0.66675270008E+02  0.84326673696E+02  0.00000000000E+00 0. -1.
<mgrwt>
<rscale>  0 0.50686094E+02</rscale>
<asrwt>0</asrwt>
<pdfrwt beam="1">  1        1 0.18380224E+00 0.49573847E+02</pdfrwt>
<pdfrwt beam="2">  1       -1 0.13030457E-01 0.51823296E+02</pdfrwt>
<totfact> 0.48689784E+02</totfact>
</mgrwt>
</event>
<event>
 5    1  0.7156190E-003  0.1516395E+03  0.7546771E-02  0.1260849E+00
          1   -1    0    0  502    0  0.00000000000E+00  0.00000000000E+00  0.84544757303E+02  0.84544757303E+02  0.00000000000E+00 0. -1.
          1   -1    0    0  501    0 -0.00000000000E+00 -0.00000000000E+00 -0.81000427219E+03  0.81000427219E+03  0.00000000000E+00 0. -1.
         25    1    1    2    0    0 -0.26657219469E+02  0.83741105485E+01 -0.86545618631E+02  0.15458291361E+03  0.12500000000E+03 0.  0.
          1    1    1    2  501    0 -0.44075063751E+02  0.14509283238E+03 -0.49596984705E+03  0.51863342587E+03  0.00000000000E+00 0. -1.
          1    1    1    2  502    0  0.70732283221E+02 -0.15346694293E+03 -0.14294404921E+03  0.22133269001E+03  0.00000000000E+00 0. -1.
<mgrwt>
<rscale>  0 0.10984917E+03</rscale>
<asrwt>0</asrwt>
<pdfrwt beam="1">  1        1 0.13006885E-01 0.79575838E+02</pdfrwt>
<pdfrwt beam="2">  1        1 0.12461605E+00 0.15163951E+03</pdfrwt>
<totfact> 0.11781967E+03</totfact>
</mgrwt>
</event>
<event>
 5    1  0.7156190E-003  0.9465725E+02  0.7546771E-02  0.1481910E+00
          1   -1    0    0  502    0  0.00000000000E+00  0.00000000000E+00  0.63173480712E+02  0.63173480712E+02  0.00000000000E+00 0. -1.
         -3   -1    0    0    0  501 -0.00000000000E+00 -0.00000000000E+00 -0.95900458312E+03  0.95900458312E+03  0.00000000000E+00 0.  1.
         25    1    1    2    0    0  0.64466367861E+02 -0.55618318163E+02 -0.19803302108E+03  0.24918143458E+03  0.12500000000E+03 0.  0.
          1    1    1    2  502    0 -0.83931193432E+02  0.49938554651E+02 -0.26233704736E+02  0.10112621686E+03  0.00000000000E+00 0. -1.
         -3    1    1    2    0  501  0.19464825571E+02  0.56797635111E+01 -0.67156437659E+03  0.67187041240E+03  0.00000000000E+00 0.  1.
<mgrwt>
<rscale>  0 0.43810090E+02</rscale>
<asrwt>0</asrwt>
<pdfrwt beam="1">  1        1 0.97189967E-02 0.94657247E+02</pdfrwt>
<pdfrwt beam="2">  1       -3 0.14753917E+00 0.20276566E+02</pdfrwt>
<totfact> 0.11885519E+02</totfact>
</mgrwt>
</event>
<event>
 5    1  0.7156190E-003  0.8039947E+02  0.7546771E-02  0.1503039E+00
         -1   -1    0    0    0  501 -0.00000000000E+00  0.00000000000E+00  0.10221393264E+02  0.10221393264E+02  0.00000000000E+00 0.  1.
          2   -1    0    0  502    0  0.00000000000E+00 -0.00000000000E+00 -0.15751992452E+04  0.15751992452E+04  0.00000000000E+00 0. -1.
         25    1    1    2    0    0 -0.52240287405E+02  0.49577173031E+02 -0.81432277796E+03  0.82700273906E+03  0.12500000000E+03 0.  0.
          2    1    1    2  502    0 -0.20572177572E+02 -0.13282754582E+01 -0.12335757030E+03  0.12506825719E+03  0.00000000000E+00 0. -1.
         -1    1    1    2    0  501  0.72812464977E+02 -0.48248897573E+02 -0.62729750371E+03  0.63334964224E+03  0.00000000000E+00 0.  1.
<mgrwt>
<rscale>  0 0.40711622E+02</rscale>
<asrwt>0</asrwt>
<pdfrwt beam="2">  1        2 0.24233836E+00 0.20615014E+02</pdfrwt>
<pdfrwt beam="1">  1       -1 0.15725220E-02 0.80399469E+02</pdfrwt>
<totfact> 0.14815461E+04</totfact>
</mgrwt>
</event>
<event>
 5    1  0.7156190E-003  0.2168307E+03  0.7546771E-02  0.1276954E+00
          3   -1    0    0  502    0  0.00000000000E+00  0.00000000000E+00  0.67174343779E+03  0.67174343779E+03  0.00000000000E+00 0. -1.
         -3   -1    0    0    0  501 -0.00000000000E+00 -0.00000000000E+00 -0.75689072754E+03  0.75689072754E+03  0.00000000000E+00 0.  1.
         25    1    1    2    0    0  0.75889235225E+02  0.17263479312E+03 -0.13180205295E+03  0.26183721848E+03  0.12500000000E+03 0.  0.
          3    1    1    2  502    0 -0.12957121323E+02  0.45815345680E+02  0.58264580918E+03  0.58458795048E+03  0.00000000000E+00 0. -1.
         -3    1    1    2    0  501 -0.62932113902E+02 -0.21845013880E+03 -0.53599104598E+03  0.58220899638E+03  0.00000000000E+00 0.  1.
<mgrwt>
<rscale>  0 0.10160616E+03</rscale>
<asrwt>0</asrwt>
<pdfrwt beam="1">  1        3 0.10334514E+00 0.47612319E+02</pdfrwt>
<pdfrwt beam="2">  1       -3 0.11644473E+00 0.21683070E+03</pdfrwt>
<totfact> 0.12749672E+00</totfact>
</mgrwt>
</event>
<event>
 5    1  0.7156190E-003  0.3521071E+03  0.7546771E-02  0.1149362E+00
         -3   -1    0    0    0  501 -0.00000000000E+00  0.00000000000E+00  0.96408663990E+03  0.96408663990E+03  0.00000000000E+00 0.  1.
          1   -1    0    0  502    0  0.00000000000E+00 -0.00000000000E+00 -0.40997305785E+04  0.40997305785E+04  0.00000000000E+00 0. -1.
         25    1    1    2    0    0  0.30108920160E+03 -0.34465685235E+03 -0.39971673719E+03  0.62035596489E+03  0.12500000000E+03 0.  0.
          1    1    1    2  502    0 -0.21822816474E+03  0.26620190311E+03 -0.35775833832E+04  0.35941048745E+04  0.00000000000E+00 0. -1.
         -3    1    1    2    0  501 -0.82861036863E+02  0.78454949237E+02  0.84165618171E+03  0.84935637909E+03  0.00000000000E+00 0.  1.
<mgrwt>
<rscale>  0 0.20044700E+03</rscale>
<asrwt>0</asrwt>
<pdfrwt beam="2">  1        1 0.63072778E+00 0.35210710E+03</pdfrwt>
<pdfrwt beam="1">  1       -3 0.14832102E+00 0.11411017E+03</pdfrwt>
<totfact> 0.18958710E-02</totfact>
</mgrwt>
</event>
<event>
 5    1  0.1070399E-002  0.1587312E+03  0.7546771E-02  0.1353049E+00
         -1   -1    0    0    0  501 -0.00000000000E+00  0.00000000000E+00  0.67684504915E+02  0.67684504915E+02  0.00000000000E+00 0.  1.
          2   -1    0    0  502    0  0.00000000000E+00 -0.00000000000E+00 -0.58003766442E+03  0.58003766442E+03  0.00000000000E+00 0. -1.
         25    1    1    2    0    0 -0.53904717149E+01  0.16805724219E+03 -0.28423430708E+03  0.35310966449E+03  0.12500000000E+03 0.  0.
          2    1    1    2  502    0  0.28310424181E+02 -0.16489005009E+02 -0.33280362300E+02  0.46700641520E+02  0.00000000000E+00 0. -1.
         -1    1    1    2    0  501 -0.22919952466E+02 -0.15156823718E+03 -0.19483849013E+03  0.24791186333E+03  0.00000000000E+00 0.  1.
<mgrwt>
<rscale>  0 0.72113775E+02</rscale>
<asrwt>0</asrwt>
<pdfrwt beam="2">  1        2 0.89236566E-01 0.32762286E+02</pdfrwt>
<pdfrwt beam="1">  1       -1 0.10413001E-01 0.15873118E+03</pdfrwt>
<totfact> 0.34610517E+03</totfact>
</mgrwt>
</event>
<event>
 5    1  0.7156190E-003  0.3918097E+03  0.7546771E-02  0.1155868E+00
          1   -1    0    0  502    0  0.00000000000E+00  0.00000000000E+00  0.42043014996E+03  0.42043014996E+03  0.00000000000E+00 0. -1.
          1   -1    0    0  501    0 -0.00000000000E+00 -0.00000000000E+00 -0.65251960771E+03  0.65251960771E+03  0.00000000000E+00 0. -1.
         25    1    1    2    0    0  0.21660748513E+03  0.30804915448E+03 -0.33167412379E+03  0.51715163017E+03  0.12500000000E+03 0.  0.
          1    1    1    2  501    0  0.94637369979E+02  0.79899944707E+01 -0.18545501702E+02  0.96767801677E+02  0.00000000000E+00 0. -1.
          1    1    1    2  502    0 -0.31124485511E+03 -0.31603914895E+03  0.11813016774E+03  0.45903032583E+03  0.00000000000E+00 0. -1.
<mgrwt>
<rscale>  0 0.19290349E+03</rscale>
<asrwt>0</asrwt>
<pdfrwt beam="1">  1        1 0.64681562E-01 0.94974059E+02</pdfrwt>
<pdfrwt beam="2">  1        1 0.10038763E+00 0.39180968E+03</pdfrwt>
<totfact> 0.21394479E+02</totfact>
</mgrwt>
</event>
<event>
 5    1  0.7156190E-003  0.1783681E+03  0.7546771E-02  0.1351378E+00
          2   -1    0    0  501    0  0.00000000000E+00  0.00000000000E+00  0.60648215525E+03  0.60648215525E+03  0.00000000000E+00 0.  1.
          3   -1    0    0  502    0 -0.00000000000E+00 -0.00000000000E+00 -0.14126904399E+03  0.14126904399E+03  0.00000000000E+00 0. -1.
         25    1    1    2    0    0  0.15609198187E+03 -0.54720157277E+01  0.22491877666E+03  0.30101180352E+03  0.12500000000E+03 0.  0.
          2    1    1    2  501    0  0.29362247769E+02  0.35221316937E+01  0.25868083692E+03  0.26036574735E+03  0.00000000000E+00 0.  1.
          3    1    1    2  502    0 -0.18545422964E+03  0.19498840339E+01 -0.18386502322E+02  0.18637364837E+03  0.00000000000E+00 0. -1.
<mgrwt>
<rscale>  0 0.72628047E+02</rscale>
<asrwt>0</asrwt>
<pdfrwt beam="1">  1        2 0.93304945E-01 0.29572741E+02</pdfrwt>
<pdfrwt beam="2">  1        3 0.21733699E-01 0.17836809E+03</pdfrwt>
<totfact> 0.61952540E+02</totfact>
</mgrwt>
</event>
<event>
 5    1  0.7156190E-003  0.1580914E+03  0.7546771E-02  0.1315113E+00
          1   -1    0    0  502    0 -0.00000000000E+00  0.00000000000E+00  0.34029672359E+03  0.34029672359E+03  0.00000000000E+00 0. -1.
          2   -1    0    0  501    0  0.00000000000E+00 -0.00000000000E+00 -0.17067706513E+04  0.17067706513E+04  0.00000000000E+00 0. -1.
         25    1    1    2    0    0  0.93647435038E+02  0.11038199176E+03 -0.32525350912E+03  0.37731799770E+03  0.12500000000E+03 0.  0.
          2    1    1    2  501    0 -0.66343155767E+02 -0.14719426277E+03 -0.13489739839E+04  0.13586016247E+04  0.00000000000E+00 0. -1.
          1    1    1    2  502    0 -0.27304279271E+02  0.36812271005E+02  0.30775356529E+03  0.31114775255E+03  0.00000000000E+00 0. -1.
<mgrwt>
<rscale>  0 0.85122306E+02</rscale>
<asrwt>0</asrwt>
<pdfrwt beam="2">  1        2 0.26258010E+00 0.15809137E+03</pdfrwt>
<pdfrwt beam="1">  1        1 0.52353342E-01 0.45833034E+02</pdfrwt>
<totfact> 0.11460622E+02</totfact>
</mgrwt>
</event>
<event>
 5    1  0.7156190E-003  0.5583970E+02  0.7546771E-02  0.1485345E+00
          2   -1    0    0  502    0  0.00000000000E+00  0.00000000000E+00  0.43741089589E+03  0.43741089589E+03  0.00000000000E+00 0. -1.
         -1   -1    0    0    0  501 -0.00000000000E+00 -0.00000000000E+00 -0.30304214677E+02  0.30304214677E+02  0.00000000000E+00 0.  1.
         25    1    1    2    0    0 -0.19745560945E+02  0.35797597272E+02  0.22966423632E+03  0.26465452309E+03  0.12500000000E+03 0.  0.
          2    1    1    2  502    0 -0.33552186429E+02  0.27651194732E-02  0.74966496249E+02  0.82132361354E+02  0.00000000000E+00 0. -1.
         -1    1    1    2    0  501  0.53297747374E+02 -0.35800362392E+02  0.10247594865E+03  0.12092822612E+03  0.00000000000E+00 0.  1.
<mgrwt>
<rscale>  0 0.43284454E+02</rscale>
<asrwt>0</asrwt>
<pdfrwt beam="1">  1        2 0.67293979E-01 0.33552187E+02</pdfrwt>
<pdfrwt beam="2">  1       -1 0.46621872E-02 0.55839698E+02</pdfrwt>
<totfact> 0.14018712E+04</totfact>
</mgrwt>
</event>
<event>
 5    1  0.7156190E-003  0.4275035E+03  0.7546771E-02  0.1034652E+00
         -2   -1    0    0    0  501 -0.00000000000E+00  0.00000000000E+00  0.44478491319E+03  0.44478491319E+03  0.00000000000E+00 0.  1.
          1   -1    0    0  502    0  0.00000000000E+00 -0.00000000000E+00 -0.10272338181E+03  0.10272338181E+03  0.00000000000E+00 0. -1.
         25    1    1    2    0    0 -0.57665952577E+02 -0.17076397412E+03  0.24129537969E+03  0.32608918597E+03  0.12500000000E+03 0.  0.
          1    1    1    2  502    0  0.74320200810E+02  0.10145947520E+03  0.67951580758E+02  0.14295081211E+03  0.00000000000E+00 0. -1.
         -2    1    1    2    0  501 -0.16654248234E+02  0.69304498925E+02  0.32814570928E+02  0.78468296915E+02  0.00000000000E+00 0.  1.
<mgrwt>
<rscale>  0 0.42750350E+03</rscale>
<asrwt>0</asrwt>
<pdfrwt beam="2">  1        1 0.15803598E-01 0.42750350E+03</pdfrwt>
<pdfrwt beam="1">  1       -2 0.68428447E-01 0.42750350E+03</pdfrwt>
<totfact> 0.61565550E+02</totfact>
</mgrwt>
</event>
<event>
 5    1  0.7156190E-003  0.5658406E+02  0.7546771E-02  0.1479448E+00
         -1   -1    0    0    0  501 -0.00000000000E+00  0.00000000000E+00  0.33395985378E+02  0.33395985378E+02  0.00000000000E+00 0.  1.
          2   -1    0    0  502    0  0.00000000000E+00 -0.00000000000E+00 -0.41747367027E+03  0.41747367027E+03  0.00000000000E+00 0. -1.
         25    1    1    2    0    0  0.45010465639E+02 -0.28524658511E+02 -0.19360692581E+03  0.23653380283E+03  0.12500000000E+03 0.  0.
          2    1    1    2  502    0 -0.20425585955E+02 -0.27821524832E+02 -0.91879876602E+02  0.98148629791E+02  0.00000000000E+00 0. -1.
         -1    1    1    2    0  501 -0.24584879684E+02  0.56346183343E+02 -0.98590882484E+02  0.11618722303E+03  0.00000000000E+00 0.  1.
<mgrwt>
<rscale>  0 0.44192342E+02</rscale>
<asrwt>0</asrwt>
<pdfrwt beam="2">  1        2 0.64226716E-01 0.34514371E+02</pdfrwt>
<pdfrwt beam="1">  1       -1 0.51378441E-02 0.56584056E+02</pdfrwt>
<totfact> 0.12795462E+04</totfact>
</mgrwt>
</event>
<event>
 5    1  0.7156190E-003  0.1506264E+03  0.7546771E-02  0.1220702E+00
          1   -1    0    0  502    0  0.00000000000E+00  0.00000000000E+00  0.38511339533E+03  0.38511339533E+03  0.00000000000E+00 0. -1.
          1   -1    0    0  501    0 -0.00000000000E+00 -0.00000000000E+00 -0.36402232963E+03  0.36402232963E+03  0.00000000000E+00 0. -1.
         25    1    1    2    0    0  0.25820001048E+02 -0.99116382017E+02 -0.55564056160E+02  0.17088912773E+03  0.12500000000E+03 0.  0.
          1    1    1    2  501    0  0.12432629337E+03  0.87099184135E+02 -0.20722734172E+03  0.25687831021E+03  0.00000000000E+00 0. -1.
          1    1    1    2  502    0 -0.15014629442E+03  0.12017197882E+02  0.28388246358E+03  0.32136828702E+03  0.00000000000E+00 0. -1.
<mgrwt>
<rscale>  0 0.13465878E+03</rscale>
<asrwt>0</asrwt>
<pdfrwt beam="1">  1        1 0.59248215E-01 0.15062643E+03</pdfrwt>
<pdfrwt beam="2">  1        1 0.56003435E-01 0.12038382E+03</pdfrwt>
<totfact> 0.52930229E+02</totfact>
</mgrwt>
</event>
<event>
 5    1  0.7156190E-003  0.9543918E+02  0.7546771E-02  0.1330313E+00
          1   -1    0    0  502    0  0.00000000000E+00  0.00000000000E+00  0.21480700698E+03  0.21480700698E+03  0.00000000000E+00 0. -1.
         -1   -1    0    0    0  501 -0.00000000000E+00 -0.00000000000E+00 -0.12827677635E+03  0.12827677635E+03  0.00000000000E+00 0.  1.
         25    1    1    2    0    0 -0.18515804774E+02  0.11851682623E+03  0.88262151240E+02  0.19443322881E+03  0.12500000000E+03 0.  0.
          1    1    1    2  502    0 -0.31967613402E+02 -0.75510931082E+02 -0.58305065302E+01  0.82205984124E+02  0.00000000000E+00 0. -1.
         -1    1    1    2    0  501  0.50483418176E+02 -0.43005895144E+02  0.40985859136E+01  0.66444570391E+02  0.00000000000E+00 0.  1.
<mgrwt>
<rscale>  0 0.79557146E+02</rscale>
<asrwt>0</asrwt>
<pdfrwt beam="1">  1        1 0.33047232E-01 0.95439182E+02</pdfrwt>
<pdfrwt beam="2">  1       -1 0.19734889E-01 0.66318041E+02</pdfrwt>
<totfact> 0.25952394E+03</totfact>
</mgrwt>
</event>
<event>
 5    1  0.7156190E-003  0.1237571E+03  0.7546771E-02  0.1337563E+00
          2   -1    0    0  502    0  0.00000000000E+00  0.00000000000E+00  0.13945940784E+04  0.13945940784E+04  0.00000000000E+00 0. -1.
          2   -1    0    0  501    0 -0.00000000000E+00 -0.00000000000E+00 -0.19623374476E+03  0.19623374476E+03  0.00000000000E+00 0. -1.
         25    1    1    2    0    0  0.87219232559E+02  0.76860181027E+02  0.46353308209E+03  0.49396619332E+03  0.12500000000E+03 0.  0.
          2    1    1    2  501    0 -0.29915002854E+02  0.37540180170E+02 -0.17326922102E+03  0.17979542674E+03  0.00000000000E+00 0. -1.
          2    1    1    2  502    0 -0.57304229705E+02 -0.11440036120E+03  0.90809647257E+03  0.91706620310E+03  0.00000000000E+00 0. -1.
<mgrwt>
<rscale>  0 0.77075061E+02</rscale>
<asrwt>0</asrwt>
<pdfrwt beam="1">  1        2 0.21455293E+00 0.12375714E+03</pdfrwt>
<pdfrwt beam="2">  1        2 0.30189808E-01 0.48001797E+02</pdfrwt>
<totfact> 0.42861722E+02</totfact>
</mgrwt>
</event>
<event>
 5    1  0.7156190E-003  0.1173345E+03  0.7546771E-02  0.1449006E+00
          2   -1    0    0  501    0  0.00000000000E+00  0.00000000000E+00  0.12909918416E+03  0.12909918416E+03  0.00000000000E+00 0. -1.
          1   -1    0    0  502    0 -0.00000000000E+00 -0.00000000000E+00 -0.98934068949E+03  0.98934068949E+03  0.00000000000E+00 0. -1.
         25    1    1    2    0    0 -0.12150703113E+03 -0.48676395768E+02 -0.16172327760E+03  0.24271952669E+03  0.12500000000E+03 0.  0.
          2    1    1    2  501    0  0.95387105297E+01  0.18412835750E+02  0.83046392731E+02  0.85596278333E+02  0.00000000000E+00 0. -1.
          1    1    1    2  502    0  0.11196832060E+03  0.30263560018E+02 -0.78156462045E+03  0.79012406863E+03  0.00000000000E+00 0. -1.
<mgrwt>
<rscale>  0 0.49327030E+02</rscale>
<asrwt>0</asrwt>
<pdfrwt beam="1">  1        2 0.19861413E-01 0.20736912E+02</pdfrwt>
<pdfrwt beam="2">  1        1 0.15220626E+00 0.11733453E+03</pdfrwt>
<totfact> 0.58571032E+02</totfact>
</mgrwt>
</event>
<event>
 5    1  0.7156190E-003  0.8711486E+02  0.7546771E-02  0.1369898E+00
          1   -1    0    0  502    0  0.00000000000E+00  0.00000000000E+00  0.21899395524E+04  0.21899395524E+04  0.00000000000E+00 0. -1.
         -1   -1    0    0    0  501 -0.00000000000E+00 -0.00000000000E+00 -0.13498346853E+02  0.13498346853E+02  0.00000000000E+00 0.  1.
         25    1    1    2    0    0 -0.21594226206E+02  0.10355781971E+03  0.15272145120E+04  0.15359686515E+04  0.12500000000E+03 0.  0.
          1    1    1    2  502    0  0.50957441670E+02 -0.60846790395E+02  0.54827312138E+03  0.55398773307E+03  0.00000000000E+00 0. -1.
         -1    1    1    2    0  501 -0.29363215464E+02 -0.42711029315E+02  0.10095357211E+03  0.11348151466E+03  0.00000000000E+00 0.  1.
<mgrwt>
<rscale>  0 0.67195473E+02</rscale>
<asrwt>0</asrwt>
<pdfrwt beam="1">  1        1 0.33691349E+00 0.87114857E+02</pdfrwt>
<pdfrwt beam="2">  1       -1 0.20766705E-02 0.51830787E+02</pdfrwt>
<totfact> 0.15438095E+03</totfact>
</mgrwt>
</event>
<event>
 5    1  0.7156190E-003  0.9146526E+02  0.7546771E-02  0.1368712E+00
          1   -1    0    0  502    0 -0.00000000000E+00  0.00000000000E+00  0.11508526403E+03  0.11508526403E+03  0.00000000000E+00 0. -1.
          2   -1    0    0  501    0  0.00000000000E+00 -0.00000000000E+00 -0.35733044979E+03  0.35733044979E+03  0.00000000000E+00 0. -1.
         25    1    1    2    0    0  0.17151394543E+02 -0.12560266773E+03 -0.18886136478E+02  0.17903040699E+03  0.12500000000E+03 0.  0.
          2    1    1    2  501    0  0.14539614972E+02  0.87118764082E+02 -0.22682229490E+03  0.24341206404E+03  0.00000000000E+00 0. -1.
          1    1    1    2  502    0 -0.31691009515E+02  0.38483903651E+02  0.34632456094E+01  0.49973242785E+02  0.00000000000E+00 0. -1.
<mgrwt>
<rscale>  0 0.67526486E+02</rscale>
<asrwt>0</asrwt>
<pdfrwt beam="2">  1        2 0.54973914E-01 0.91465264E+02</pdfrwt>
<pdfrwt beam="1">  1        1 0.17705426E-01 0.49853093E+02</pdfrwt>
<totfact> 0.34306215E+03</totfact>
</mgrwt>
</event>
<event>
 5    1  0.7156190E-003  0.7125467E+02  0.7546771E-02  0.1374226E+00
         -2   -1    0    0    0  501 -0.00000000000E+00  0.00000000000E+00  0.23555987631E+03  0.23555987631E+03  0.00000000000E+00 0.  1.
          1   -1    0    0  502    0  0.00000000000E+00 -0.00000000000E+00 -0.12424069718E+03  0.12424069718E+03  0.00000000000E+00 0. -1.
         25    1    1    2    0    0 -0.11691076423E+03 -0.44609708460E+02  0.58814822987E+01  0.17696820256E+03  0.12500000000E+03 0.  0.
          1    1    1    2  502    0  0.53138863336E+02  0.30246736162E+02  0.28784283662E+01  0.61211838683E+02  0.00000000000E+00 0. -1.
         -2    1    1    2    0  501  0.63771900898E+02  0.14362972298E+02  0.10255926847E+03  0.12162053225E+03  0.00000000000E+00 0.  1.
<mgrwt>
<rscale>  0 0.66006092E+02</rscale>
<asrwt>0</asrwt>
<pdfrwt beam="2">  1        1 0.19113953E-01 0.61144124E+02</pdfrwt>
<pdfrwt beam="1">  1       -2 0.36239981E-01 0.71254668E+02</pdfrwt>
<totfact> 0.16016075E+03</totfact>
</mgrwt>
</event>
<event>
 5    1  0.7156190E-003  0.1594094E+03  0.7546771E-02  0.1211501E+00
          1   -1    0    0  502    0  0.00000000000E+00  0.00000000000E+00  0.86428010790E+03  0.86428010790E+03  0.00000000000E+00 0. -1.
          1   -1    0    0  501    0 -0.00000000000E+00 -0.00000000000E+00 -0.10552937098E+04  0.10552937098E+04  0.00000000000E+00 0. -1.
         25    1    1    2    0    0 -0.24379720313E+01  0.82737008516E+02  0.20081161475E+01  0.14993461514E+03  0.12500000000E+03 0.  0.
          1    1    1    2  501    0 -0.11925012310E+03  0.38682560094E+02 -0.96786780683E+03  0.97595339224E+03  0.00000000000E+00 0. -1.
          1    1    1    2  502    0  0.12168809514E+03 -0.12141956861E+03  0.77484608881E+03  0.79368581031E+03  0.00000000000E+00 0. -1.
<mgrwt>
<rscale>  0 0.14136730E+03</rscale>
<asrwt>0</asrwt>
<pdfrwt beam="1">  1        1 0.13296617E+00 0.15940944E+03</pdfrwt>
<pdfrwt beam="2">  1        1 0.16235288E+00 0.12536719E+03</pdfrwt>
<totfact> 0.38829676E+01</totfact>
</mgrwt>
</event>
<event>
 5    1  0.7156190E-003  0.8898033E+02  0.7546771E-02  0.1313883E+00
          2   -1    0    0  502    0  0.00000000000E+00  0.00000000000E+00  0.77188693677E+03  0.77188693677E+03  0.00000000000E+00 0. -1.
          2   -1    0    0  501    0 -0.00000000000E+00 -0.00000000000E+00 -0.93932055938E+02  0.93932055938E+02  0.00000000000E+00 0. -1.
         25    1    1    2    0    0 -0.37790539065E+02  0.79917703490E+01  0.29992327081E+03  0.32721699469E+03  0.12500000000E+03 0.  0.
          2    1    1    2  501    0 -0.82044389024E+02 -0.69580658818E+01 -0.48495731803E+02  0.95559052184E+02  0.00000000000E+00 0. -1.
          2    1    1    2  502    0  0.11983492809E+03 -0.10337044672E+01  0.42652734182E+03  0.44304294584E+03  0.00000000000E+00 0. -1.
<mgrwt>
<rscale>  0 0.85595230E+02</rscale>
<asrwt>0</asrwt>
<pdfrwt beam="1">  1        2 0.11875183E+00 0.88980327E+02</pdfrwt>
<pdfrwt beam="2">  1        2 0.14451086E-01 0.82338912E+02</pdfrwt>
<totfact> 0.23017674E+03</totfact>
</mgrwt>
</event>
<event>
 5    1  0.7156190E-003  0.7269902E+02  0.7546771E-02  0.1372131E+00
          1   -1    0    0  502    0  0.00000000000E+00  0.00000000000E+00  0.63812626250E+03  0.63812626250E+03  0.00000000000E+00 0. -1.
         -1   -1    0    0    0  501 -0.00000000000E+00 -0.00000000000E+00 -0.20033108758E+03  0.20033108758E+03  0.00000000000E+00 0.  1.
         25    1    1    2    0    0  0.47034513562E+02  0.42015866153E+02  0.17266874260E+03  0.22229951224E+03  0.12500000000E+03 0.  0.
          1    1    1    2  502    0  0.25804755308E+02 -0.55243422967E+02  0.43059132082E+03  0.43488688960E+03  0.00000000000E+00 0. -1.
         -1    1    1    2    0  501 -0.72839268870E+02  0.13227556814E+02 -0.16546488850E+03  0.18127094823E+03  0.00000000000E+00 0.  1.
<mgrwt>
<rscale>  0 0.66578419E+02</rscale>
<asrwt>0</asrwt>
<pdfrwt beam="1">  1        1 0.98173270E-01 0.60973118E+02</pdfrwt>
<pdfrwt beam="2">  1       -1 0.30820168E-01 0.72699018E+02</pdfrwt>
<totfact> 0.32840440E+02</totfact>
</mgrwt>
</event>
<event>
 5    1  0.7156190E-003  0.1021321E+03  0.7546771E-02  0.1417775E+00
          2   -1    0    0  501    0  0.00000000000E+00  0.00000000000E+00  0.31335485389E+03  0.31335485389E+03  0.00000000000E+00 0. -1.
          2   -1    0    0  502    0 -0.00000000000E+00 -0.00000000000E+00 -0.27474863958E+03  0.27474863958E+03  0.00000000000E+00 0. -1.
         25    1    1    2    0    0 -0.12637380156E+03  0.11128170773E+02  0.56200949840E+02  0.18675577814E+03  0.12500000000E+03 0.  0.
          2    1    1    2  501    0  0.96391089103E+02 -0.14331570722E+02  0.17827456710E+03  0.20317100495E+03  0.00000000000E+00 0. -1.
          2    1    1    2  502    0  0.29982712459E+02  0.32033999492E+01 -0.19586930264E+03  0.19817671037E+03  0.00000000000E+00 0. -1.
<mgrwt>
<rscale>  0 0.55494385E+02</rscale>
<asrwt>0</asrwt>
<pdfrwt beam="1">  1        2 0.48208439E-01 0.10213214E+03</pdfrwt>
<pdfrwt beam="2">  1        2 0.42269021E-01 0.30153355E+02</pdfrwt>
<totfact> 0.18817829E+03</totfact>
</mgrwt>
</event>
<event>
 5    1  0.7156190E-003  0.2738949E+02  0.7546771E-02  0.1682631E+00
         -2   -1    0    0    0  501 -0.00000000000E+00  0.00000000000E+00  0.21398525802E+02  0.21398525802E+02  0.00000000000E+00 0.  1.
          1   -1    0    0  502    0  0.00000000000E+00 -0.00000000000E+00 -0.88136840792E+03  0.88136840792E+03  0.00000000000E+00 0. -1.
         25    1    1    2    0    0  0.14925445803E+02 -0.47882273457E+01 -0.19071918594E+03  0.22857056665E+03  0.12500000000E+03 0.  0.
          1    1    1    2  502    0 -0.24324133078E+02 -0.13161409195E+02 -0.62404677139E+03  0.62465931437E+03  0.00000000000E+00 0. -1.
         -2    1    1    2    0  501  0.93986872755E+01  0.17949636541E+02 -0.45203924788E+02  0.49537052705E+02  0.00000000000E+00 0.  1.
<mgrwt>
<rscale>  0 0.23557373E+02</rscale>
<asrwt>0</asrwt>
<pdfrwt beam="2">  1        1 0.13559515E+00 0.27389495E+02</pdfrwt>
<pdfrwt beam="1">  1       -2 0.32920807E-02 0.20261411E+02</pdfrwt>
<totfact> 0.52736783E+03</totfact>
</mgrwt>
</event>
<event>
 5    1  0.7156190E-003  0.9593475E+02  0.7546771E-02  0.1323653E+00
         -3   -1    0    0    0  501 -0.00000000000E+00  0.00000000000E+00  0.10100136451E+03  0.10100136451E+03  0.00000000000E+00 0.  1.
          2   -1    0    0  502    0  0.00000000000E+00 -0.00000000000E+00 -0.15431682725E+04  0.15431682725E+04  0.00000000000E+00 0. -1.
         25    1    1    2    0    0  0.63196165240E+02 -0.14359712062E+02 -0.14333000880E+03  0.20091900869E+03  0.12500000000E+03 0.  0.
          2    1    1    2  502    0  0.31377486457E+02  0.62546180986E+02 -0.13306150047E+04  0.13324536998E+04  0.00000000000E+00 0. -1.
         -3    1    1    2    0  501 -0.94573651697E+02 -0.48186468924E+02  0.31778105488E+02  0.11079692853E+03  0.00000000000E+00 0.  1.
<mgrwt>
<rscale>  0 0.81933404E+02</rscale>
<asrwt>0</asrwt>
<pdfrwt beam="2">  1        2 0.23741049E+00 0.69975506E+02</pdfrwt>
<pdfrwt beam="1">  1       -3 0.15538672E-01 0.95934749E+02</pdfrwt>
<totfact> 0.29235402E+02</totfact>
</mgrwt>
</event>
<event>
 5    1  0.1425042E-002  0.1320960E+03  0.7546771E-02  0.1327640E+00
          2   -1    0    0  502    0  0.00000000000E+00  0.00000000000E+00  0.62490029471E+03  0.62490029471E+03  0.00000000000E+00 0. -1.
         -1   -1    0    0    0  501 -0.00000000000E+00 -0.00000000000E+00 -0.56875589133E+02  0.56875589133E+02  0.00000000000E+00 0.  1.
         25    1    1    2    0    0 -0.13598020047E+03 -0.74046590803E+02  0.25659677083E+03  0.32471589941E+03  0.12500000000E+03 0.  0.
          2    1    1    2  502    0  0.88559244958E+02  0.86607153048E+02  0.24440255218E+03  0.27400026704E+03  0.00000000000E+00 0. -1.
         -1    1    1    2    0  501  0.47420955510E+02 -0.12560562245E+02  0.67025382573E+02  0.83059717399E+02  0.00000000000E+00 0.  1.
<mgrwt>
<rscale>  0 0.80499285E+02</rscale>
<asrwt>0</asrwt>
<pdfrwt beam="1">  1        2 0.96138502E-01 0.13209603E+03</pdfrwt>
<pdfrwt beam="2">  1       -1 0.87500911E-02 0.49056241E+02</pdfrwt>
<totfact> 0.37001117E+03</totfact>
</mgrwt>
</event>
<event>
 5    1  0.7156190E-003  0.7777411E+02  0.7546771E-02  0.1368252E+00
         -2   -1    0    0    0  501 -0.00000000000E+00  0.00000000000E+00  0.12612090248E+03  0.12612090248E+03  0.00000000000E+00 0.  1.
          2   -1    0    0  502    0  0.00000000000E+00 -0.00000000000E+00 -0.93653029309E+03  0.93653029309E+03  0.00000000000E+00 0. -1.
         25    1    1    2    0    0  0.28903452507E+02  0.30300456990E+02 -0.46112510698E+03  0.47959867759E+03  0.12500000000E+03 0.  0.
          2    1    1    2  502    0 -0.82274044015E+02 -0.55105491176E+02 -0.45305707771E+03  0.46375246538E+03  0.00000000000E+00 0. -1.
         -2    1    1    2    0  501  0.53370591508E+02  0.24805034186E+02  0.10377279408E+03  0.11930005260E+03  0.00000000000E+00 0.  1.
<mgrwt>
<rscale>  0 0.67655468E+02</rscale>
<asrwt>0</asrwt>
<pdfrwt beam="2">  1        2 0.14408158E+00 0.77774112E+02</pdfrwt>
<pdfrwt beam="1">  1       -2 0.19403216E-01 0.58853290E+02</pdfrwt>
<totfact> 0.64061437E+02</totfact>
</mgrwt>
</event>
<event>
 5    1  0.7156190E-003  0.5486619E+02  0.7546771E-02  0.1434556E+00
         -2   -1    0    0    0  501 -0.00000000000E+00  0.00000000000E+00  0.40493361705E+02  0.40493361705E+02  0.00000000000E+00 0.  1.
          2   -1    0    0  502    0  0.00000000000E+00 -0.00000000000E+00 -0.30487611368E+04  0.30487611368E+04  0.00000000000E+00 0. -1.
         25    1    1    2    0    0 -0.68127139903E+02 -0.55352775347E+02 -0.14634073176E+03  0.21153214106E+03  0.12500000000E+03 0.  0.
          2    1    1    2  502    0  0.18901211840E+02  0.51325715310E+02 -0.27896240462E+04  0.27901601932E+04  0.00000000000E+00 0. -1.
         -2    1    1    2    0  501  0.49225928064E+02  0.40270600370E+01 -0.72302997231E+02  0.87562164288E+02  0.00000000000E+00 0.  1.
<mgrwt>
<rscale>  0 0.52056331E+02</rscale>
<asrwt>0</asrwt>
<pdfrwt beam="2">  1        2 0.46904027E+00 0.54866187E+02</pdfrwt>
<pdfrwt beam="1">  1       -2 0.62297467E-02 0.49390376E+02</pdfrwt>
<totfact> 0.30533130E+02</totfact>
</mgrwt>
</event>
<event>
 5    1  0.7156190E-003  0.1459435E+03  0.7546771E-02  0.1260898E+00
          2   -1    0    0  501    0  0.00000000000E+00  0.00000000000E+00  0.16167997746E+04  0.16167997746E+04  0.00000000000E+00 0.  1.
          1   -1    0    0  502    0 -0.00000000000E+00 -0.00000000000E+00 -0.34672607998E+03  0.34672607998E+03  0.00000000000E+00 0. -1.
         25    1    1    2    0    0 -0.15194849826E+03 -0.16006018074E+03  0.22485222967E+03  0.33895594518E+03  0.12500000000E+03 0.  0.
          2    1    1    2  501    0  0.69003475251E+02  0.45478132319E+02  0.13162536987E+04  0.13188455328E+04  0.00000000000E+00 0.  1.
          1    1    1    2  502    0  0.82945023005E+02  0.11458204842E+03 -0.27103223378E+03  0.30572437654E+03  0.00000000000E+00 0. -1.
<mgrwt>
<rscale>  0 0.10982303E+03</rscale>
<asrwt>0</asrwt>
<pdfrwt beam="1">  1        2 0.24873842E+00 0.82642242E+02</pdfrwt>
<pdfrwt beam="2">  1        1 0.53342475E-01 0.14594350E+03</pdfrwt>
<totfact> 0.13113823E+02</totfact>
</mgrwt>
</event>
<event>
 5    1  0.7156190E-003  0.6372285E+02  0.7546771E-02  0.1385777E+00
          2   -1    0    0  502    0  0.00000000000E+00  0.00000000000E+00  0.65686639298E+03  0.65686639298E+03  0.00000000000E+00 0. -1.
         -1   -1    0    0    0  501 -0.00000000000E+00 -0.00000000000E+00 -0.35110189009E+03  0.35110189009E+03  0.00000000000E+00 0.  1.
         25    1    1    2    0    0 -0.28788720978E+02  0.25677159151E+02 -0.10745461960E+03  0.16929147123E+03  0.12500000000E+03 0.  0.
          2    1    1    2  502    0  0.42757491006E+02  0.45207235259E+02  0.61820651910E+03  0.62133018389E+03  0.00000000000E+00 0. -1.
         -1    1    1    2    0  501 -0.13968770028E+02 -0.70884394410E+02 -0.20498739662E+03  0.21734662795E+03  0.00000000000E+00 0.  1.
<mgrwt>
<rscale>  0 0.62969253E+02</rscale>
<asrwt>0</asrwt>
<pdfrwt beam="1">  1        2 0.10105637E+00 0.62224570E+02</pdfrwt>
<pdfrwt beam="2">  1       -1 0.54015675E-01 0.63722848E+02</pdfrwt>
<totfact> 0.19583768E+02</totfact>
</mgrwt>
</event>
<event>
 5    1  0.7156190E-003  0.6384872E+02  0.7546771E-02  0.1444177E+00
          2   -1    0    0  502    0  0.00000000000E+00  0.00000000000E+00  0.22274269098E+03  0.22274269098E+03  0.00000000000E+00 0. -1.
         -1   -1    0    0    0  501 -0.00000000000E+00 -0.00000000000E+00 -0.22011525690E+03  0.22011525690E+03  0.00000000000E+00 0.  1.
         25    1    1    2    0    0  0.26532565368E+02 -0.96250425219E+02 -0.95787717865E+01  0.16026501255E+03  0.12500000000E+03 0.  0.
          2    1    1    2  502    0 -0.10227269835E+02  0.60278270209E+02  0.13789695365E+03  0.15084308646E+03  0.00000000000E+00 0. -1.
         -1    1    1    2    0  501 -0.16305295534E+02  0.35972155010E+02 -0.12569074778E+03  0.13174984886E+03  0.00000000000E+00 0.  1.
<mgrwt>
<rscale>  0 0.50216612E+02</rscale>
<asrwt>0</asrwt>
<pdfrwt beam="1">  1        2 0.34268107E-01 0.63848720E+02</pdfrwt>
<pdfrwt beam="2">  1       -1 0.33863885E-01 0.39495045E+02</pdfrwt>
<totfact> 0.13625385E+03</totfact>
</mgrwt>
</event>
<event>
 5    1  0.7156190E-003  0.1449117E+03  0.7546771E-02  0.1322527E+00
          2   -1    0    0  502    0  0.00000000000E+00  0.00000000000E+00  0.12322620593E+04  0.12322620593E+04  0.00000000000E+00 0. -1.
         -1   -1    0    0    0  501 -0.00000000000E+00 -0.00000000000E+00 -0.51725374036E+02  0.51725374036E+02  0.00000000000E+00 0.  1.
         25    1    1    2    0    0 -0.75043318622E+02 -0.14151521617E+03  0.10360193583E+04  0.10557552589E+04  0.12500000000E+03 0.  0.
          2    1    1    2  502    0  0.48203412532E+02  0.10318718729E+03  0.14108137173E+03  0.18131496918E+03  0.00000000000E+00 0. -1.
         -1    1    1    2    0  501  0.26839906090E+02  0.38328028878E+02  0.34359552716E+01  0.46917205215E+02  0.00000000000E+00 0.  1.
<mgrwt>
<rscale>  0 0.82344375E+02</rscale>
<asrwt>0</asrwt>
<pdfrwt beam="1">  1        2 0.18957876E+00 0.14491171E+03</pdfrwt>
<pdfrwt beam="2">  1       -1 0.79577507E-02 0.46791221E+02</pdfrwt>
<totfact> 0.17291972E+03</totfact>
</mgrwt>
</event>
<event>
 5    1  0.7156190E-003  0.8988550E+02  0.7546771E-02  0.1364761E+00
          2   -1    0    0  501    0  0.00000000000E+00  0.00000000000E+00  0.13193272008E+04  0.13193272008E+04  0.00000000000E+00 0. -1.
          1   -1    0    0  502    0 -0.00000000000E+00 -0.00000000000E+00 -0.90343235750E+02  0.90343235750E+02  0.00000000000E+00 0. -1.
         25    1    1    2    0    0  0.83768448009E+02  0.12304686547E+02  0.27338844069E+03  0.31230561586E+03  0.12500000000E+03 0.  0.
          2    1    1    2  501    0 -0.67635536800E+02 -0.62185077968E+02  0.10144186217E+04  0.10185709057E+04  0.00000000000E+00 0. -1.
          1    1    1    2  502    0 -0.16132911209E+02  0.49880391421E+02 -0.58823097329E+02  0.78793915068E+02  0.00000000000E+00 0. -1.
<mgrwt>
<rscale>  0 0.68645460E+02</rscale>
<asrwt>0</asrwt>
<pdfrwt beam="1">  1        2 0.20297340E+00 0.89885502E+02</pdfrwt>
<pdfrwt beam="2">  1        1 0.13898960E-01 0.52424463E+02</pdfrwt>
<totfact> 0.95636400E+02</totfact>
</mgrwt>
</event>
<event>
 5    1  0.7156190E-003  0.1031525E+03  0.7546771E-02  0.1331613E+00
          2   -1    0    0  502    0  0.00000000000E+00  0.00000000000E+00  0.52645780332E+03  0.52645780332E+03  0.00000000000E+00 0. -1.
          2   -1    0    0  501    0 -0.00000000000E+00 -0.00000000000E+00 -0.59667653148E+03  0.59667653148E+03  0.00000000000E+00 0.  1.
         25    1    1    2    0    0  0.64145929954E+02  0.12735137275E+02 -0.69915828293E+02  0.15744874435E+03  0.12500000000E+03 0.  0.
          2    1    1    2  501    0 -0.10467590995E+03  0.32400787252E+02 -0.47482359166E+03  0.48730308878E+03  0.00000000000E+00 0.  1.
          2    1    1    2  502    0  0.40529979995E+02 -0.45135924527E+02  0.47452069179E+03  0.47838250166E+03  0.00000000000E+00 0. -1.
<mgrwt>
<rscale>  0 0.79104234E+02</rscale>
<asrwt>0</asrwt>
<pdfrwt beam="1">  1        2 0.80993508E-01 0.60662435E+02</pdfrwt>
<pdfrwt beam="2">  1        2 0.91796390E-01 0.10315247E+03</pdfrwt>
<totfact> 0.48552784E+02</totfact>
</mgrwt>
</event>
<event>
 5    1  0.7156190E-003  0.4938990E+02  0.7546771E-02  0.1532035E+00
          2   -1    0    0  502    0  0.00000000000E+00  0.00000000000E+00  0.67351840961E+03  0.67351840961E+03  0.00000000000E+00 0. -1.
         -1   -1    0    0    0  501 -0.00000000000E+00 -0.00000000000E+00 -0.20641428904E+02  0.20641428904E+02  0.00000000000E+00 0.  1.
         25    1    1    2    0    0 -0.55458945155E+02 -0.13622878045E+02  0.38691936688E+03  0.41060062575E+03  0.12500000000E+03 0.  0.
          2    1    1    2  502    0  0.19429716531E+02 -0.19637897090E+02  0.19710047857E+03  0.19902703218E+03  0.00000000000E+00 0. -1.
         -1    1    1    2    0  501  0.36029228624E+02  0.33260775135E+02  0.68857135267E+02  0.84532180588E+02  0.00000000000E+00 0.  1.
<mgrwt>
<rscale>  0 0.36937975E+02</rscale>
<asrwt>0</asrwt>
<pdfrwt beam="1">  1        2 0.10361820E+00 0.27625367E+02</pdfrwt>
<pdfrwt beam="2">  1       -1 0.31756050E-02 0.49389896E+02</pdfrwt>
<totfact> 0.15265593E+04</totfact>
</mgrwt>
</event>
<event>
 5    1  0.7156190E-003  0.5197857E+02  0.7546771E-02  0.1539627E+00
          1   -1    0    0  501    0  0.00000000000E+00  0.00000000000E+00  0.54556614815E+02  0.54556614815E+02  0.00000000000E+00 0. -1.
          1   -1    0    0  502    0 -0.00000000000E+00 -0.00000000000E+00 -0.46452712875E+03  0.46452712875E+03  0.00000000000E+00 0. -1.
         25    1    1    2    0    0 -0.23185218192E+02  0.36889202636E+02 -0.10733202799E+03  0.17042162963E+03  0.12500000000E+03 0.  0.
          1    1    1    2  501    0  0.19289292057E+02  0.15867327216E+02  0.13319329466E+02  0.28306419739E+02  0.00000000000E+00 0. -1.
          1    1    1    2  502    0  0.38959261349E+01 -0.52756529852E+02 -0.31595781541E+03  0.32035569419E+03  0.00000000000E+00 0. -1.
<mgrwt>
<rscale>  0 0.36031473E+02</rscale>
<asrwt>0</asrwt>
<pdfrwt beam="1">  1        1 0.83933255E-02 0.24976967E+02</pdfrwt>
<pdfrwt beam="2">  1        1 0.71465710E-01 0.51978572E+02</pdfrwt>
<totfact> 0.41528264E+03</totfact>
</mgrwt>
</event>
<event>
 5    1  0.7156190E-003  0.4363149E+03  0.7546771E-02  0.1183990E+00
          1   -1    0    0  502    0  0.00000000000E+00  0.00000000000E+00  0.85610523595E+03  0.85610523595E+03  0.00000000000E+00 0. -1.
          1   -1    0    0  501    0 -0.00000000000E+00 -0.00000000000E+00 -0.95277853316E+03  0.95277853316E+03  0.00000000000E+00 0. -1.
         25    1    1    2    0    0 -0.40426047118E+03  0.38186469490E+02  0.51614142100E+02  0.42798803100E+03  0.12500000000E+03 0.  0.
          1    1    1    2  501    0 -0.45945320323E+02 -0.41368709476E+02 -0.68078136624E+03  0.68358292197E+03  0.00000000000E+00 0. -1.
          1    1    1    2  502    0  0.45020579150E+03  0.31822399857E+01  0.53249392693E+03  0.69731281615E+03  0.00000000000E+00 0. -1.
<mgrwt>
<rscale>  0 0.16424132E+03</rscale>
<asrwt>0</asrwt>
<pdfrwt beam="1">  1        1 0.13170850E+00 0.43631489E+03</pdfrwt>
<pdfrwt beam="2">  1        1 0.14658131E+00 0.61825097E+02</pdfrwt>
<totfact> 0.46471881E+01</totfact>
</mgrwt>
</event>
<event>
 5    1  0.7156190E-003  0.5448127E+02  0.7546771E-02  0.1432322E+00
         -1   -1    0    0    0  501 -0.00000000000E+00  0.00000000000E+00  0.18300562010E+03  0.18300562010E+03  0.00000000000E+00 0.  1.
          2   -1    0    0  502    0  0.00000000000E+00 -0.00000000000E+00 -0.68820998255E+03  0.68820998255E+03  0.00000000000E+00 0. -1.
         25    1    1    2    0    0 -0.95745727587E+02  0.39963021434E+02 -0.57024720672E+03  0.59293436754E+03  0.12500000000E+03 0.  0.
          2    1    1    2  502    0  0.48933587338E+02 -0.12818417415E+02 -0.95933586925E+02  0.10845303543E+03  0.00000000000E+00 0. -1.
         -1    1    1    2    0  501  0.46812140250E+02 -0.27144604019E+02  0.16097643120E+03  0.16982819967E+03  0.00000000000E+00 0.  1.
<mgrwt>
<rscale>  0 0.52496823E+02</rscale>
<asrwt>0</asrwt>
<pdfrwt beam="2">  1        2 0.10587846E+00 0.50584660E+02</pdfrwt>
<pdfrwt beam="1">  1       -1 0.28154710E-01 0.54481267E+02</pdfrwt>
<totfact> 0.56866864E+02</totfact>
</mgrwt>
</event>
<event>
 5    1  0.7156190E-003  0.4789462E+02  0.7546771E-02  0.1553243E+00
          3   -1    0    0  502    0  0.00000000000E+00  0.00000000000E+00  0.15546688634E+04  0.15546688634E+04  0.00000000000E+00 0. -1.
         -1   -1    0    0    0  501 -0.00000000000E+00 -0.00000000000E+00 -0.74070449616E+02  0.74070449616E+02  0.00000000000E+00 0.  1.
         25    1    1    2    0    0  0.52300839362E+02  0.45047914733E+02  0.20893629146E+03  0.25306929151E+03  0.12500000000E+03 0.  0.
          3    1    1    2  502    0 -0.28487116396E+02 -0.38029392838E+02  0.13202511238E+04  0.13211058930E+04  0.00000000000E+00 0. -1.
         -1    1    1    2    0  501 -0.23813722966E+02 -0.70185218948E+01 -0.48589001513E+02  0.54564128501E+02  0.00000000000E+00 0.  1.
<mgrwt>
<rscale>  0 0.34482658E+02</rscale>
<asrwt>0</asrwt>
<pdfrwt beam="1">  1        3 0.23917980E+00 0.47894616E+02</pdfrwt>
<pdfrwt beam="2">  1       -1 0.11395455E-01 0.24826459E+02</pdfrwt>
<totfact> 0.19758633E+01</totfact>
</mgrwt>
</event>
<event>
 5    1  0.7156190E-003  0.5882115E+02  0.7546771E-02  0.1441210E+00
          1   -1    0    0  502    0 -0.00000000000E+00  0.00000000000E+00  0.17470252685E+04  0.17470252685E+04  0.00000000000E+00 0. -1.
          2   -1    0    0  501    0  0.00000000000E+00 -0.00000000000E+00 -0.92070942913E+03  0.92070942913E+03  0.00000000000E+00 0. -1.
         25    1    1    2    0    0  0.47256679569E+01  0.24621653302E+02  0.70213489430E+03  0.71361541992E+03  0.12500000000E+03 0.  0.
          2    1    1    2  501    0 -0.20700168197E+02  0.38631509367E+02 -0.91341925974E+03  0.91447013868E+03  0.00000000000E+00 0. -1.
          1    1    1    2  502    0  0.15974500240E+02 -0.63253162669E+02  0.10376002048E+04  0.10396491390E+04  0.00000000000E+00 0. -1.
<mgrwt>
<rscale>  0 0.50774119E+02</rscale>
<asrwt>0</asrwt>
<pdfrwt beam="2">  1        2 0.14164760E+00 0.43827965E+02</pdfrwt>
<pdfrwt beam="1">  1        1 0.26877312E+00 0.58821146E+02</pdfrwt>
<totfact> 0.25572680E+01</totfact>
</mgrwt>
</event>
<event>
 5    1  0.7156190E-003  0.5939351E+02  0.7546771E-02  0.1502441E+00
         -2   -1    0    0    0  501 -0.00000000000E+00  0.00000000000E+00  0.18048986205E+02  0.18048986205E+02  0.00000000000E+00 0.  1.
          1   -1    0    0  502    0  0.00000000000E+00 -0.00000000000E+00 -0.87991120930E+03  0.87991120930E+03  0.00000000000E+00 0. -1.
         25    1    1    2    0    0  0.68691422278E+02 -0.90886629948E+01 -0.42826301044E+03  0.45148125255E+03  0.12500000000E+03 0.  0.
          1    1    1    2  502    0 -0.50101810938E+02  0.30054768806E+02 -0.39195433628E+03  0.39628484997E+03  0.00000000000E+00 0. -1.
         -2    1    1    2    0  501 -0.18589611340E+02 -0.20966105811E+02 -0.41644876374E+02  0.50194092988E+02  0.00000000000E+00 0.  1.
<mgrwt>
<rscale>  0 0.40795083E+02</rscale>
<asrwt>0</asrwt>
<pdfrwt beam="2">  1        1 0.13537094E+00 0.59393509E+02</pdfrwt>
<pdfrwt beam="1">  1       -2 0.27767674E-02 0.28020550E+02</pdfrwt>
<totfact> 0.67602490E+03</totfact>
</mgrwt>
</event>
<event>
 5    1  0.7156190E-003  0.4803133E+02  0.7546771E-02  0.1484177E+00
         -1   -1    0    0    0  501 -0.00000000000E+00  0.00000000000E+00  0.10428534022E+03  0.10428534022E+03  0.00000000000E+00 0.  1.
          2   -1    0    0  502    0  0.00000000000E+00 -0.00000000000E+00 -0.17133974310E+03  0.17133974310E+03  0.00000000000E+00 0. -1.
         25    1    1    2    0    0  0.37623929141E+02 -0.46668085211E+02 -0.98623203713E+02  0.17013232066E+03  0.12500000000E+03 0.  0.
          2    1    1    2  502    0  0.17035479580E+01  0.46530542272E+02 -0.10681691276E+02  0.47771246250E+02  0.00000000000E+00 0. -1.
         -1    1    1    2    0  501 -0.39327477099E+02  0.13754293920E+00  0.42250492110E+02  0.57721516408E+02  0.00000000000E+00 0.  1.
<mgrwt>
<rscale>  0 0.43462199E+02</rscale>
<asrwt>0</asrwt>
<pdfrwt beam="2">  1        2 0.26359960E-01 0.48031334E+02</pdfrwt>
<pdfrwt beam="1">  1       -1 0.16043899E-01 0.39327718E+02</pdfrwt>
<totfact> 0.57781025E+03</totfact>
</mgrwt>
</event>
<event>
 5    1  0.7156190E-003  0.1068235E+03  0.7546771E-02  0.1409377E+00
          3   -1    0    0  502    0  0.00000000000E+00  0.00000000000E+00  0.94384279645E+02  0.94384279645E+02  0.00000000000E+00 0. -1.
         -1   -1    0    0    0  501 -0.00000000000E+00 -0.00000000000E+00 -0.12407130350E+04  0.12407130350E+04  0.00000000000E+00 0.  1.
         25    1    1    2    0    0  0.10715205528E+03 -0.65828078235E+02 -0.40774265013E+03  0.44462789787E+03  0.12500000000E+03 0.  0.
          3    1    1    2  502    0 -0.30498738657E+02 -0.40851725092E+01  0.69365320991E+02  0.75884184454E+02  0.00000000000E+00 0. -1.
         -1    1    1    2    0  501 -0.76653316623E+02  0.69913250744E+02 -0.80795142625E+03  0.81458523234E+03  0.00000000000E+00 0.  1.
<mgrwt>
<rscale>  0 0.57333041E+02</rscale>
<asrwt>0</asrwt>
<pdfrwt beam="1">  1        3 0.14520659E-01 0.30771118E+02</pdfrwt>
<pdfrwt beam="2">  1       -1 0.19087892E+00 0.10682347E+03</pdfrwt>
<totfact> 0.29981942E+01</totfact>
</mgrwt>
</event>
<event>
 5    1  0.7156190E-003  0.6925505E+02  0.7546771E-02  0.1529164E+00
         -2   -1    0    0    0  501 -0.00000000000E+00  0.00000000000E+00  0.69697654931E+02  0.69697654931E+02  0.00000000000E+00 0.  1.
          1   -1    0    0  502    0  0.00000000000E+00 -0.00000000000E+00 -0.23780549182E+03  0.23780549182E+03  0.00000000000E+00 0. -1.
         25    1    1    2    0    0  0.49410990507E+01  0.59116800213E+02 -0.42952227730E+02  0.14487616917E+03  0.12500000000E+03 0.  0.
          1    1    1    2  502    0  0.49126924753E+01  0.19467408076E+02 -0.48123313780E+02  0.52143723051E+02  0.00000000000E+00 0. -1.
         -2    1    1    2    0  501 -0.98537915260E+01 -0.78584208288E+02 -0.77032295383E+02  0.11048325453E+03  0.00000000000E+00 0.  1.
<mgrwt>
<rscale>  0 0.37289180E+02</rscale>
<asrwt>0</asrwt>
<pdfrwt beam="2">  1        1 0.36585461E-01 0.20077712E+02</pdfrwt>
<pdfrwt beam="1">  1       -2 0.10722716E-01 0.69255048E+02</pdfrwt>
<totfact> 0.54268388E+03</totfact>
</mgrwt>
</event>
<event>
 5    1  0.7156190E-003  0.8674075E+02  0.7546771E-02  0.1314605E+00
          1   -1    0    0  501    0  0.00000000000E+00  0.00000000000E+00  0.38009473607E+03  0.38009473607E+03  0.00000000000E+00 0. -1.
          1   -1    0    0  502    0 -0.00000000000E+00 -0.00000000000E+00 -0.50746709131E+03  0.50746709131E+03  0.00000000000E+00 0.  1.
         25    1    1    2    0    0  0.51294582254E+02 -0.47213453263E+01  0.54069335602E+02  0.14560878518E+03  0.12500000000E+03 0.  0.
          1    1    1    2  501    0 -0.23576416042E+02 -0.80537348660E+02  0.26946024497E+03  0.28222497328E+03  0.00000000000E+00 0. -1.
          1    1    1    2  502    0 -0.27718166211E+02  0.85258693986E+02 -0.45090193581E+03  0.45972806892E+03  0.00000000000E+00 0.  1.
<mgrwt>
<rscale>  0 0.85317342E+02</rscale>
<asrwt>0</asrwt>
<pdfrwt beam="1">  1        1 0.58476114E-01 0.83917292E+02</pdfrwt>
<pdfrwt beam="2">  1        1 0.78071859E-01 0.86740750E+02</pdfrwt>
<totfact> 0.35806499E+02</totfact>
</mgrwt>
</event>
<event>
 5    1  0.7156190E-003  0.1315935E+03  0.7546771E-02  0.1300991E+00
         -3   -1    0    0    0  501 -0.00000000000E+00  0.00000000000E+00  0.11946390855E+04  0.11946390855E+04  0.00000000000E+00 0.  1.
          2   -1    0    0  502    0  0.00000000000E+00 -0.00000000000E+00 -0.36955222458E+03  0.36955222458E+03  0.00000000000E+00 0. -1.
         25    1    1    2    0    0 -0.94787483789E+02  0.10517956756E+02  0.35749742831E+03  0.39054411498E+03  0.12500000000E+03 0.  0.
          2    1    1    2  502    0  0.12565383802E+03  0.43960047937E+02 -0.33922307770E+03  0.36440865696E+03  0.00000000000E+00 0. -1.
         -3    1    1    2    0  501 -0.30866354228E+02 -0.54478004693E+02  0.80681251031E+03  0.80923853814E+03  0.00000000000E+00 0.  1.
<mgrwt>
<rscale>  0 0.90772650E+02</rscale>
<asrwt>0</asrwt>
<pdfrwt beam="2">  1        2 0.56854189E-01 0.13159355E+03</pdfrwt>
<pdfrwt beam="1">  1       -3 0.18379063E+00 0.62614574E+02</pdfrwt>
<totfact> 0.11184328E+01</totfact>
</mgrwt>
</event>
<event>
 5    1  0.7156190E-003  0.1258948E+03  0.7546771E-02  0.1327352E+00
          2   -1    0    0  501    0  0.00000000000E+00  0.00000000000E+00  0.93097627837E+03  0.93097627837E+03  0.00000000000E+00 0. -1.
          1   -1    0    0  502    0 -0.00000000000E+00 -0.00000000000E+00 -0.30562853009E+03  0.30562853009E+03  0.00000000000E+00 0. -1.
         25    1    1    2    0    0  0.82294778923E+02 -0.15150743534E+03  0.53448758621E+03  0.57535112185E+03  0.12500000000E+03 0.  0.
          2    1    1    2  501    0 -0.38085097310E+02  0.34820670488E+02  0.36048225353E+03  0.36415712109E+03  0.00000000000E+00 0. -1.
          1    1    1    2  502    0 -0.44209681613E+02  0.11668676485E+03 -0.26962209146E+03  0.29709656552E+03  0.00000000000E+00 0. -1.
<mgrwt>
<rscale>  0 0.80601821E+02</rscale>
<asrwt>0</asrwt>
<pdfrwt beam="1">  1        2 0.14322712E+00 0.51603815E+02</pdfrwt>
<pdfrwt beam="2">  1        1 0.47019774E-01 0.12589483E+03</pdfrwt>
<totfact> 0.36678934E+02</totfact>
</mgrwt>
</event>
<event>
 5    1  0.7156190E-003  0.1536401E+03  0.7546771E-02  0.1319587E+00
          1   -1    0    0  502    0  0.00000000000E+00  0.00000000000E+00  0.11302330974E+04  0.11302330974E+04  0.00000000000E+00 0. -1.
         -1   -1    0    0    0  501 -0.00000000000E+00 -0.00000000000E+00 -0.48147997478E+02  0.48147997478E+02  0.00000000000E+00 0.  1.
         25    1    1    2    0    0  0.57971738754E+02  0.14645118182E+03  0.75275706425E+03  0.77915137741E+03  0.12500000000E+03 0.  0.
          1    1    1    2  502    0  0.37411014110E+02 -0.25554340142E+02  0.17669191824E+03  0.18240790073E+03  0.00000000000E+00 0. -1.
         -1    1    1    2    0  501 -0.95382752864E+02 -0.12089684168E+03  0.15263611748E+03  0.21682181678E+03  0.00000000000E+00 0.  1.
<mgrwt>
<rscale>  0 0.83431274E+02</rscale>
<asrwt>0</asrwt>
<pdfrwt beam="1">  1        1 0.17388199E+00 0.45305720E+02</pdfrwt>
<pdfrwt beam="2">  1       -1 0.74073851E-02 0.15364015E+03</pdfrwt>
<totfact> 0.13650595E+03</totfact>
</mgrwt>
</event>
<event>
 5    1  0.7156190E-003  0.5587042E+02  0.7546771E-02  0.1487280E+00
          2   -1    0    0  502    0  0.00000000000E+00  0.00000000000E+00  0.11035261256E+04  0.11035261256E+04  0.00000000000E+00 0. -1.
         -1   -1    0    0    0  501 -0.00000000000E+00 -0.00000000000E+00 -0.85502053285E+02  0.85502053285E+02  0.00000000000E+00 0.  1.
         25    1    1    2    0    0 -0.41658804230E+02  0.50708233694E+02  0.41910970923E+03  0.44224962330E+03  0.12500000000E+03 0.  0.
          2    1    1    2  502    0  0.52226756599E+02 -0.19359295040E+02  0.66792749065E+03  0.67024588710E+03  0.00000000000E+00 0. -1.
         -1    1    1    2    0  501 -0.10567952369E+02 -0.31348938654E+02 -0.69013127557E+02  0.76532668497E+02  0.00000000000E+00 0.  1.
<mgrwt>
<rscale>  0 0.42992104E+02</rscale>
<asrwt>0</asrwt>
<pdfrwt beam="1">  1        2 0.16977324E+00 0.55870415E+02</pdfrwt>
<pdfrwt beam="2">  1       -1 0.13154163E-01 0.33082285E+02</pdfrwt>
<totfact> 0.99869454E+02</totfact>
</mgrwt>
</event>
<event>
 5    1  0.7156190E-003  0.6786272E+02  0.7546771E-02  0.1399075E+00
         -1   -1    0    0    0  501 -0.00000000000E+00  0.00000000000E+00  0.30308717820E+02  0.30308717820E+02  0.00000000000E+00 0.  1.
          2   -1    0    0  502    0  0.00000000000E+00 -0.00000000000E+00 -0.66967554895E+03  0.66967554895E+03  0.00000000000E+00 0. -1.
         25    1    1    2    0    0 -0.14289602492E+02 -0.81663986671E+02 -0.47797172152E+03  0.50095425543E+03  0.12500000000E+03 0.  0.
          2    1    1    2  502    0  0.47935988835E+02  0.41327288670E+02 -0.98553772890E+02  0.11712664072E+03  0.00000000000E+00 0. -1.
         -1    1    1    2    0  501 -0.33646386343E+02  0.40336698001E+02 -0.62841336724E+02  0.81903370631E+02  0.00000000000E+00 0.  1.
<mgrwt>
<rscale>  0 0.59704715E+02</rscale>
<asrwt>0</asrwt>
<pdfrwt beam="2">  1        2 0.10302701E+00 0.67862725E+02</pdfrwt>
<pdfrwt beam="1">  1       -1 0.46628795E-02 0.52527407E+02</pdfrwt>
<totfact> 0.87381408E+03</totfact>
</mgrwt>
</event>
<event>
 5    1  0.7156190E-003  0.8021922E+02  0.7546771E-02  0.1373910E+00
          1   -1    0    0  501    0  0.00000000000E+00  0.00000000000E+00  0.78022296256E+03  0.78022296256E+03  0.00000000000E+00 0. -1.
          3   -1    0    0  502    0 -0.00000000000E+00 -0.00000000000E+00 -0.15509096071E+03  0.15509096071E+03  0.00000000000E+00 0. -1.
         25    1    1    2    0    0  0.81447502290E+02  0.19574842790E+02  0.12464652355E+03  0.19539351559E+03  0.12500000000E+03 0.  0.
          1    1    1    2  501    0 -0.31328265189E+02  0.44538322325E+02  0.60500816453E+03  0.60745370317E+03  0.00000000000E+00 0. -1.
          3    1    1    2  502    0 -0.50119237101E+02 -0.64113165115E+02 -0.10452268623E+03  0.13246670451E+03  0.00000000000E+00 0. -1.
<mgrwt>
<rscale>  0 0.66092150E+02</rscale>
<asrwt>0</asrwt>
<pdfrwt beam="1">  1        1 0.12003430E+00 0.54452937E+02</pdfrwt>
<pdfrwt beam="2">  1        3 0.23860148E-01 0.80219222E+02</pdfrwt>
<totfact> 0.21415069E+02</totfact>
</mgrwt>
</event>
<event>
 5    1  0.7156190E-003  0.1422658E+03  0.7546771E-02  0.1291625E+00
          2   -1    0    0  501    0  0.00000000000E+00  0.00000000000E+00  0.54908199390E+03  0.54908199390E+03  0.00000000000E+00 0. -1.
          3   -1    0    0  502    0 -0.00000000000E+00 -0.00000000000E+00 -0.22239040876E+03  0.22239040876E+03  0.00000000000E+00 0. -1.
         25    1    1    2    0    0 -0.11968072959E+03 -0.49202371132E+02  0.14808487096E+02  0.18052324407E+03  0.12500000000E+03 0.  0.
          2    1    1    2  501    0  0.15948701592E+02 -0.61125471734E+02  0.40716234677E+03  0.41203381051E+03  0.00000000000E+00 0. -1.
          3    1    1    2  502    0  0.10373202800E+03  0.11032784287E+03 -0.95279248721E+02  0.17891534809E+03  0.00000000000E+00 0. -1.
<mgrwt>
<rscale>  0 0.94800838E+02</rscale>
<asrwt>0</asrwt>
<pdfrwt beam="1">  1        2 0.84474152E-01 0.63171864E+02</pdfrwt>
<pdfrwt beam="2">  1        3 0.34213909E-01 0.14226585E+03</pdfrwt>
<totfact> 0.29142630E+02</totfact>
</mgrwt>
</event>
<event>
 5    1  0.7156190E-003  0.1271085E+03  0.7546771E-02  0.1245870E+00
          2   -1    0    0  501    0  0.00000000000E+00  0.00000000000E+00  0.73320332396E+03  0.73320332396E+03  0.00000000000E+00 0. -1.
          1   -1    0    0  502    0 -0.00000000000E+00 -0.00000000000E+00 -0.16252888281E+04  0.16252888281E+04  0.00000000000E+00 0. -1.
         25    1    1    2    0    0 -0.21147764292E+03  0.84317973552E+02  0.92870974804E+02  0.27583025954E+03  0.12500000000E+03 0.  0.
          2    1    1    2  501    0  0.10967100125E+03 -0.10432282745E+02  0.54070983842E+03  0.55181853032E+03  0.00000000000E+00 0. -1.
          1    1    1    2  502    0  0.10180664167E+03 -0.73885690807E+02 -0.15256663174E+04  0.15308433622E+04  0.00000000000E+00 0. -1.
<mgrwt>
<rscale>  0 0.11833445E+03</rscale>
<asrwt>0</asrwt>
<pdfrwt beam="1">  1        2 0.11280051E+00 0.11016606E+03</pdfrwt>
<pdfrwt beam="2">  1        1 0.25004444E+00 0.12710849E+03</pdfrwt>
<totfact> 0.35709504E+01</totfact>
</mgrwt>
</event>
<event>
 5    1  0.7156190E-003  0.9060253E+02  0.7546771E-02  0.1308565E+00
          1   -1    0    0  502    0  0.00000000000E+00  0.00000000000E+00  0.10500848923E+03  0.10500848923E+03  0.00000000000E+00 0. -1.
         -3   -1    0    0    0  501 -0.00000000000E+00 -0.00000000000E+00 -0.10619801446E+04  0.10619801446E+04  0.00000000000E+00 0.  1.
         25    1    1    2    0    0 -0.16753148501E+02 -0.62752028057E+02 -0.31585138406E+03  0.34584039935E+03  0.12500000000E+03 0.  0.
          1    1    1    2  502    0  0.92089422844E+02  0.23703159243E+02  0.61615241072E+02  0.11330816162E+03  0.00000000000E+00 0. -1.
         -3    1    1    2    0  501 -0.75336274343E+02  0.39048868813E+02 -0.70273551239E+03  0.70784007287E+03  0.00000000000E+00 0.  1.
<mgrwt>
<rscale>  0 0.87681674E+02</rscale>
<asrwt>0</asrwt>
<pdfrwt beam="1">  1        1 0.16155152E-01 0.90602527E+02</pdfrwt>
<pdfrwt beam="2">  1       -3 0.16338156E+00 0.84854984E+02</pdfrwt>
<totfact> 0.48693133E+01</totfact>
</mgrwt>
</event>
<event>
 5    1  0.7156190E-003  0.4689669E+02  0.7546771E-02  0.1508854E+00
          1   -1    0    0  501    0  0.00000000000E+00  0.00000000000E+00  0.25803452239E+03  0.25803452239E+03  0.00000000000E+00 0. -1.
          1   -1    0    0  502    0 -0.00000000000E+00 -0.00000000000E+00 -0.76888013420E+03  0.76888013420E+03  0.00000000000E+00 0. -1.
         25    1    1    2    0    0 -0.38250102467E+02  0.63199300152E+02 -0.75530031220E+01  0.14539349963E+03  0.12500000000E+03 0.  0.
          1    1    1    2  501    0  0.29138385685E+02 -0.17459836736E+02  0.18679542046E+03  0.18985894903E+03  0.00000000000E+00 0. -1.
          1    1    1    2  502    0  0.91117167821E+01 -0.45739463416E+02 -0.69008802916E+03  0.69166220793E+03  0.00000000000E+00 0. -1.
<mgrwt>
<rscale>  0 0.39912812E+02</rscale>
<asrwt>0</asrwt>
<pdfrwt beam="1">  1        1 0.39697619E-01 0.33968977E+02</pdfrwt>
<pdfrwt beam="2">  1        1 0.11828925E+00 0.46896688E+02</pdfrwt>
<totfact> 0.33311613E+02</totfact>
</mgrwt>
</event>
<event>
 5    1  0.7156190E-003  0.6405065E+02  0.7546771E-02  0.1477458E+00
          1   -1    0    0  502    0  0.00000000000E+00  0.00000000000E+00  0.10275465530E+04  0.10275465530E+04  0.00000000000E+00 0. -1.
          1   -1    0    0  501    0 -0.00000000000E+00 -0.00000000000E+00 -0.52069702452E+02  0.52069702452E+02  0.00000000000E+00 0. -1.
         25    1    1    2    0    0 -0.20172018197E+02  0.29544805964E+02  0.75160238260E+02  0.15017945030E+03  0.12500000000E+03 0.  0.
          1    1    1    2  501    0 -0.26939088566E+02  0.15183356935E+02  0.44778953633E+01  0.31245805598E+02  0.00000000000E+00 0. -1.
          1    1    1    2  502    0  0.47111106762E+02 -0.44728162898E+02  0.89583871694E+03  0.89819099957E+03  0.00000000000E+00 0. -1.
<mgrwt>
<rscale>  0 0.44504558E+02</rscale>
<asrwt>0</asrwt>
<pdfrwt beam="1">  1        1 0.15808407E+00 0.64050647E+02</pdfrwt>
<pdfrwt beam="2">  1        1 0.80107243E-02 0.30923273E+02</pdfrwt>
<totfact> 0.14714431E+03</totfact>
</mgrwt>
</event>
<event>
 5    1  0.7156190E-003  0.7323331E+02  0.7546771E-02  0.1454439E+00
          2   -1    0    0  502    0  0.00000000000E+00  0.00000000000E+00  0.10078793077E+03  0.10078793077E+03  0.00000000000E+00 0. -1.
         -1   -1    0    0    0  501 -0.00000000000E+00 -0.00000000000E+00 -0.16746509780E+03  0.16746509780E+03  0.00000000000E+00 0.  1.
         25    1    1    2    0    0  0.62702465313E+02  0.39762888942E+02 -0.76784160662E+01  0.14559067472E+03  0.12500000000E+03 0.  0.
          2    1    1    2  502    0  0.11136852801E+02 -0.29918653110E+02 -0.98202098133E+01  0.33400476269E+02  0.00000000000E+00 0. -1.
         -1    1    1    2    0  501 -0.73839318114E+02 -0.98442358313E+01 -0.49178541153E+02  0.89261877577E+02  0.00000000000E+00 0.  1.
<mgrwt>
<rscale>  0 0.48351999E+02</rscale>
<asrwt>0</asrwt>
<pdfrwt beam="1">  1        2 0.15505836E-01 0.31924212E+02</pdfrwt>
<pdfrwt beam="2">  1       -1 0.25763861E-01 0.73233315E+02</pdfrwt>
<totfact> 0.49227048E+03</totfact>
</mgrwt>
</event>
<event>
 5    1  0.7156190E-003  0.5640312E+02  0.7546771E-02  0.1430469E+00
          2   -1    0    0  501    0  0.00000000000E+00  0.00000000000E+00  0.10073284919E+04  0.10073284919E+04  0.00000000000E+00 0. -1.
          1   -1    0    0  502    0 -0.00000000000E+00 -0.00000000000E+00 -0.23294735002E+04  0.23294735002E+04  0.00000000000E+00 0. -1.
         25    1    1    2    0    0  0.56318655473E+02  0.31371661884E+02  0.57137929899E+02  0.15180815247E+03  0.12500000000E+03 0.  0.
          2    1    1    2  501    0 -0.53668923129E+02  0.18108162394E+02  0.90169775024E+03  0.90347500886E+03  0.00000000000E+00 0. -1.
          1    1    1    2  502    0 -0.26497323442E+01 -0.49479824278E+02 -0.22809806884E+04  0.22815188307E+04  0.00000000000E+00 0. -1.
<mgrwt>
<rscale>  0 0.52866015E+02</rscale>
<asrwt>0</asrwt>
<pdfrwt beam="1">  1        2 0.15497361E+00 0.56403124E+02</pdfrwt>
<pdfrwt beam="2">  1        1 0.35838054E+00 0.49550722E+02</pdfrwt>
<totfact> 0.10075855E+01</totfact>
</mgrwt>
</event>
<event>
 5    1  0.7156190E-003  0.3577826E+02  0.7546771E-02  0.1556425E+00
         -2   -1    0    0    0  501 -0.00000000000E+00  0.00000000000E+00  0.48902247255E+03  0.48902247255E+03  0.00000000000E+00 0.  1.
          1   -1    0    0  502    0  0.00000000000E+00 -0.00000000000E+00 -0.21688557541E+02  0.21688557541E+02  0.00000000000E+00 0. -1.
         25    1    1    2    0    0 -0.80389594439E+01 -0.77944558496E+01  0.30054746670E+03  0.32569795540E+03  0.12500000000E+03 0.  0.
          1    1    1    2  502    0  0.19567572387E+02 -0.29953197542E+02  0.48177915216E+02  0.60009961229E+02  0.00000000000E+00 0. -1.
         -2    1    1    2    0  501 -0.11528612943E+02  0.37747653392E+02  0.11860853309E+03  0.12500311346E+03  0.00000000000E+00 0.  1.
<mgrwt>
<rscale>  0 0.34134315E+02</rscale>
<asrwt>0</asrwt>
<pdfrwt beam="2">  1        1 0.33367015E-02 0.35778261E+02</pdfrwt>
<pdfrwt beam="1">  1       -2 0.75234218E-01 0.32565907E+02</pdfrwt>
<totfact> 0.34626569E+03</totfact>
</mgrwt>
</event>
<event>
 5    1  0.7156190E-003  0.1761452E+03  0.7546771E-02  0.1274087E+00
         -2   -1    0    0    0  501 -0.00000000000E+00  0.00000000000E+00  0.13520504041E+03  0.13520504041E+03  0.00000000000E+00 0.  1.
          1   -1    0    0  502    0  0.00000000000E+00 -0.00000000000E+00 -0.13608437462E+04  0.13608437462E+04  0.00000000000E+00 0. -1.
         25    1    1    2    0    0  0.39018908893E+01 -0.17156932495E+03 -0.22124710787E+03  0.30663747448E+03  0.12500000000E+03 0.  0.
          1    1    1    2  502    0  0.56297441484E+02  0.16929145133E+03 -0.10789251723E+04  0.10935760261E+04  0.00000000000E+00 0. -1.
         -2    1    1    2    0  501 -0.60199332374E+02  0.22778736204E+01  0.74533574426E+02  0.95835286002E+02  0.00000000000E+00 0.  1.
<mgrwt>
<rscale>  0 0.10301171E+03</rscale>
<asrwt>0</asrwt>
<pdfrwt beam="2">  1        1 0.20936058E+00 0.17614521E+03</pdfrwt>
<pdfrwt beam="1">  1       -2 0.20800775E-01 0.60242413E+02</pdfrwt>
<totfact> 0.15187660E+02</totfact>
</mgrwt>
</event>
<event>
 5    1  0.7156190E-003  0.9939982E+02  0.7546771E-02  0.1286605E+00
          2   -1    0    0  502    0  0.00000000000E+00  0.00000000000E+00  0.12660045584E+04  0.12660045584E+04  0.00000000000E+00 0. -1.
         -2   -1    0    0    0  501 -0.00000000000E+00 -0.00000000000E+00 -0.24898517988E+03  0.24898517988E+03  0.00000000000E+00 0. -1.
         25    1    1    2    0    0  0.89366840860E+02 -0.93824235403E+02  0.11271939017E+03  0.21241487781E+03  0.12500000000E+03 0.  0.
          2    1    1    2  502    0 -0.94583160961E+02 -0.59959655671E+01  0.10887045685E+04  0.10928218351E+04  0.00000000000E+00 0. -1.
         -2    1    1    2    0  501  0.52163201010E+01  0.99820200970E+02 -0.18440458006E+03  0.20975302540E+03  0.00000000000E+00 0. -1.
<mgrwt>
<rscale>  0 0.97058855E+02</rscale>
<asrwt>0</asrwt>
<pdfrwt beam="1">  1        2 0.19476993E+00 0.94773023E+02</pdfrwt>
<pdfrwt beam="2">  1       -2 0.38305413E-01 0.99399820E+02</pdfrwt>
<totfact> 0.12762033E+02</totfact>
</mgrwt>
</event>
<event>
 5    1  0.7156190E-003  0.5867667E+02  0.7546771E-02  0.1494029E+00
         -1   -1    0    0    0  501 -0.00000000000E+00  0.00000000000E+00  0.64626771628E+01  0.64626771628E+01  0.00000000000E+00 0.  1.
          2   -1    0    0  502    0  0.00000000000E+00 -0.00000000000E+00 -0.23619312645E+04  0.23619312645E+04  0.00000000000E+00 0. -1.
         25    1    1    2    0    0  0.16813992261E+02  0.42008902842E+02 -0.88001131491E+03  0.88999571494E+03  0.12500000000E+03 0.  0.
          2    1    1    2  502    0 -0.46821129798E+02 -0.40318570159E+02 -0.11036119061E+04  0.11053402392E+04  0.00000000000E+00 0. -1.
         -1    1    1    2    0  501  0.30007137536E+02 -0.16903326829E+01 -0.37184536636E+03  0.37305798746E+03  0.00000000000E+00 0.  1.
<mgrwt>
<rscale>  0 0.41994169E+02</rscale>
<asrwt>0</asrwt>
<pdfrwt beam="2">  1        2 0.36337414E+00 0.58676671E+02</pdfrwt>
<pdfrwt beam="1">  1       -1 0.99425775E-03 0.30054709E+02</pdfrwt>
<totfact> 0.86718828E+03</totfact>
</mgrwt>
</event>
<event>
 5    1  0.7156190E-003  0.7858425E+02  0.7546771E-02  0.1376213E+00
          2   -1    0    0  502    0  0.00000000000E+00  0.00000000000E+00  0.96802233537E+02  0.96802233537E+02  0.00000000000E+00 0. -1.
         -3   -1    0    0    0  501 -0.00000000000E+00 -0.00000000000E+00 -0.75467599987E+03  0.75467599987E+03  0.00000000000E+00 0.  1.
         25    1    1    2    0    0 -0.52340648628E+01  0.11441853009E+03 -0.18117040788E+03  0.24812640358E+03  0.12500000000E+03 0.  0.
          2    1    1    2  502    0  0.33515738247E+02 -0.67779535374E+02  0.38788840714E+02  0.84982023333E+02  0.00000000000E+00 0. -1.
         -3    1    1    2    0  501 -0.28281673384E+02 -0.46638994719E+02 -0.51549219917E+03  0.51836980649E+03  0.00000000000E+00 0.  1.
<mgrwt>
<rscale>  0 0.65469839E+02</rscale>
<asrwt>0</asrwt>
<pdfrwt beam="1">  1        2 0.14892651E-01 0.78584247E+02</pdfrwt>
<pdfrwt beam="2">  1       -3 0.11610400E+00 0.54544009E+02</pdfrwt>
<totfact> 0.14398506E+02</totfact>
</mgrwt>
</event>
<event>
 5    1  0.7156190E-003  0.1558264E+03  0.7546771E-02  0.1295553E+00
          2   -1    0    0  502    0  0.00000000000E+00  0.00000000000E+00  0.11652526713E+03  0.11652526713E+03  0.00000000000E+00 0. -1.
         -2   -1    0    0    0  501 -0.00000000000E+00 -0.00000000000E+00 -0.44012535230E+03  0.44012535230E+03  0.00000000000E+00 0.  1.
         25    1    1    2    0    0  0.17792823353E+03  0.58987559063E+01 -0.59690315485E+02  0.22556858241E+03  0.12500000000E+03 0.  0.
          2    1    1    2  502    0 -0.13092023850E+03  0.23798820444E+02 -0.12973838013E+03  0.18584547340E+03  0.00000000000E+00 0. -1.
         -2    1    1    2    0  501 -0.47007995032E+02 -0.29697576351E+02 -0.13417138955E+03  0.14523656362E+03  0.00000000000E+00 0.  1.
<mgrwt>
<rscale>  0 0.93082882E+02</rscale>
<asrwt>0</asrwt>
<pdfrwt beam="1">  1        2 0.17926964E-01 0.15582643E+03</pdfrwt>
<pdfrwt beam="2">  1       -2 0.67711592E-01 0.55603036E+02</pdfrwt>
<totfact> 0.64772236E+02</totfact>
</mgrwt>
</event>
<event>
 5    1  0.7156190E-003  0.6555773E+02  0.7546771E-02  0.1514234E+00
         -1   -1    0    0    0  501 -0.00000000000E+00  0.00000000000E+00  0.29258794232E+03  0.29258794232E+03  0.00000000000E+00 0.  1.
          2   -1    0    0  502    0  0.00000000000E+00 -0.00000000000E+00 -0.15732604765E+04  0.15732604765E+04  0.00000000000E+00 0. -1.
         25    1    1    2    0    0 -0.46609342192E+02  0.45573226687E+01  0.15462024201E+03  0.20426849783E+03  0.12500000000E+03 0.  0.
          2    1    1    2  502    0  0.61650433158E+02 -0.22523898243E+02 -0.15465196013E+04  0.15479118125E+04  0.00000000000E+00 0. -1.
         -1    1    1    2    0  501 -0.15041090966E+02  0.17966575574E+02  0.11122682515E+03  0.11366810850E+03  0.00000000000E+00 0.  1.
<mgrwt>
<rscale>  0 0.39193263E+02</rscale>
<asrwt>0</asrwt>
<pdfrwt beam="2">  1        2 0.24204007E+00 0.65557730E+02</pdfrwt>
<pdfrwt beam="1">  1       -1 0.45013530E-01 0.23431437E+02</pdfrwt>
<totfact> 0.80407481E+01</totfact>
</mgrwt>
</event>
<event>
 5    1  0.7156190E-003  0.7792964E+02  0.7546771E-02  0.1349661E+00
          2   -1    0    0  502    0  0.00000000000E+00  0.00000000000E+00  0.19152644814E+03  0.19152644814E+03  0.00000000000E+00 0. -1.
          2   -1    0    0  501    0 -0.00000000000E+00 -0.00000000000E+00 -0.39610056808E+04  0.39610056808E+04  0.00000000000E+00 0. -1.
         25    1    1    2    0    0 -0.98225750743E+01  0.28512933337E+01  0.48333091229E+02  0.13440870717E+03  0.12500000000E+03 0.  0.
          2    1    1    2  501    0  0.78068774524E+02  0.48998039343E+01 -0.39057542978E+04  0.39065375176E+04  0.00000000000E+00 0. -1.
          2    1    1    2  502    0 -0.68246199450E+02 -0.77510972680E+01  0.87941973873E+02  0.11158590420E+03  0.00000000000E+00 0. -1.
<mgrwt>
<rscale>  0 0.73161422E+02</rscale>
<asrwt>0</asrwt>
<pdfrwt beam="1">  1        2 0.29465608E-01 0.68684956E+02</pdfrwt>
<pdfrwt beam="2">  1        2 0.60938547E+00 0.77929636E+02</pdfrwt>
<totfact> 0.16708681E+01</totfact>
</mgrwt>
</event>
<event>
 5    1  0.7156190E-003  0.3068186E+02  0.7546771E-02  0.1626487E+00
         -2   -1    0    0    0  501 -0.00000000000E+00  0.00000000000E+00  0.30146768764E+02  0.30146768764E+02  0.00000000000E+00 0.  1.
          1   -1    0    0  502    0  0.00000000000E+00 -0.00000000000E+00 -0.38515339077E+03  0.38515339077E+03  0.00000000000E+00 0. -1.
         25    1    1    2    0    0  0.90994688207E+00 -0.26940170052E+02 -0.29956122166E+03  0.32571233671E+03  0.12500000000E+03 0.  0.
          1    1    1    2  502    0  0.23808077769E+02  0.25023825855E+02 -0.54812496827E+02  0.64787546920E+02  0.00000000000E+00 0. -1.
         -2    1    1    2    0  501 -0.24718024651E+02  0.19163441971E+01 -0.63290351779E+00  0.24800275898E+02  0.00000000000E+00 0.  1.
<mgrwt>
<rscale>  0 0.27580260E+02</rscale>
<asrwt>0</asrwt>
<pdfrwt beam="2">  1        1 0.59254372E-01 0.30681859E+02</pdfrwt>
<pdfrwt beam="1">  1       -2 0.46379641E-02 0.24792199E+02</pdfrwt>
<totfact> 0.96868586E+03</totfact>
</mgrwt>
</event>
<event>
 5    1  0.7156190E-003  0.7192154E+02  0.7546771E-02  0.1379776E+00
          1   -1    0    0  502    0 -0.00000000000E+00  0.00000000000E+00  0.16048337036E+03  0.16048337036E+03  0.00000000000E+00 0. -1.
          2   -1    0    0  501    0  0.00000000000E+00 -0.00000000000E+00 -0.14498810376E+04  0.14498810376E+04  0.00000000000E+00 0. -1.
         25    1    1    2    0    0 -0.12719186823E+03 -0.17645106905E+02 -0.15639315651E+03  0.23785066859E+03  0.12500000000E+03 0.  0.
          2    1    1    2  501    0  0.69980920182E+02  0.88386364400E+01 -0.12447069737E+04  0.12467040150E+04  0.00000000000E+00 0. -1.
          1    1    1    2  502    0  0.57210948052E+02  0.88064704648E+01  0.11170246300E+03  0.12580972434E+03  0.00000000000E+00 0. -1.
<mgrwt>
<rscale>  0 0.64522568E+02</rscale>
<asrwt>0</asrwt>
<pdfrwt beam="2">  1        2 0.22305863E+00 0.71921540E+02</pdfrwt>
<pdfrwt beam="1">  1        1 0.24689749E-01 0.57884769E+02</pdfrwt>
<totfact> 0.41009359E+02</totfact>
</mgrwt>
</event>
<event>
 5    1  0.7156190E-003  0.9437876E+02  0.7546771E-02  0.1390734E+00
          1   -1    0    0  502    0  0.00000000000E+00  0.00000000000E+00  0.14277908733E+03  0.14277908733E+03  0.00000000000E+00 0. -1.
         -2   -1    0    0    0  501 -0.00000000000E+00 -0.00000000000E+00 -0.31424944720E+03  0.31424944720E+03  0.00000000000E+00 0.  1.
         25    1    1    2    0    0 -0.80327139044E+02  0.78358852766E+02 -0.10697106017E+03  0.19914910692E+03  0.12500000000E+03 0.  0.
          1    1    1    2  502    0  0.84323519109E+02 -0.38188898146E+02  0.70893654522E+02  0.11659656113E+03  0.00000000000E+00 0. -1.
         -2    1    1    2    0  501 -0.39963800654E+01 -0.40169954619E+02 -0.13539295422E+03  0.14128286648E+03  0.00000000000E+00 0.  1.
<mgrwt>
<rscale>  0 0.61724437E+02</rscale>
<asrwt>0</asrwt>
<pdfrwt beam="1">  1        1 0.21966013E-01 0.94378758E+02</pdfrwt>
<pdfrwt beam="2">  1       -2 0.48346069E-01 0.40368259E+02</pdfrwt>
<totfact> 0.79110430E+02</totfact>
</mgrwt>
</event>
<event>
 5    1  0.7156190E-003  0.2988373E+03  0.7546771E-02  0.1085823E+00
          2   -1    0    0  502    0  0.00000000000E+00  0.00000000000E+00  0.12992546259E+04  0.12992546259E+04  0.00000000000E+00 0. -1.
         -1   -1    0    0    0  501 -0.00000000000E+00 -0.00000000000E+00 -0.17183646161E+02  0.17183646161E+02  0.00000000000E+00 0.  1.
         25    1    1    2    0    0 -0.10857197879E+03  0.32801751110E+02  0.83179738515E+03  0.84874950333E+03  0.12500000000E+03 0.  0.
          2    1    1    2  502    0  0.48412723473E+02 -0.42677362390E+02  0.25983082224E+03  0.26772598910E+03  0.00000000000E+00 0. -1.
         -1    1    1    2    0  501  0.60159255321E+02  0.98756112798E+01  0.19044277237E+03  0.19996277965E+03  0.00000000000E+00 0.  1.
<mgrwt>
<rscale>  0 0.29883729E+03</rscale>
<asrwt>0</asrwt>
<pdfrwt beam="1">  1        2 0.19988525E+00 0.29883729E+03</pdfrwt>
<pdfrwt beam="2">  1       -1 0.26436389E-02 0.29883729E+03</pdfrwt>
<totfact> 0.91025412E+03</totfact>
</mgrwt>
</event>
<event>
 5    1  0.7156190E-003  0.1221571E+03  0.7546771E-02  0.1309885E+00
          2   -1    0    0  502    0  0.00000000000E+00  0.00000000000E+00  0.29160288682E+03  0.29160288682E+03  0.00000000000E+00 0. -1.
          2   -1    0    0  501    0 -0.00000000000E+00 -0.00000000000E+00 -0.24311617181E+03  0.24311617181E+03  0.00000000000E+00 0. -1.
         25    1    1    2    0    0  0.14318024475E+03 -0.27999302537E+02  0.94826056392E+01  0.19235244537E+03  0.12500000000E+03 0.  0.
          2    1    1    2  501    0 -0.27133334204E+02  0.55953628761E+02 -0.12494646687E+03  0.13956591984E+03  0.00000000000E+00 0. -1.
          2    1    1    2  502    0 -0.11604691055E+03 -0.27954326224E+02  0.16395057624E+03  0.20280069342E+03  0.00000000000E+00 0. -1.
<mgrwt>
<rscale>  0 0.87157290E+02</rscale>
<asrwt>0</asrwt>
<pdfrwt beam="1">  1        2 0.44861983E-01 0.12215714E+03</pdfrwt>
<pdfrwt beam="2">  1        2 0.37402488E-01 0.62185419E+02</pdfrwt>
<totfact> 0.23342709E+03</totfact>
</mgrwt>
</event>
<event>
 5    1  0.7156190E-003  0.7948794E+02  0.7546771E-02  0.1355177E+00
          1   -1    0    0  501    0  0.00000000000E+00  0.00000000000E+00  0.15880015136E+04  0.15880015136E+04  0.00000000000E+00 0. -1.
          1   -1    0    0  502    0 -0.00000000000E+00 -0.00000000000E+00 -0.10317394456E+04  0.10317394456E+04  0.00000000000E+00 0. -1.
         25    1    1    2    0    0  0.72070060696E+02  0.52804223980E+02 -0.86160140584E+03  0.87519389981E+03  0.12500000000E+03 0.  0.
          1    1    1    2  501    0 -0.13139806752E+02 -0.78412500468E+02  0.15738438543E+04  0.15758507710E+04  0.00000000000E+00 0. -1.
          1    1    1    2  502    0 -0.58930253944E+02  0.25608276488E+02 -0.15598038041E+03  0.16869628842E+03  0.00000000000E+00 0. -1.
<mgrwt>
<rscale>  0 0.71466125E+02</rscale>
<asrwt>0</asrwt>
<pdfrwt beam="1">  1        1 0.24430793E+00 0.79487939E+02</pdfrwt>
<pdfrwt beam="2">  1        1 0.15872914E+00 0.64253861E+02</pdfrwt>
<totfact> 0.14215664E+01</totfact>
</mgrwt>
</event>
<event>
 5    1  0.7156190E-003  0.8579513E+02  0.7546771E-02  0.1358108E+00
         -1   -1    0    0    0  501 -0.00000000000E+00  0.00000000000E+00  0.55807026458E+03  0.55807026458E+03  0.00000000000E+00 0.  1.
          1   -1    0    0  502    0  0.00000000000E+00 -0.00000000000E+00 -0.41291798969E+02  0.41291798969E+02  0.00000000000E+00 0. -1.
         25    1    1    2    0    0  0.76466165703E+02 -0.67152663516E+02  0.30879100752E+03  0.34832950067E+03  0.12500000000E+03 0.  0.
          1    1    1    2  502    0 -0.56637268095E+02 -0.12842082850E+02  0.81970153145E+02  0.10045797746E+03  0.00000000000E+00 0. -1.
         -1    1    1    2    0  501 -0.19828897608E+02  0.79994746367E+02  0.12601730495E+03  0.15057458541E+03  0.00000000000E+00 0.  1.
<mgrwt>
<rscale>  0 0.70587160E+02</rscale>
<asrwt>0</asrwt>
<pdfrwt beam="2">  1        1 0.63525849E-02 0.58074945E+02</pdfrwt>
<pdfrwt beam="1">  1       -1 0.85856958E-01 0.85795125E+02</pdfrwt>
<totfact> 0.15487736E+03</totfact>
</mgrwt>
</event>
<event>
 5    1  0.7156190E-003  0.6675468E+02  0.7546771E-02  0.1435238E+00
          1   -1    0    0  502    0  0.00000000000E+00  0.00000000000E+00  0.31284546347E+03  0.31284546347E+03  0.00000000000E+00 0. -1.
         -2   -1    0    0    0  501 -0.00000000000E+00 -0.00000000000E+00 -0.53359057266E+02  0.53359057266E+02  0.00000000000E+00 0.  1.
         25    1    1    2    0    0 -0.68100316318E+02  0.28629664401E+02  0.17943102607E+03  0.23081985158E+03  0.12500000000E+03 0.  0.
          1    1    1    2  502    0  0.37317119218E+02 -0.54772764391E+02  0.35264361635E+02  0.75074618263E+02  0.00000000000E+00 0. -1.
         -2    1    1    2    0  501  0.30783197100E+02  0.26143099990E+02  0.44791018501E+02  0.60310050896E+02  0.00000000000E+00 0.  1.
<mgrwt>
<rscale>  0 0.51922882E+02</rscale>
<asrwt>0</asrwt>
<pdfrwt beam="1">  1        1 0.48130070E-01 0.66754677E+02</pdfrwt>
<pdfrwt beam="2">  1       -2 0.82090859E-02 0.40386469E+02</pdfrwt>
<totfact> 0.57292372E+03</totfact>
</mgrwt>
</event>
<event>
 5    1  0.7156190E-003  0.4893275E+02  0.7546771E-02  0.1539560E+00
          1   -1    0    0  502    0  0.00000000000E+00  0.00000000000E+00  0.11286162909E+04  0.11286162909E+04  0.00000000000E+00 0. -1.
          1   -1    0    0  501    0 -0.00000000000E+00 -0.00000000000E+00 -0.12438918311E+03  0.12438918311E+03  0.00000000000E+00 0.  1.
         25    1    1    2    0    0 -0.23789061835E+02  0.17224430863E+02  0.20879788473E+03  0.24512069914E+03  0.12500000000E+03 0.  0.
          1    1    1    2  501    0  0.23150951837E+02 -0.43760070921E+02 -0.10025241805E+03  0.11180991773E+03  0.00000000000E+00 0.  1.
          1    1    1    2  502    0  0.63810999802E+00  0.26535640058E+02  0.89568164113E+03  0.89607485716E+03  0.00000000000E+00 0. -1.
<mgrwt>
<rscale>  0 0.36039386E+02</rscale>
<asrwt>0</asrwt>
<pdfrwt beam="1">  1        1 0.17363327E+00 0.26543311E+02</pdfrwt>
<pdfrwt beam="2">  1        1 0.19136798E-01 0.48932754E+02</pdfrwt>
<totfact> 0.46595603E+02</totfact>
</mgrwt>
</event>
<event>
 5    1  0.7156190E-003  0.1014040E+03  0.7546771E-02  0.1281603E+00
          1   -1    0    0  502    0  0.00000000000E+00  0.00000000000E+00  0.16006853846E+04  0.16006853846E+04  0.00000000000E+00 0. -1.
         -2   -1    0    0    0  501 -0.00000000000E+00 -0.00000000000E+00 -0.25330717701E+03  0.25330717701E+03  0.00000000000E+00 0.  1.
         25    1    1    2    0    0  0.96144538057E+02  0.49824721474E+02  0.38169676068E+03  0.41598520668E+03  0.12500000000E+03 0.  0.
          1    1    1    2  502    0 -0.53038841729E+01 -0.97254028065E+02  0.11886410796E+04  0.11926248753E+04  0.00000000000E+00 0. -1.
         -2    1    1    2    0  501 -0.90840653884E+02  0.47429306591E+02 -0.22295963264E+03  0.24538247963E+03  0.00000000000E+00 0.  1.
<mgrwt>
<rscale>  0 0.99381085E+02</rscale>
<asrwt>0</asrwt>
<pdfrwt beam="1">  1        1 0.24625928E+00 0.97398548E+02</pdfrwt>
<pdfrwt beam="2">  1       -2 0.38970336E-01 0.10140398E+03</pdfrwt>
<totfact> 0.37555559E+01</totfact>
</mgrwt>
</event>
<event>
 5    1  0.7156190E-003  0.7626715E+02  0.7546771E-02  0.1374460E+00
          2   -1    0    0  502    0  0.00000000000E+00  0.00000000000E+00  0.45715384430E+02  0.45715384430E+02  0.00000000000E+00 0. -1.
          2   -1    0    0  501    0 -0.00000000000E+00 -0.00000000000E+00 -0.10750925298E+04  0.10750925298E+04  0.00000000000E+00 0. -1.
         25    1    1    2    0    0  0.10015302752E+03  0.27376766605E+02 -0.30237505670E+03  0.34327218236E+03  0.12500000000E+03 0.  0.
          2    1    1    2  501    0 -0.29602511298E+02 -0.48728937799E+02 -0.69473675661E+03  0.69707243458E+03  0.00000000000E+00 0. -1.
          2    1    1    2  502    0 -0.70550516226E+02  0.21352171194E+02 -0.32265332021E+02  0.80463297253E+02  0.00000000000E+00 0. -1.
<mgrwt>
<rscale>  0 0.65942732E+02</rscale>
<asrwt>0</asrwt>
<pdfrwt beam="1">  1        2 0.70331367E-02 0.76267155E+02</pdfrwt>
<pdfrwt beam="2">  1        2 0.16539884E+00 0.57015946E+02</pdfrwt>
<totfact> 0.36435407E+03</totfact>
</mgrwt>
</event>
<event>
 5    1  0.7156190E-003  0.7938901E+02  0.7546771E-02  0.1442619E+00
         -2   -1    0    0    0  501 -0.00000000000E+00  0.00000000000E+00  0.16185165203E+03  0.16185165203E+03  0.00000000000E+00 0.  1.
          1   -1    0    0  502    0  0.00000000000E+00 -0.00000000000E+00 -0.20492380234E+03  0.20492380234E+03  0.00000000000E+00 0. -1.
         25    1    1    2    0    0 -0.28893107820E+02 -0.98091409017E+02  0.87163784212E+02  0.18351910386E+03  0.12500000000E+03 0.  0.
          1    1    1    2  502    0  0.38661965160E+02  0.67478280769E+02 -0.12956773621E+03  0.15111540025E+03  0.00000000000E+00 0. -1.
         -2    1    1    2    0  501 -0.97688573399E+01  0.30613128248E+02 -0.66819830374E+00  0.32140950263E+02  0.00000000000E+00 0.  1.
<mgrwt>
<rscale>  0 0.50508285E+02</rscale>
<asrwt>0</asrwt>
<pdfrwt beam="2">  1        1 0.31526739E-01 0.79389014E+02</pdfrwt>
<pdfrwt beam="1">  1       -2 0.24900254E-01 0.32134004E+02</pdfrwt>
<totfact> 0.16428520E+03</totfact>
</mgrwt>
</event>
<event>
 5    1  0.7156190E-003  0.3035252E+02  0.7546771E-02  0.1609578E+00
          1   -1    0    0  502    0  0.00000000000E+00  0.00000000000E+00  0.26556879173E+04  0.26556879173E+04  0.00000000000E+00 0. -1.
         -1   -1    0    0    0  501 -0.00000000000E+00 -0.00000000000E+00 -0.82068504126E+01  0.82068504126E+01  0.00000000000E+00 0.  1.
         25    1    1    2    0    0 -0.86515190031E+01  0.33443448748E+01  0.69051547451E+03  0.70179958247E+03  0.12500000000E+03 0.  0.
          1    1    1    2  502    0 -0.86029916151E+01  0.26309769060E+02  0.18398372947E+04  0.18400455121E+04  0.00000000000E+00 0. -1.
         -1    1    1    2    0  501  0.17254510618E+02 -0.29654113934E+02  0.11712829759E+03  0.12204967311E+03  0.00000000000E+00 0.  1.
<mgrwt>
<rscale>  0 0.28985787E+02</rscale>
<asrwt>0</asrwt>
<pdfrwt beam="1">  1        1 0.40856669E+00 0.27680596E+02</pdfrwt>
<pdfrwt beam="2">  1       -1 0.12625945E-02 0.30352519E+02</pdfrwt>
<totfact> 0.17176832E+03</totfact>
</mgrwt>
</event>
<event>
 5    1  0.7156190E-003  0.4865786E+02  0.7546771E-02  0.1536544E+00
          2   -1    0    0  502    0  0.00000000000E+00  0.00000000000E+00  0.10588342669E+04  0.10588342669E+04  0.00000000000E+00 0. -1.
         -2   -1    0    0    0  501 -0.00000000000E+00 -0.00000000000E+00 -0.26974003442E+02  0.26974003442E+02  0.00000000000E+00 0.  1.
         25    1    1    2    0    0 -0.32023253593E+02  0.33363966973E+02  0.67847835436E+03  0.69144524034E+03  0.12500000000E+03 0.  0.
          2    1    1    2  502    0  0.22819256440E+02  0.14846456047E+02  0.34314811425E+03  0.34422632676E+03  0.00000000000E+00 0. -1.
         -2    1    1    2    0  501  0.92039971530E+01 -0.48210423020E+02  0.10233794811E+02  0.50136703198E+02  0.00000000000E+00 0.  1.
<mgrwt>
<rscale>  0 0.36395771E+02</rscale>
<asrwt>0</asrwt>
<pdfrwt beam="1">  1        2 0.16289755E+00 0.27223808E+02</pdfrwt>
<pdfrwt beam="2">  1       -2 0.41498475E-02 0.48657857E+02</pdfrwt>
<totfact> 0.59996159E+03</totfact>
</mgrwt>
</event>
<event>
 5    1  0.7156190E-003  0.1075992E+03  0.7546771E-02  0.1361753E+00
          2   -1    0    0  502    0  0.00000000000E+00  0.00000000000E+00  0.11019751156E+04  0.11019751156E+04  0.00000000000E+00 0. -1.
         -1   -1    0    0    0  501 -0.00000000000E+00 -0.00000000000E+00 -0.10441120835E+04  0.10441120835E+04  0.00000000000E+00 0.  1.
         25    1    1    2    0    0  0.10245867498E+02  0.94437578994E+02 -0.10829846073E+03  0.19072753006E+03  0.12500000000E+03 0.  0.
          2    1    1    2  502    0 -0.55127525179E+02 -0.92854425131E+02  0.10574454926E+04  0.10629449460E+04  0.00000000000E+00 0. -1.
         -1    1    1    2    0  501  0.44881657681E+02 -0.15831538626E+01 -0.89128399980E+03  0.89241472303E+03  0.00000000000E+00 0.  1.
<mgrwt>
<rscale>  0 0.69514277E+02</rscale>
<asrwt>0</asrwt>
<pdfrwt beam="1">  1        2 0.16953463E+00 0.10759922E+03</pdfrwt>
<pdfrwt beam="2">  1       -1 0.16063263E+00 0.44909571E+02</pdfrwt>
<totfact> 0.99257062E+00</totfact>
</mgrwt>
</event>
<event>
 5    1  0.7156190E-003  0.1555353E+03  0.7546771E-02  0.1335268E+00
          1   -1    0    0  502    0 -0.00000000000E+00  0.00000000000E+00  0.73952436392E+03  0.73952436392E+03  0.00000000000E+00 0. -1.
          2   -1    0    0  501    0  0.00000000000E+00 -0.00000000000E+00 -0.76806031493E+03  0.76806031493E+03  0.00000000000E+00 0. -1.
         25    1    1    2    0    0 -0.13471811794E+03  0.13015655059E+03  0.39851024422E+03  0.45773913282E+03  0.12500000000E+03 0.  0.
          2    1    1    2  501    0  0.96852820456E+02 -0.12096194472E+03 -0.72905106382E+03  0.74533731596E+03  0.00000000000E+00 0. -1.
          1    1    1    2  502    0  0.37865297487E+02 -0.91946058619E+01  0.30200486859E+03  0.30450823007E+03  0.00000000000E+00 0. -1.
<mgrwt>
<rscale>  0 0.77849416E+02</rscale>
<asrwt>0</asrwt>
<pdfrwt beam="2">  1        2 0.11816313E+00 0.15553525E+03</pdfrwt>
<pdfrwt beam="1">  1        1 0.11377298E+00 0.38965646E+02</pdfrwt>
<totfact> 0.14809871E+02</totfact>
</mgrwt>
</event>
<event>
 5    1  0.7156190E-003  0.8303869E+02  0.7546771E-02  0.1401425E+00
          2   -1    0    0  501    0  0.00000000000E+00  0.00000000000E+00  0.18885876421E+04  0.18885876421E+04  0.00000000000E+00 0. -1.
          1   -1    0    0  502    0 -0.00000000000E+00 -0.00000000000E+00 -0.62487423052E+03  0.62487423052E+03  0.00000000000E+00 0. -1.
         25    1    1    2    0    0  0.68014404055E+01 -0.42562807709E+02 -0.55890118422E+00  0.13222391827E+03  0.12500000000E+03 0.  0.
          2    1    1    2  501    0  0.12697365883E+02 -0.40178031859E+02  0.18192750002E+04  0.18197629032E+04  0.00000000000E+00 0. -1.
          1    1    1    2  502    0 -0.19498806289E+02  0.82740839569E+02 -0.55500268747E+03  0.56147505116E+03  0.00000000000E+00 0. -1.
<mgrwt>
<rscale>  0 0.59152111E+02</rscale>
<asrwt>0</asrwt>
<pdfrwt beam="1">  1        2 0.29055194E+00 0.42136651E+02</pdfrwt>
<pdfrwt beam="2">  1        1 0.96134498E-01 0.83038689E+02</pdfrwt>
<totfact> 0.48988164E+01</totfact>
</mgrwt>
</event>
<event>
 5    1  0.7156190E-003  0.8740049E+02  0.7546771E-02  0.1333394E+00
         -3   -1    0    0    0  501 -0.00000000000E+00  0.00000000000E+00  0.86286726458E+02  0.86286726458E+02  0.00000000000E+00 0.  1.
          2   -1    0    0  502    0  0.00000000000E+00 -0.00000000000E+00 -0.15418482396E+04  0.15418482396E+04  0.00000000000E+00 0. -1.
         25    1    1    2    0    0 -0.89187612828E+02  0.68388777023E+02 -0.61641099839E+03  0.63892016249E+03  0.12500000000E+03 0.  0.
          2    1    1    2  502    0  0.18639635445E+01 -0.70462185722E+02 -0.88688007814E+03  0.88967672049E+03  0.00000000000E+00 0. -1.
         -3    1    1    2    0  501  0.87323649284E+02  0.20734086998E+01  0.47729563433E+02  0.99538083031E+02  0.00000000000E+00 0.  1.
<mgrwt>
<rscale>  0 0.78489387E+02</rscale>
<asrwt>0</asrwt>
<pdfrwt beam="2">  1        2 0.23720740E+00 0.70486835E+02</pdfrwt>
<pdfrwt beam="1">  1       -3 0.13274882E-01 0.87400488E+02</pdfrwt>
<totfact> 0.37790916E+02</totfact>
</mgrwt>
</event>
<event>
 5    1  0.7156190E-003  0.5415633E+02  0.7546771E-02  0.1561293E+00
          2   -1    0    0  501    0  0.00000000000E+00  0.00000000000E+00  0.17182466220E+04  0.17182466220E+04  0.00000000000E+00 0. -1.
          1   -1    0    0  502    0 -0.00000000000E+00 -0.00000000000E+00 -0.16377342159E+04  0.16377342159E+04  0.00000000000E+00 0. -1.
         25    1    1    2    0    0  0.39762287616E+01  0.50231497122E+02 -0.33912043247E+03  0.36492010279E+03  0.12500000000E+03 0.  0.
          2    1    1    2  501    0 -0.24735811969E+02 -0.48187756775E+02  0.17048320210E+04  0.17056922759E+04  0.00000000000E+00 0. -1.
          1    1    1    2  502    0  0.20759583208E+02 -0.20437403471E+01 -0.12851991825E+04  0.12853684592E+04  0.00000000000E+00 0. -1.
<mgrwt>
<rscale>  0 0.33610978E+02</rscale>
<asrwt>0</asrwt>
<pdfrwt beam="1">  1        2 0.26434564E+00 0.54156329E+02</pdfrwt>
<pdfrwt beam="2">  1        1 0.25195911E+00 0.20859942E+02</pdfrwt>
<totfact> 0.12819741E+01</totfact>
</mgrwt>
</event>
<event>
 5    1  0.7156190E-003  0.1423943E+03  0.7546771E-02  0.1328340E+00
          2   -1    0    0  502    0  0.00000000000E+00  0.00000000000E+00  0.52987392028E+03  0.52987392028E+03  0.00000000000E+00 0. -1.
          2   -1    0    0  501    0 -0.00000000000E+00 -0.00000000000E+00 -0.38297442064E+03  0.38297442064E+03  0.00000000000E+00 0. -1.
         25    1    1    2    0    0 -0.47785661633E+02  0.95771791445E+02  0.77587133782E+02  0.18193534242E+03  0.12500000000E+03 0.  0.
          2    1    1    2  501    0 -0.19263122592E+02  0.40921315373E+02 -0.31464072970E+03  0.31787483501E+03  0.00000000000E+00 0. -1.
          2    1    1    2  502    0  0.67048784225E+02 -0.13669310682E+03  0.38395309556E+03  0.41303816350E+03  0.00000000000E+00 0. -1.
<mgrwt>
<rscale>  0 0.80251396E+02</rscale>
<asrwt>0</asrwt>
<pdfrwt beam="1">  1        2 0.81519064E-01 0.14239427E+03</pdfrwt>
<pdfrwt beam="2">  1        2 0.58919142E-01 0.45228552E+02</pdfrwt>
<totfact> 0.76887567E+02</totfact>
</mgrwt>
</event>
<event>
 5    1  0.7156190E-003  0.8814232E+02  0.7546771E-02  0.1486077E+00
         -2   -1    0    0    0  501 -0.00000000000E+00  0.00000000000E+00  0.11038643767E+03  0.11038643767E+03  0.00000000000E+00 0.  1.
          2   -1    0    0  502    0  0.00000000000E+00 -0.00000000000E+00 -0.38085841645E+04  0.38085841645E+04  0.00000000000E+00 0. -1.
         25    1    1    2    0    0  0.37261839745E+02  0.66294722691E+02 -0.16960925273E+03  0.22399940529E+03  0.12500000000E+03 0.  0.
          2    1    1    2  502    0 -0.26337625615E+02 -0.84401709705E+02 -0.36098858385E+04  0.36109684416E+04  0.00000000000E+00 0. -1.
         -2    1    1    2    0  501 -0.10924214130E+02  0.18106987014E+02  0.81297364415E+02  0.84002755276E+02  0.00000000000E+00 0.  1.
<mgrwt>
<rscale>  0 0.43173578E+02</rscale>
<asrwt>0</asrwt>
<pdfrwt beam="2">  1        2 0.58593601E+00 0.88142321E+02</pdfrwt>
<pdfrwt beam="1">  1       -2 0.16982529E-01 0.21147138E+02</pdfrwt>
<totfact> 0.18949857E+01</totfact>
</mgrwt>
</event>
<event>
 5    1  0.7156190E-003  0.5449696E+02  0.7546771E-02  0.1519183E+00
          1   -1    0    0  502    0 -0.00000000000E+00  0.00000000000E+00  0.20484000731E+03  0.20484000731E+03  0.00000000000E+00 0. -1.
          2   -1    0    0  501    0  0.00000000000E+00 -0.00000000000E+00 -0.76365172999E+03  0.76365172999E+03  0.00000000000E+00 0. -1.
         25    1    1    2    0    0 -0.33337424666E+02 -0.15218275264E+02  0.98535930297E+02  0.16333189935E+03  0.12500000000E+03 0.  0.
          2    1    1    2  501    0 -0.16272244615E+02 -0.21877401312E+02 -0.71796936118E+03  0.71848688939E+03  0.00000000000E+00 0. -1.
          1    1    1    2  502    0  0.49609669281E+02  0.37095676576E+02  0.60621708202E+02  0.86672948560E+02  0.00000000000E+00 0. -1.
<mgrwt>
<rscale>  0 0.38547192E+02</rscale>
<asrwt>0</asrwt>
<pdfrwt beam="2">  1        2 0.11748488E+00 0.27265484E+02</pdfrwt>
<pdfrwt beam="1">  1        1 0.31513847E-01 0.54496961E+02</pdfrwt>
<totfact> 0.77048854E+02</totfact>
</mgrwt>
</event>
<event>
 5    1  0.7156190E-003  0.4152960E+02  0.7546771E-02  0.1611230E+00
         -2   -1    0    0    0  501 -0.00000000000E+00  0.00000000000E+00  0.33207198923E+02  0.33207198923E+02  0.00000000000E+00 0.  1.
          1   -1    0    0  502    0  0.00000000000E+00 -0.00000000000E+00 -0.67156001505E+03  0.67156001505E+03  0.00000000000E+00 0. -1.
         25    1    1    2    0    0 -0.36475428555E+02 -0.49611303325E+01 -0.11468351840E+03  0.17358680565E+03  0.12500000000E+03 0.  0.
          1    1    1    2  502    0 -0.10870919266E+02  0.16827202608E+02 -0.35567681472E+03  0.35624054818E+03  0.00000000000E+00 0. -1.
         -2    1    1    2    0  501  0.47346347821E+02 -0.11866072276E+02 -0.16799248301E+03  0.17493986015E+03  0.00000000000E+00 0.  1.
<mgrwt>
<rscale>  0 0.28843950E+02</rscale>
<asrwt>0</asrwt>
<pdfrwt beam="2">  1        1 0.10331693E+00 0.20033263E+02</pdfrwt>
<pdfrwt beam="1">  1       -2 0.51087995E-02 0.41529601E+02</pdfrwt>
<totfact> 0.46195695E+03</totfact>
</mgrwt>
</event>
<event>
 5    1  0.7156190E-003  0.6639273E+02  0.7546771E-02  0.1437513E+00
         -2   -1    0    0    0  501 -0.00000000000E+00  0.00000000000E+00  0.11287833637E+03  0.11287833637E+03  0.00000000000E+00 0.  1.
          2   -1    0    0  502    0  0.00000000000E+00 -0.00000000000E+00 -0.17454413568E+03  0.17454413568E+03  0.00000000000E+00 0.  1.
         25    1    1    2    0    0  0.36684982306E+02 -0.75199966297E+02 -0.56519619148E+02  0.16068693228E+03  0.12500000000E+03 0.  0.
          2    1    1    2  502    0 -0.38488484268E+02  0.10589424611E+02 -0.37220700191E+02  0.54579115580E+02  0.00000000000E+00 0.  1.
         -2    1    1    2    0  501  0.18035019617E+01  0.64610541686E+02  0.32074520027E+02  0.72156424185E+02  0.00000000000E+00 0.  1.
<mgrwt>
<rscale>  0 0.51481148E+02</rscale>
<asrwt>0</asrwt>
<pdfrwt beam="2">  1        2 0.26852944E-01 0.39918659E+02</pdfrwt>
<pdfrwt beam="1">  1       -2 0.17365898E-01 0.66392726E+02</pdfrwt>
<totfact> 0.47389638E+03</totfact>
</mgrwt>
</event>
<event>
 5    1  0.7156190E-003  0.6299298E+02  0.7546771E-02  0.1503329E+00
          2   -1    0    0  501    0  0.00000000000E+00  0.00000000000E+00  0.12147944365E+04  0.12147944365E+04  0.00000000000E+00 0. -1.
          2   -1    0    0  502    0 -0.00000000000E+00 -0.00000000000E+00 -0.14989630730E+04  0.14989630730E+04  0.00000000000E+00 0. -1.
         25    1    1    2    0    0 -0.31470673120E+02  0.63097545476E+02  0.25901220017E+03  0.29611488201E+03  0.12500000000E+03 0.  0.
          2    1    1    2  501    0  0.46881887673E+02 -0.41836233582E+02  0.93606108531E+03  0.93816764880E+03  0.00000000000E+00 0. -1.
          2    1    1    2  502    0 -0.15411214553E+02 -0.21261311895E+02 -0.14792419219E+04  0.14794749787E+04  0.00000000000E+00 0. -1.
<mgrwt>
<rscale>  0 0.40671233E+02</rscale>
<asrwt>0</asrwt>
<pdfrwt beam="1">  1        2 0.18689145E+00 0.62992978E+02</pdfrwt>
<pdfrwt beam="2">  1        2 0.23060970E+00 0.26259263E+02</pdfrwt>
<totfact> 0.55903425E+01</totfact>
</mgrwt>
</event>
<event>
 5    1  0.7156190E-003  0.3983591E+03  0.7546771E-02  0.1302653E+00
          2   -1    0    0  501    0  0.00000000000E+00  0.00000000000E+00  0.14526219255E+04  0.14526219255E+04  0.00000000000E+00 0. -1.
          1   -1    0    0  502    0 -0.00000000000E+00 -0.00000000000E+00 -0.13022215154E+04  0.13022215154E+04  0.00000000000E+00 0. -1.
         25    1    1    2    0    0  0.28403286407E+01 -0.41504578687E+03 -0.60837919110E+03  0.74700824148E+03  0.12500000000E+03 0.  0.
          2    1    1    2  501    0  0.76548558085E+01  0.39758696432E+03  0.13545507595E+04  0.14117158889E+04  0.00000000000E+00 0. -1.
          1    1    1    2  502    0 -0.10495184449E+02  0.17458822553E+02 -0.59577115824E+03  0.59611931052E+03  0.00000000000E+00 0. -1.
<mgrwt>
<rscale>  0 0.90082159E+02</rscale>
<asrwt>0</asrwt>
<pdfrwt beam="1">  1        2 0.22348030E+00 0.39835913E+03</pdfrwt>
<pdfrwt beam="2">  1        1 0.20034177E+00 0.20370552E+02</pdfrwt>
<totfact> 0.23707775E+01</totfact>
</mgrwt>
</event>
<event>
 5    1  0.7156190E-003  0.3335681E+02  0.7546771E-02  0.1567372E+00
          2   -1    0    0  501    0  0.00000000000E+00  0.00000000000E+00  0.46075918322E+03  0.46075918322E+03  0.00000000000E+00 0. -1.
          2   -1    0    0  502    0 -0.00000000000E+00 -0.00000000000E+00 -0.96095773551E+02  0.96095773551E+02  0.00000000000E+00 0.  1.
         25    1    1    2    0    0  0.22790545248E+01 -0.15398990550E+02  0.90716345541E+02  0.15523137037E+03  0.12500000000E+03 0.  0.
          2    1    1    2  501    0 -0.33275216700E+02  0.23317148491E+01  0.33246084151E+03  0.33413004665E+03  0.00000000000E+00 0. -1.
          2    1    1    2  502    0  0.30996162175E+02  0.13067275701E+02 -0.58513777381E+02  0.67493539744E+02  0.00000000000E+00 0.  1.
<mgrwt>
<rscale>  0 0.32973294E+02</rscale>
<asrwt>0</asrwt>
<pdfrwt beam="1">  1        2 0.70886027E-01 0.33356813E+02</pdfrwt>
<pdfrwt beam="2">  1        2 0.14783965E-01 0.32594186E+02</pdfrwt>
<totfact> 0.38220149E+03</totfact>
</mgrwt>
</event>
<event>
 5    1  0.7156190E-003  0.7499875E+02  0.7546771E-02  0.1440588E+00
          2   -1    0    0  502    0  0.00000000000E+00  0.00000000000E+00  0.15789382152E+04  0.15789382152E+04  0.00000000000E+00 0. -1.
          2   -1    0    0  501    0 -0.00000000000E+00 -0.00000000000E+00 -0.29593689496E+03  0.29593689496E+03  0.00000000000E+00 0. -1.
         25    1    1    2    0    0 -0.76157616752E+02  0.29989064379E+02  0.26123009607E+03  0.30094100695E+03  0.12500000000E+03 0.  0.
          2    1    1    2  501    0  0.24462846880E+02  0.24375807137E+02 -0.27391225057E+03  0.27608066188E+03  0.00000000000E+00 0. -1.
          2    1    1    2  502    0  0.51694769872E+02 -0.54364871516E+02  0.12956834747E+04  0.12978534413E+04  0.00000000000E+00 0. -1.
<mgrwt>
<rscale>  0 0.50892254E+02</rscale>
<asrwt>0</asrwt>
<pdfrwt beam="1">  1        2 0.24291357E+00 0.74998746E+02</pdfrwt>
<pdfrwt beam="2">  1        2 0.45528754E-01 0.34534198E+02</pdfrwt>
<totfact> 0.23399678E+02</totfact>
</mgrwt>
</event>
<event>
 5    1  0.7156190E-003  0.4684052E+02  0.7546771E-02  0.1521251E+00
         -1   -1    0    0    0  501 -0.00000000000E+00  0.00000000000E+00  0.84848094495E+01  0.84848094495E+01  0.00000000000E+00 0.  1.
          1   -1    0    0  502    0  0.00000000000E+00 -0.00000000000E+00 -0.21621166924E+04  0.21621166924E+04  0.00000000000E+00 0. -1.
         25    1    1    2    0    0  0.24879740826E+02 -0.35836110802E+02 -0.17304887453E+04  0.17355458871E+04  0.12500000000E+03 0.  0.
          1    1    1    2  502    0 -0.50294657448E+02  0.17589214926E+02 -0.36644207551E+03  0.37029546008E+03  0.00000000000E+00 0. -1.
         -1    1    1    2    0  501  0.25414916622E+02  0.18246895876E+02 -0.56701062154E+02  0.64760154766E+02  0.00000000000E+00 0.  1.
<mgrwt>
<rscale>  0 0.38281750E+02</rscale>
<asrwt>0</asrwt>
<pdfrwt beam="2">  1        1 0.33263363E+00 0.46840517E+02</pdfrwt>
<pdfrwt beam="1">  1       -1 0.13053542E-02 0.31286853E+02</pdfrwt>
<totfact> 0.30535289E+03</totfact>
</mgrwt>
</event>
<event>
 5    1  0.7156190E-003  0.9778977E+02  0.7546771E-02  0.1371401E+00
          2   -1    0    0  502    0  0.00000000000E+00  0.00000000000E+00  0.92099826692E+03  0.92099826692E+03  0.00000000000E+00 0. -1.
         -3   -1    0    0    0  501 -0.00000000000E+00 -0.00000000000E+00 -0.20633227583E+03  0.20633227583E+03  0.00000000000E+00 0.  1.
         25    1    1    2    0    0  0.56297650858E+02 -0.59885900143E+02 -0.12025213388E+03  0.19194093423E+03  0.12500000000E+03 0.  0.
          2    1    1    2  502    0 -0.92715957535E+02  0.32439662790E+02  0.87144399212E+03  0.87696249173E+03  0.00000000000E+00 0. -1.
         -3    1    1    2    0  501  0.36418306676E+02  0.27446237353E+02 -0.36525867138E+02  0.58427116789E+02  0.00000000000E+00 0.  1.
<mgrwt>
<rscale>  0 0.66779182E+02</rscale>
<asrwt>0</asrwt>
<pdfrwt beam="1">  1        2 0.14169204E+00 0.97789771E+02</pdfrwt>
<pdfrwt beam="2">  1       -3 0.31743428E-01 0.45602511E+02</pdfrwt>
<totfact> 0.16496648E+02</totfact>
</mgrwt>
</event>
<event>
 5    1  0.7156190E-003  0.5343526E+02  0.7546771E-02  0.1495081E+00
          1   -1    0    0  502    0  0.00000000000E+00  0.00000000000E+00  0.23572626452E+04  0.23572626452E+04  0.00000000000E+00 0. -1.
         -2   -1    0    0    0  501 -0.00000000000E+00 -0.00000000000E+00 -0.59525222218E+01  0.59525222218E+01  0.00000000000E+00 0.  1.
         25    1    1    2    0    0 -0.49545581271E+02 -0.35854589689E+02  0.17536538318E+04  0.17591665862E+04  0.12500000000E+03 0.  0.
          1    1    1    2  502    0 -0.38271269412E+01  0.32539034545E+02  0.28169853809E+03  0.28359742953E+03  0.00000000000E+00 0. -1.
         -2    1    1    2    0  501  0.53372708212E+02  0.33155551442E+01  0.31595775317E+03  0.32045115178E+03  0.00000000000E+00 0.  1.
<mgrwt>
<rscale>  0 0.41841568E+02</rscale>
<asrwt>0</asrwt>
<pdfrwt beam="1">  1        1 0.36265505E+00 0.32763328E+02</pdfrwt>
<pdfrwt beam="2">  1       -2 0.91577453E-03 0.53435257E+02</pdfrwt>
<totfact> 0.44101051E+03</totfact>
</mgrwt>
</event>
<event>
 5    1  0.7156190E-003  0.6475991E+02  0.7546771E-02  0.1404168E+00
          1   -1    0    0  502    0 -0.00000000000E+00  0.00000000000E+00  0.31230026735E+04  0.31230026735E+04  0.00000000000E+00 0. -1.
          2   -1    0    0  501    0  0.00000000000E+00 -0.00000000000E+00 -0.12037933805E+02  0.12037933805E+02  0.00000000000E+00 0. -1.
         25    1    1    2    0    0 -0.35044440930E+02 -0.39479241167E+02  0.13935845867E+04  0.14001748904E+04  0.12500000000E+03 0.  0.
          2    1    1    2  501    0  0.42691220759E+02 -0.31194192897E+02  0.79700938471E+02  0.95644433156E+02  0.00000000000E+00 0. -1.
          1    1    1    2  502    0 -0.76467798291E+01  0.70673434064E+02  0.16376792145E+04  0.16392212838E+04  0.00000000000E+00 0. -1.
<mgrwt>
<rscale>  0 0.58515723E+02</rscale>
<asrwt>0</asrwt>
<pdfrwt beam="2">  1        2 0.18519923E-02 0.52873604E+02</pdfrwt>
<pdfrwt beam="1">  1        1 0.48046131E+00 0.64759910E+02</pdfrwt>
<totfact> 0.51025263E+02</totfact>
</mgrwt>
</event>
<event>
 5    1  0.7156190E-003  0.1287486E+03  0.7546771E-02  0.1314795E+00
          1   -1    0    0  502    0 -0.00000000000E+00  0.00000000000E+00  0.66452224300E+02  0.66452224300E+02  0.00000000000E+00 0. -1.
          2   -1    0    0  501    0  0.00000000000E+00 -0.00000000000E+00 -0.17152149495E+04  0.17152149495E+04  0.00000000000E+00 0. -1.
         25    1    1    2    0    0 -0.31490900638E+02  0.87654874272E+02 -0.37702877610E+03  0.40798376415E+03  0.12500000000E+03 0.  0.
          2    1    1    2  501    0  0.57495290179E+01 -0.13788293524E+03 -0.13022364032E+04  0.13095283161E+04  0.00000000000E+00 0. -1.
          1    1    1    2  502    0  0.25741371620E+02  0.50228060971E+02  0.30502454082E+02  0.64155093538E+02  0.00000000000E+00 0. -1.
<mgrwt>
<rscale>  0 0.85244205E+02</rscale>
<asrwt>0</asrwt>
<pdfrwt beam="2">  1        2 0.26387925E+00 0.12874861E+03</pdfrwt>
<pdfrwt beam="1">  1        1 0.10223418E-01 0.56440024E+02</pdfrwt>
<totfact> 0.86277204E+02</totfact>
</mgrwt>
</event>
<event>
 5    1  0.7156190E-003  0.7534240E+02  0.7546771E-02  0.1420442E+00
          2   -1    0    0  502    0  0.00000000000E+00  0.00000000000E+00  0.55069716361E+03  0.55069716361E+03  0.00000000000E+00 0. -1.
         -2   -1    0    0    0  501 -0.00000000000E+00 -0.00000000000E+00 -0.84377129648E+03  0.84377129648E+03  0.00000000000E+00 0.  1.
         25    1    1    2    0    0 -0.19125272640E+01  0.71870390641E+02  0.88801545859E+02  0.16935089418E+03  0.12500000000E+03 0.  0.
          2    1    1    2  502    0 -0.37768653400E+02 -0.66490540206E+02  0.41764847649E+03  0.42459123052E+03  0.00000000000E+00 0. -1.
         -2    1    1    2    0  501  0.39681180664E+02 -0.53798504356E+01 -0.79952415522E+03  0.80052633540E+03  0.00000000000E+00 0.  1.
<mgrwt>
<rscale>  0 0.54927472E+02</rscale>
<asrwt>0</asrwt>
<pdfrwt beam="1">  1        2 0.84722641E-01 0.75342403E+02</pdfrwt>
<pdfrwt beam="2">  1       -2 0.12981097E+00 0.40044212E+02</pdfrwt>
<totfact> 0.28542099E+01</totfact>
</mgrwt>
</event>
<event>
 5    1  0.7156190E-003  0.1593725E+03  0.7546771E-02  0.1275927E+00
          2   -1    0    0  501    0  0.00000000000E+00  0.00000000000E+00  0.61420216921E+03  0.61420216921E+03  0.00000000000E+00 0. -1.
          1   -1    0    0  502    0 -0.00000000000E+00 -0.00000000000E+00 -0.37272456042E+03  0.37272456042E+03  0.00000000000E+00 0. -1.
         25    1    1    2    0    0  0.10414695755E+03 -0.36294393886E+02  0.32914476358E+03  0.36895141576E+03  0.12500000000E+03 0.  0.
          2    1    1    2  501    0  0.58022130315E+02  0.30215210755E+02  0.24191607678E+03  0.25060509726E+03  0.00000000000E+00 0. -1.
          1    1    1    2  502    0 -0.16216908787E+03  0.60791831311E+01 -0.32958323156E+03  0.36737021661E+03  0.00000000000E+00 0. -1.
<mgrwt>
<rscale>  0 0.10210702E+03</rscale>
<asrwt>0</asrwt>
<pdfrwt beam="1">  1        2 0.94492641E-01 0.65418091E+02</pdfrwt>
<pdfrwt beam="2">  1        1 0.57342240E-01 0.15937248E+03</pdfrwt>
<totfact> 0.46259422E+02</totfact>
</mgrwt>
</event>
<event>
 5    1  0.7156190E-003  0.4939096E+02  0.7546771E-02  0.1557560E+00
          1   -1    0    0  502    0  0.00000000000E+00  0.00000000000E+00  0.92775266200E+02  0.92775266200E+02  0.00000000000E+00 0. -1.
         -2   -1    0    0    0  501 -0.00000000000E+00 -0.00000000000E+00 -0.14511835941E+04  0.14511835941E+04  0.00000000000E+00 0.  1.
         25    1    1    2    0    0 -0.45414713853E+02 -0.24565176567E+02 -0.72623503173E+02  0.15350933961E+03  0.12500000000E+03 0.  0.
          1    1    1    2  502    0 -0.39900231296E+01  0.23078232976E+02  0.49231518368E+02  0.54518506241E+02  0.00000000000E+00 0. -1.
         -2    1    1    2    0  501  0.49404736983E+02  0.14869435910E+01 -0.13350163431E+04  0.13359310145E+04  0.00000000000E+00 0.  1.
<mgrwt>
<rscale>  0 0.34011270E+02</rscale>
<asrwt>0</asrwt>
<pdfrwt beam="1">  1        1 0.14273118E-01 0.23420613E+02</pdfrwt>
<pdfrwt beam="2">  1       -2 0.22325902E+00 0.49390957E+02</pdfrwt>
<totfact> 0.36421110E+01</totfact>
</mgrwt>
</event>
<event>
 5    1  0.7156190E-003  0.1081403E+03  0.7546771E-02  0.1457281E+00
          1   -1    0    0  502    0  0.00000000000E+00  0.00000000000E+00  0.10038350151E+04  0.10038350151E+04  0.00000000000E+00 0. -1.
         -1   -1    0    0    0  501 -0.00000000000E+00 -0.00000000000E+00 -0.65153439786E+02  0.65153439786E+02  0.00000000000E+00 0.  1.
         25    1    1    2    0    0 -0.81214382360E+00 -0.10094291433E+03  0.63759283292E+03  0.65752547641E+03  0.12500000000E+03 0.  0.
          1    1    1    2  502    0 -0.20348119347E+02 -0.58592647222E+01  0.30184035837E+03  0.30258218533E+03  0.00000000000E+00 0. -1.
         -1    1    1    2    0  501  0.21160263170E+02  0.10680217905E+03 -0.75161597982E+00  0.10888079314E+03  0.00000000000E+00 0.  1.
<mgrwt>
<rscale>  0 0.47852499E+02</rscale>
<asrwt>0</asrwt>
<pdfrwt beam="1">  1        1 0.15443614E+00 0.21174913E+02</pdfrwt>
<pdfrwt beam="2">  1       -1 0.10023607E-01 0.10814031E+03</pdfrwt>
<totfact> 0.10861712E+03</totfact>
</mgrwt>
</event>
<event>
 5    1  0.7156190E-003  0.1242433E+03  0.7546771E-02  0.1440452E+00
         -1   -1    0    0    0  501 -0.00000000000E+00  0.00000000000E+00  0.68035039438E+02  0.68035039438E+02  0.00000000000E+00 0.  1.
          2   -1    0    0  502    0  0.00000000000E+00 -0.00000000000E+00 -0.42496361053E+03  0.42496361053E+03  0.00000000000E+00 0. -1.
         25    1    1    2    0    0  0.52953897629E+02 -0.12140822107E+03 -0.16350989296E+03  0.24475407354E+03  0.12500000000E+03 0.  0.
          2    1    1    2  502    0 -0.63244096788E+02  0.10325425525E+03 -0.19242753809E+03  0.22735350101E+03  0.00000000000E+00 0. -1.
         -1    1    1    2    0  501  0.10290199160E+02  0.18153965817E+02 -0.99114004323E+00  0.20891075420E+02  0.00000000000E+00 0.  1.
<mgrwt>
<rscale>  0 0.50918109E+02</rscale>
<asrwt>0</asrwt>
<pdfrwt beam="2">  1        2 0.65379015E-01 0.12424332E+03</pdfrwt>
<pdfrwt beam="1">  1       -1 0.10466929E-01 0.20867551E+02</pdfrwt>
<totfact> 0.40246669E+03</totfact>
</mgrwt>
</event>
<event>
 5    1  0.7156190E-003  0.1617415E+03  0.7546771E-02  0.1217910E+00
          2   -1    0    0  501    0  0.00000000000E+00  0.00000000000E+00  0.19477207910E+04  0.19477207910E+04  0.00000000000E+00 0. -1.
          2   -1    0    0  502    0 -0.00000000000E+00 -0.00000000000E+00 -0.28961524199E+04  0.28961524199E+04  0.00000000000E+00 0. -1.
         25    1    1    2    0    0 -0.88337901799E+02 -0.14914732677E+03 -0.62992136203E+03  0.66518751666E+03  0.12500000000E+03 0.  0.
          2    1    1    2  501    0 -0.26629789698E+02  0.15968826211E+03  0.19252061138E+04  0.19320010527E+04  0.00000000000E+00 0. -1.
          2    1    1    2  502    0  0.11496769150E+03 -0.10540935343E+02 -0.22437163808E+04  0.22466846416E+04  0.00000000000E+00 0. -1.
<mgrwt>
<rscale>  0 0.13664935E+03</rscale>
<asrwt>0</asrwt>
<pdfrwt beam="1">  1        2 0.29964935E+00 0.16174153E+03</pdfrwt>
<pdfrwt beam="2">  1        2 0.44556191E+00 0.11544991E+03</pdfrwt>
<totfact> 0.35534969E+00</totfact>
</mgrwt>
</event>
<event>
 5    1  0.7156190E-003  0.1363563E+03  0.7546771E-02  0.1381586E+00
          2   -1    0    0  501    0  0.00000000000E+00  0.00000000000E+00  0.81322916351E+03  0.81322916351E+03  0.00000000000E+00 0. -1.
          2   -1    0    0  502    0 -0.00000000000E+00 -0.00000000000E+00 -0.12580168801E+04  0.12580168801E+04  0.00000000000E+00 0.  1.
         25    1    1    2    0    0 -0.53355766558E+01  0.16237015914E+03 -0.26370373932E+03  0.33400179504E+03  0.12500000000E+03 0.  0.
          2    1    1    2  501    0 -0.83795070717E+01 -0.13559365176E+03  0.77191101974E+03  0.78377450643E+03  0.00000000000E+00 0. -1.
          2    1    1    2  502    0  0.13715083728E+02 -0.26776507381E+02 -0.95299499699E+03  0.95346974212E+03  0.00000000000E+00 0.  1.
<mgrwt>
<rscale>  0 0.64048648E+02</rscale>
<asrwt>0</asrwt>
<pdfrwt beam="1">  1        2 0.12511218E+00 0.13635632E+03</pdfrwt>
<pdfrwt beam="2">  1        2 0.19354106E+00 0.30084628E+02</pdfrwt>
<totfact> 0.11988326E+02</totfact>
</mgrwt>
</event>
<event>
 5    1  0.7156190E-003  0.1076608E+03  0.7546771E-02  0.1294646E+00
         -3   -1    0    0    0  501 -0.00000000000E+00  0.00000000000E+00  0.45145932685E+02  0.45145932685E+02  0.00000000000E+00 0.  1.
          2   -1    0    0  502    0  0.00000000000E+00 -0.00000000000E+00 -0.18598326902E+04  0.18598326902E+04  0.00000000000E+00 0.  1.
         25    1    1    2    0    0  0.19196610106E+02  0.48022330068E+02 -0.43326550403E+03  0.45389277479E+03  0.12500000000E+03 0.  0.
          2    1    1    2  502    0 -0.31867975920E+02  0.74641649343E+02 -0.13017361152E+04  0.13042637223E+04  0.00000000000E+00 0.  1.
         -3    1    1    2    0  501  0.12671365814E+02 -0.12266397941E+03 -0.79685138276E+02  0.14682212578E+03  0.00000000000E+00 0.  1.
<mgrwt>
<rscale>  0 0.93475918E+02</rscale>
<asrwt>0</asrwt>
<pdfrwt beam="2">  1        2 0.28612801E+00 0.81159988E+02</pdfrwt>
<pdfrwt beam="1">  1       -3 0.69455304E-02 0.10766078E+03</pdfrwt>
<totfact> 0.76582374E+02</totfact>
</mgrwt>
</event>
<event>
 5    1  0.7156190E-003  0.1117297E+03  0.7546771E-02  0.1265722E+00
         -1   -1    0    0    0  501  0.00000000000E+00  0.00000000000E+00  0.17354254859E+04  0.17354254859E+04  0.00000000000E+00 0.  1.
         -1   -1    0    0    0  502 -0.00000000000E+00 -0.00000000000E+00 -0.10438152580E+03  0.10438152580E+03  0.00000000000E+00 0.  1.
         25    1    1    2    0    0 -0.86635555842E+02 -0.10214643743E+03  0.17901629694E+03  0.25614731852E+03  0.12500000000E+03 0.  0.
         -1    1    1    2    0  501  0.10230198449E+03 -0.11771133426E+02  0.14643909527E+04  0.14680071927E+04  0.00000000000E+00 0.  1.
         -1    1    1    2    0  502 -0.15666428652E+02  0.11391757086E+03 -0.12363289499E+02  0.11565250047E+03  0.00000000000E+00 0.  1.
<mgrwt>
<rscale>  0 0.10726408E+03</rscale>
<asrwt>0</asrwt>
<pdfrwt beam="1">  1       -1 0.26698851E+00 0.10297697E+03</pdfrwt>
<pdfrwt beam="2">  1       -1 0.16058698E-01 0.11172968E+03</pdfrwt>
<totfact> 0.16247657E+01</totfact>
</mgrwt>
</event>
<event>
 5    1  0.7156190E-003  0.3860196E+02  0.7546771E-02  0.1604480E+00
          2   -1    0    0  502    0  0.00000000000E+00  0.00000000000E+00  0.86658472969E+03  0.86658472969E+03  0.00000000000E+00 0. -1.
          2   -1    0    0  501    0 -0.00000000000E+00 -0.00000000000E+00 -0.59701617338E+03  0.59701617338E+03  0.00000000000E+00 0. -1.
         25    1    1    2    0    0 -0.31216328888E+01 -0.55224474478E+02  0.73128031609E+03  0.74394582321E+03  0.12500000000E+03 0.  0.
          2    1    1    2  501    0 -0.78937849367E+00  0.22422884221E+02 -0.58835080637E+03  0.58877846446E+03  0.00000000000E+00 0. -1.
          2    1    1    2  502    0  0.39110113825E+01  0.32801590257E+02  0.12663904660E+03  0.13087661540E+03  0.00000000000E+00 0. -1.
<mgrwt>
<rscale>  0 0.29429637E+02</rscale>
<asrwt>0</asrwt>
<pdfrwt beam="1">  1        2 0.13332073E+00 0.38601961E+02</pdfrwt>
<pdfrwt beam="2">  1        2 0.91848643E-01 0.22436775E+02</pdfrwt>
<totfact> 0.28934870E+02</totfact>
</mgrwt>
</event>
<event>
 5    1  0.7156190E-003  0.6592874E+02  0.7546771E-02  0.1408023E+00
         -1   -1    0    0    0  501 -0.00000000000E+00  0.00000000000E+00  0.24403396038E+03  0.24403396038E+03  0.00000000000E+00 0.  1.
          2   -1    0    0  502    0  0.00000000000E+00 -0.00000000000E+00 -0.81232196416E+02  0.81232196416E+02  0.00000000000E+00 0. -1.
         25    1    1    2    0    0 -0.86949973819E+02 -0.34664476505E+02  0.10495502795E+03  0.18815547234E+03  0.12500000000E+03 0.  0.
          2    1    1    2  502    0  0.27220169242E+02  0.42403808138E+02 -0.42943073434E+01  0.50571351907E+02  0.00000000000E+00 0. -1.
         -1    1    1    2    0  501  0.59729804577E+02 -0.77393316326E+01  0.62141043367E+02  0.86539332558E+02  0.00000000000E+00 0.  1.
<mgrwt>
<rscale>  0 0.57637341E+02</rscale>
<asrwt>0</asrwt>
<pdfrwt beam="2">  1        2 0.12497261E-01 0.50388695E+02</pdfrwt>
<pdfrwt beam="1">  1       -1 0.37543686E-01 0.65928739E+02</pdfrwt>
<totfact> 0.34615198E+03</totfact>
</mgrwt>
</event>
<event>
 5    1  0.7156190E-003  0.5886528E+02  0.7546771E-02  0.1445052E+00
         -1   -1    0    0    0  501 -0.00000000000E+00  0.00000000000E+00  0.17901969532E+02  0.17901969532E+02  0.00000000000E+00 0.  1.
          2   -1    0    0  502    0  0.00000000000E+00 -0.00000000000E+00 -0.96167043028E+03  0.96167043028E+03  0.00000000000E+00 0. -1.
         25    1    1    2    0    0 -0.74332452615E+02 -0.14421194642E+02 -0.63870842176E+03  0.65521502760E+03  0.12500000000E+03 0.  0.
          2    1    1    2  502    0  0.39637453297E+02  0.39073085439E+02 -0.24172622840E+03  0.24805121086E+03  0.00000000000E+00 0. -1.
         -1    1    1    2    0  501  0.34694999318E+02 -0.24651890797E+02 -0.63333810585E+02  0.76306161355E+02  0.00000000000E+00 0.  1.
<mgrwt>
<rscale>  0 0.50053762E+02</rscale>
<asrwt>0</asrwt>
<pdfrwt beam="2">  1        2 0.14794932E+00 0.58865283E+02</pdfrwt>
<pdfrwt beam="1">  1       -1 0.27541487E-02 0.42561235E+02</pdfrwt>
<totfact> 0.11661216E+04</totfact>
</mgrwt>
</event>
<event>
 5    1  0.7156190E-003  0.7614110E+02  0.7546771E-02  0.1346925E+00
          2   -1    0    0  501    0  0.00000000000E+00  0.00000000000E+00  0.72850168005E+03  0.72850168005E+03  0.00000000000E+00 0.  1.
          1   -1    0    0  502    0 -0.00000000000E+00 -0.00000000000E+00 -0.23299467657E+03  0.23299467657E+03  0.00000000000E+00 0.  1.
         25    1    1    2    0    0  0.11063707925E+02 -0.15327302452E+02  0.81768839702E+02  0.15056053593E+03  0.12500000000E+03 0.  0.
          2    1    1    2  501    0 -0.81297782591E+02 -0.35184796427E+00  0.60299930443E+03  0.60845510466E+03  0.00000000000E+00 0.  1.
          1    1    1    2  502    0  0.70234074667E+02  0.15679150416E+02 -0.18926114065E+03  0.20248071603E+03  0.00000000000E+00 0.  1.
<mgrwt>
<rscale>  0 0.74022533E+02</rscale>
<asrwt>0</asrwt>
<pdfrwt beam="1">  1        2 0.11207718E+00 0.76141099E+02</pdfrwt>
<pdfrwt beam="2">  1        1 0.35845335E-01 0.71962914E+02</pdfrwt>
<totfact> 0.67585186E+02</totfact>
</mgrwt>
</event>
<event>
 5    1  0.7156190E-003  0.1126159E+03  0.7546771E-02  0.1383200E+00
          3   -1    0    0  502    0  0.00000000000E+00  0.00000000000E+00  0.30270774410E+03  0.30270774410E+03  0.00000000000E+00 0. -1.
         -2   -1    0    0    0  501 -0.00000000000E+00 -0.00000000000E+00 -0.27571114350E+03  0.27571114350E+03  0.00000000000E+00 0.  1.
         25    1    1    2    0    0  0.97725542517E+02  0.28753043048E+02 -0.10138678779E+03  0.19047650743E+03  0.12500000000E+03 0.  0.
          3    1    1    2  502    0 -0.11391009264E+03  0.33503017762E+01  0.24269056383E+03  0.26811460889E+03  0.00000000000E+00 0. -1.
         -2    1    1    2    0  501  0.16184550125E+02 -0.32103344825E+02 -0.11430717544E+03  0.11982777128E+03  0.00000000000E+00 0.  1.
<mgrwt>
<rscale>  0 0.63630150E+02</rscale>
<asrwt>0</asrwt>
<pdfrwt beam="1">  1        3 0.46570422E-01 0.11261592E+03</pdfrwt>
<pdfrwt beam="2">  1       -2 0.42417099E-01 0.35952252E+02</pdfrwt>
<totfact> 0.93882305E+01</totfact>
</mgrwt>
</event>
<event>
 5    1  0.7156190E-003  0.9109507E+02  0.7546771E-02  0.1389691E+00
         -2   -1    0    0    0  501 -0.00000000000E+00  0.00000000000E+00  0.72555311368E+02  0.72555311368E+02  0.00000000000E+00 0.  1.
          1   -1    0    0  502    0  0.00000000000E+00 -0.00000000000E+00 -0.10513738119E+04  0.10513738119E+04  0.00000000000E+00 0. -1.
         25    1    1    2    0    0 -0.11794679207E+03  0.39182535741E+02 -0.40229733928E+03  0.43922074867E+03  0.12500000000E+03 0.  0.
          1    1    1    2  502    0  0.75795683367E+02 -0.40609218678E+02 -0.61894378422E+03  0.62488839187E+03  0.00000000000E+00 0. -1.
         -2    1    1    2    0  501  0.42151108702E+02  0.14266829374E+01  0.42422623001E+02  0.59819982708E+02  0.00000000000E+00 0.  1.
<mgrwt>
<rscale>  0 0.61983522E+02</rscale>
<asrwt>0</asrwt>
<pdfrwt beam="2">  1        1 0.16174982E+00 0.91095071E+02</pdfrwt>
<pdfrwt beam="1">  1       -2 0.11162356E-01 0.42175246E+02</pdfrwt>
<totfact> 0.68611662E+02</totfact>
</mgrwt>
</event>
<event>
 5    1  0.7156190E-003  0.7601404E+02  0.7546771E-02  0.1383139E+00
         -1   -1    0    0    0  501 -0.00000000000E+00  0.00000000000E+00  0.15838036631E+03  0.15838036631E+03  0.00000000000E+00 0.  1.
          2   -1    0    0  502    0  0.00000000000E+00 -0.00000000000E+00 -0.13321277277E+03  0.13321277277E+03  0.00000000000E+00 0. -1.
         25    1    1    2    0    0  0.51253234575E+02 -0.83588191534E+02  0.37813666544E+02  0.16330570473E+03  0.12500000000E+03 0.  0.
          2    1    1    2  502    0  0.10930450934E+02  0.52156925659E+02 -0.22637365593E+02  0.57898790771E+02  0.00000000000E+00 0. -1.
         -1    1    1    2    0  501 -0.62183685509E+02  0.31431265876E+02  0.99912925881E+01  0.70388643584E+02  0.00000000000E+00 0.  1.
<mgrwt>
<rscale>  0 0.63645776E+02</rscale>
<asrwt>0</asrwt>
<pdfrwt beam="2">  1        2 0.20494273E-01 0.53289958E+02</pdfrwt>
<pdfrwt beam="1">  1       -1 0.24366210E-01 0.76014035E+02</pdfrwt>
<totfact> 0.40790548E+03</totfact>
</mgrwt>
</event>
<event>
 5    1  0.7156190E-003  0.4706791E+02  0.7546771E-02  0.1541611E+00
          1   -1    0    0  502    0  0.00000000000E+00  0.00000000000E+00  0.65153578692E+03  0.65153578692E+03  0.00000000000E+00 0. -1.
         -1   -1    0    0    0  501 -0.00000000000E+00 -0.00000000000E+00 -0.35742756858E+03  0.35742756858E+03  0.00000000000E+00 0.  1.
         25    1    1    2    0    0 -0.47819307779E+02 -0.97461979489E+01  0.19649932978E+03  0.23794676122E+03  0.12500000000E+03 0.  0.
          1    1    1    2  502    0  0.44175486308E+02 -0.17238144786E+02  0.43246409807E+03  0.43505611517E+03  0.00000000000E+00 0. -1.
         -1    1    1    2    0  501  0.36438214712E+01  0.26984342735E+02 -0.33485520951E+03  0.33596047911E+03  0.00000000000E+00 0.  1.
<mgrwt>
<rscale>  0 0.35799776E+02</rscale>
<asrwt>0</asrwt>
<pdfrwt beam="1">  1        1 0.10023627E+00 0.47067909E+02</pdfrwt>
<pdfrwt beam="2">  1       -1 0.54988857E-01 0.27229252E+02</pdfrwt>
<totfact> 0.11863190E+02</totfact>
</mgrwt>
</event>
<event>
 5    1  0.7156190E-003  0.6922837E+02  0.7546771E-02  0.1480636E+00
          2   -1    0    0  501    0  0.00000000000E+00  0.00000000000E+00  0.12091285091E+04  0.12091285091E+04  0.00000000000E+00 0. -1.
          1   -1    0    0  502    0 -0.00000000000E+00 -0.00000000000E+00 -0.11564211353E+03  0.11564211353E+03  0.00000000000E+00 0. -1.
         25    1    1    2    0    0  0.25307279160E+02 -0.33896889282E+02  0.51696454798E+03  0.53354175221E+03  0.12500000000E+03 0.  0.
          2    1    1    2  501    0  0.21479619029E+02 -0.17922280348E+02  0.67220267924E+03  0.67278453025E+03  0.00000000000E+00 0. -1.
          1    1    1    2  502    0 -0.46786898189E+02  0.51819169630E+02 -0.95680831624E+02  0.11844434019E+03  0.00000000000E+00 0. -1.
<mgrwt>
<rscale>  0 0.44007282E+02</rscale>
<asrwt>0</asrwt>
<pdfrwt beam="1">  1        2 0.18601976E+00 0.27974670E+02</pdfrwt>
<pdfrwt beam="2">  1        1 0.17791095E-01 0.69228371E+02</pdfrwt>
<totfact> 0.88135865E+02</totfact>
</mgrwt>
</event>
<event>
 5    1  0.7156190E-003  0.4615399E+02  0.7546771E-02  0.1477478E+00
          1   -1    0    0  502    0  0.00000000000E+00  0.00000000000E+00  0.18907493123E+04  0.18907493123E+04  0.00000000000E+00 0. -1.
          1   -1    0    0  501    0 -0.00000000000E+00 -0.00000000000E+00 -0.21171695349E+03  0.21171695349E+03  0.00000000000E+00 0. -1.
         25    1    1    2    0    0  0.24929542594E+02  0.85210103233E+02  0.55213204462E+03  0.57302446587E+03  0.12500000000E+03 0.  0.
          1    1    1    2  501    0 -0.14715396537E+02 -0.43535512939E+02 -0.19829578673E+03  0.20355122897E+03  0.00000000000E+00 0. -1.
          1    1    1    2  502    0 -0.10214146057E+02 -0.41674590295E+02  0.13251961010E+04  0.13258905710E+04  0.00000000000E+00 0. -1.
<mgrwt>
<rscale>  0 0.44501434E+02</rscale>
<asrwt>0</asrwt>
<pdfrwt beam="1">  1        1 0.29088450E+00 0.42908044E+02</pdfrwt>
<pdfrwt beam="2">  1        1 0.32571840E-01 0.46153995E+02</pdfrwt>
<totfact> 0.78674961E+01</totfact>
</mgrwt>
</event>
<event>
 5    1  0.7156190E-003  0.1047111E+03  0.7546771E-02  0.1369967E+00
          2   -1    0    0  502    0  0.00000000000E+00  0.00000000000E+00  0.80799885137E+03  0.80799885137E+03  0.00000000000E+00 0. -1.
         -1   -1    0    0    0  501 -0.00000000000E+00 -0.00000000000E+00 -0.36325885757E+02  0.36325885757E+02  0.00000000000E+00 0.  1.
         25    1    1    2    0    0 -0.25521920109E+02 -0.13289346847E+03  0.37635774147E+03  0.41902528794E+03  0.12500000000E+03 0.  0.
          2    1    1    2  502    0  0.73691475412E+01  0.42461480600E+02  0.24634635730E+03  0.25008760350E+03  0.00000000000E+00 0. -1.
         -1    1    1    2    0  501  0.18152772568E+02  0.90431987866E+02  0.14896886685E+03  0.17521184569E+03  0.00000000000E+00 0.  1.
<mgrwt>
<rscale>  0 0.67176248E+02</rscale>
<asrwt>0</asrwt>
<pdfrwt beam="1">  1        2 0.12430750E+00 0.43096191E+02</pdfrwt>
<pdfrwt beam="2">  1       -1 0.55885984E-02 0.10471107E+03</pdfrwt>
<totfact> 0.58788873E+03</totfact>
</mgrwt>
</event>
<event>
 5    1  0.7156190E-003  0.2872118E+03  0.7546771E-02  0.1152521E+00
          2   -1    0    0  502    0  0.00000000000E+00  0.00000000000E+00  0.11836549258E+04  0.11836549258E+04  0.00000000000E+00 0. -1.
          2   -1    0    0  501    0 -0.00000000000E+00 -0.00000000000E+00 -0.49136920651E+03  0.49136920651E+03  0.00000000000E+00 0. -1.
         25    1    1    2    0    0  0.40139399119E+03  0.20584320474E+02  0.16982312252E+03  0.45387855573E+03  0.12500000000E+03 0.  0.
          2    1    1    2  501    0 -0.26805085404E+03 -0.10727093599E+01 -0.29155310766E+03  0.39605002922E+03  0.00000000000E+00 0. -1.
          2    1    1    2  502    0 -0.13334313715E+03 -0.19511611114E+02  0.81401570448E+03  0.82509554740E+03  0.00000000000E+00 0. -1.
<mgrwt>
<rscale>  0 0.19673727E+03</rscale>
<asrwt>0</asrwt>
<pdfrwt beam="1">  1        2 0.18210076E+00 0.13476311E+03</pdfrwt>
<pdfrwt beam="2">  1        2 0.75595262E-01 0.28721178E+03</pdfrwt>
<totfact> 0.21052168E+02</totfact>
</mgrwt>
</event>
<event>
 5    1  0.7156190E-003  0.9954978E+02  0.7546771E-02  0.1372457E+00
          1   -1    0    0  502    0  0.00000000000E+00  0.00000000000E+00  0.14824820685E+04  0.14824820685E+04  0.00000000000E+00 0. -1.
          1   -1    0    0  501    0 -0.00000000000E+00 -0.00000000000E+00 -0.70814040781E+03  0.70814040781E+03  0.00000000000E+00 0. -1.
         25    1    1    2    0    0  0.74565178448E+02 -0.10535811924E+03  0.70389466563E+02  0.19297662068E+03  0.12500000000E+03 0.  0.
          1    1    1    2  501    0  0.31453097532E+01  0.44296095883E+02 -0.64427377237E+03  0.64580239303E+03  0.00000000000E+00 0. -1.
          1    1    1    2  502    0 -0.77710488201E+02  0.61062023357E+02  0.13482259665E+04  0.13518434626E+04  0.00000000000E+00 0. -1.
<mgrwt>
<rscale>  0 0.66488865E+02</rscale>
<asrwt>0</asrwt>
<pdfrwt beam="1">  1        1 0.22807416E+00 0.99549779E+02</pdfrwt>
<pdfrwt beam="2">  1        1 0.10894468E+00 0.44407624E+02</pdfrwt>
<totfact> 0.29119120E+01</totfact>
</mgrwt>
</event>
<event>
 5    1  0.7156190E-003  0.1011226E+03  0.7546771E-02  0.1447231E+00
          2   -1    0    0  502    0  0.00000000000E+00  0.00000000000E+00  0.96265726889E+01  0.96265726889E+01  0.00000000000E+00 0. -1.
         -2   -1    0    0    0  501 -0.00000000000E+00 -0.00000000000E+00 -0.22152271127E+04  0.22152271127E+04  0.00000000000E+00 0.  1.
         25    1    1    2    0    0 -0.93459517161E+02  0.22614979638E+01 -0.98642998117E+03  0.99870361143E+03  0.12500000000E+03 0.  0.
          2    1    1    2  502    0 -0.85759638053E+01  0.22820766894E+02 -0.17157920337E+03  0.17330250312E+03  0.00000000000E+00 0. -1.
         -2    1    1    2    0  501  0.10203548097E+03 -0.25082264858E+02 -0.10475913555E+04  0.10528475709E+04  0.00000000000E+00 0.  1.
<mgrwt>
<rscale>  0 0.49651437E+02</rscale>
<asrwt>0</asrwt>
<pdfrwt beam="1">  1        2 0.14810118E-02 0.24378978E+02</pdfrwt>
<pdfrwt beam="2">  1       -2 0.34080403E+00 0.10112258E+03</pdfrwt>
<totfact> 0.13821223E+02</totfact>
</mgrwt>
</event>
<event>
 5    1  0.7156190E-003  0.7645723E+02  0.7546771E-02  0.1349093E+00
          1   -1    0    0  502    0  0.00000000000E+00  0.00000000000E+00  0.10580714540E+03  0.10580714540E+03  0.00000000000E+00 0. -1.
          1   -1    0    0  501    0 -0.00000000000E+00 -0.00000000000E+00 -0.14756179401E+04  0.14756179401E+04  0.00000000000E+00 0. -1.
         25    1    1    2    0    0 -0.11925211737E+02  0.14243321067E+03 -0.39464947265E+03  0.43795277877E+03  0.12500000000E+03 0.  0.
          1    1    1    2  501    0  0.57263195817E+01 -0.72359066236E+02 -0.10431305804E+04  0.10456529218E+04  0.00000000000E+00 0. -1.
          1    1    1    2  502    0  0.61988921550E+01 -0.70074144430E+02  0.67969258341E+02  0.97819384893E+02  0.00000000000E+00 0. -1.
<mgrwt>
<rscale>  0 0.73338922E+02</rscale>
<asrwt>0</asrwt>
<pdfrwt beam="1">  1        1 0.16278023E-01 0.70347793E+02</pdfrwt>
<pdfrwt beam="2">  1        1 0.22701814E+00 0.76457231E+02</pdfrwt>
<totfact> 0.31617370E+02</totfact>
</mgrwt>
</event>
<event>
 5    1  0.7156190E-003  0.7382751E+02  0.7546771E-02  0.1483397E+00
          2   -1    0    0  502    0  0.00000000000E+00  0.00000000000E+00  0.55615849708E+03  0.55615849708E+03  0.00000000000E+00 0. -1.
         -2   -1    0    0    0  501 -0.00000000000E+00 -0.00000000000E+00 -0.22129811160E+03  0.22129811160E+03  0.00000000000E+00 0. -1.
         25    1    1    2    0    0 -0.11961613843E+02 -0.92880645894E+02 -0.17132749819E+02  0.15712550940E+03  0.12500000000E+03 0.  0.
          2    1    1    2  502    0  0.13918181335E+02  0.21636818731E+02  0.47632567299E+03  0.47701993087E+03  0.00000000000E+00 0. -1.
         -2    1    1    2    0  501 -0.19565674922E+01  0.71243827162E+02 -0.12433253769E+03  0.14331116842E+03  0.00000000000E+00 0. -1.
<mgrwt>
<rscale>  0 0.43581472E+02</rscale>
<asrwt>0</asrwt>
<pdfrwt beam="1">  1        2 0.85562846E-01 0.25726789E+02</pdfrwt>
<pdfrwt beam="2">  1       -2 0.34045863E-01 0.73827505E+02</pdfrwt>
<totfact> 0.46011983E+02</totfact>
</mgrwt>
</event>
<event>
 5    1  0.7156190E-003  0.4166969E+02  0.7546771E-02  0.1519020E+00
         -1   -1    0    0    0  501 -0.00000000000E+00  0.00000000000E+00  0.14353425184E+04  0.14353425184E+04  0.00000000000E+00 0.  1.
          2   -1    0    0  502    0  0.00000000000E+00 -0.00000000000E+00 -0.83322354381E+02  0.83322354381E+02  0.00000000000E+00 0. -1.
         25    1    1    2    0    0  0.57498444127E+01  0.52997011499E+01  0.53153582947E+03  0.54609201198E+03  0.12500000000E+03 0.  0.
          2    1    1    2  502    0 -0.41381635493E+02 -0.74663870009E+01 -0.69846095788E+02  0.81527073956E+02  0.00000000000E+00 0. -1.
         -1    1    1    2    0  501  0.35631791080E+02  0.21666858510E+01  0.89033043036E+03  0.89104578687E+03  0.00000000000E+00 0.  1.
<mgrwt>
<rscale>  0 0.38568228E+02</rscale>
<asrwt>0</asrwt>
<pdfrwt beam="2">  1        2 0.12818825E-01 0.41669692E+02</pdfrwt>
<pdfrwt beam="1">  1       -1 0.22082191E+00 0.35697606E+02</pdfrwt>
<totfact> 0.72052145E+01</totfact>
</mgrwt>
</event>
<event>
 5    1  0.7156190E-003  0.8611250E+02  0.7546771E-02  0.1367583E+00
          2   -1    0    0  502    0  0.00000000000E+00  0.00000000000E+00  0.12885372791E+03  0.12885372791E+03  0.00000000000E+00 0. -1.
         -1   -1    0    0    0  501 -0.00000000000E+00 -0.00000000000E+00 -0.20663462235E+03  0.20663462235E+03  0.00000000000E+00 0.  1.
         25    1    1    2    0    0  0.11603135384E+03 -0.29301032612E+02 -0.29916313782E+02  0.17561836867E+03  0.12500000000E+03 0.  0.
          2    1    1    2  502    0 -0.37485028424E+02  0.38102784047E+02  0.18606669837E+02  0.56596445741E+02  0.00000000000E+00 0. -1.
         -1    1    1    2    0  501 -0.78546325412E+02 -0.88017514354E+01 -0.66471250495E+02  0.10327353585E+03  0.00000000000E+00 0.  1.
<mgrwt>
<rscale>  0 0.67843578E+02</rscale>
<asrwt>0</asrwt>
<pdfrwt beam="1">  1        2 0.19823650E-01 0.53450440E+02</pdfrwt>
<pdfrwt beam="2">  1       -1 0.31789942E-01 0.86112501E+02</pdfrwt>
<totfact> 0.27424112E+03</totfact>
</mgrwt>
</event>
<event>
 5    1  0.7156190E-003  0.5419716E+02  0.7546771E-02  0.1508339E+00
          1   -1    0    0  501    0  0.00000000000E+00  0.00000000000E+00  0.10164556624E+04  0.10164556624E+04  0.00000000000E+00 0. -1.
          1   -1    0    0  502    0 -0.00000000000E+00 -0.00000000000E+00 -0.36318962536E+03  0.36318962536E+03  0.00000000000E+00 0. -1.
         25    1    1    2    0    0 -0.35539731294E+02  0.31000957645E+02  0.22287569861E+03  0.25985132077E+03  0.12500000000E+03 0.  0.
          1    1    1    2  501    0 -0.18222445204E+02 -0.23194275073E+02  0.77266851934E+03  0.77323131900E+03  0.00000000000E+00 0. -1.
          1    1    1    2  502    0  0.53762176497E+02 -0.78066825720E+01 -0.34227818086E+03  0.34656264803E+03  0.00000000000E+00 0. -1.
<mgrwt>
<rscale>  0 0.39982693E+02</rscale>
<asrwt>0</asrwt>
<pdfrwt beam="1">  1        1 0.15637779E+00 0.29496303E+02</pdfrwt>
<pdfrwt beam="2">  1        1 0.55875327E-01 0.54197157E+02</pdfrwt>
<totfact> 0.15080689E+02</totfact>
</mgrwt>
</event>
<event>
 5    1  0.7156190E-003  0.8090269E+02  0.7546771E-02  0.1397446E+00
          2   -1    0    0  502    0  0.00000000000E+00  0.00000000000E+00  0.11930419965E+04  0.11930419965E+04  0.00000000000E+00 0. -1.
         -3   -1    0    0    0  501 -0.00000000000E+00 -0.00000000000E+00 -0.87751945970E+02  0.87751945970E+02  0.00000000000E+00 0.  1.
         25    1    1    2    0    0  0.65986687297E+01  0.11618303020E+03  0.61367596543E+03  0.63699704040E+03  0.12500000000E+03 0.  0.
          2    1    1    2  502    0 -0.14567419786E+02 -0.72265796443E+02  0.55852274329E+03  0.56336685191E+03  0.00000000000E+00 0. -1.
         -3    1    1    2    0  501  0.79687510561E+01 -0.43917233756E+02 -0.66908658237E+02  0.80430050114E+02  0.00000000000E+00 0.  1.
<mgrwt>
<rscale>  0 0.60091913E+02</rscale>
<asrwt>0</asrwt>
<pdfrwt beam="1">  1        2 0.18354491E+00 0.80902685E+02</pdfrwt>
<pdfrwt beam="2">  1       -3 0.13500300E-01 0.44634341E+02</pdfrwt>
<totfact> 0.50635420E+02</totfact>
</mgrwt>
</event>
<event>
 5    1  0.7156190E-003  0.4342629E+02  0.7546771E-02  0.1497241E+00
          2   -1    0    0  501    0  0.00000000000E+00  0.00000000000E+00  0.16311008351E+04  0.16311008351E+04  0.00000000000E+00 0. -1.
          1   -1    0    0  502    0 -0.00000000000E+00 -0.00000000000E+00 -0.12736431990E+03  0.12736431990E+03  0.00000000000E+00 0. -1.
         25    1    1    2    0    0  0.26689410445E+02  0.43333412193E+02  0.21109641904E+03  0.25055300313E+03  0.12500000000E+03 0.  0.
          2    1    1    2  501    0 -0.43008147264E+02 -0.71230709614E+01  0.13962603720E+04  0.13969407522E+04  0.00000000000E+00 0. -1.
          1    1    1    2  502    0  0.16318736819E+02 -0.36210341231E+02 -0.10362027581E+03  0.11097139966E+03  0.00000000000E+00 0. -1.
<mgrwt>
<rscale>  0 0.41530580E+02</rscale>
<asrwt>0</asrwt>
<pdfrwt beam="1">  1        2 0.25093857E+00 0.43426286E+02</pdfrwt>
<pdfrwt beam="2">  1        1 0.19594512E-01 0.39717628E+02</pdfrwt>
<totfact> 0.45538805E+02</totfact>
</mgrwt>
</event>
<event>
 5    1  0.7156190E-003  0.6411296E+02  0.7546771E-02  0.1519269E+00
         -1   -1    0    0    0  501 -0.00000000000E+00  0.00000000000E+00  0.22953747427E+02  0.22953747427E+02  0.00000000000E+00 0.  1.
          2   -1    0    0  502    0  0.00000000000E+00 -0.00000000000E+00 -0.57869450819E+03  0.57869450819E+03  0.00000000000E+00 0. -1.
         25    1    1    2    0    0 -0.16281530102E+02 -0.48137353960E+02 -0.31252050660E+03  0.34040616933E+03  0.12500000000E+03 0.  0.
          2    1    1    2  502    0  0.34910005689E+01 -0.22898206474E+02 -0.57666145563E+02  0.62144181455E+02  0.00000000000E+00 0. -1.
         -1    1    1    2    0  501  0.12790529533E+02  0.71035560434E+02 -0.18555410860E+03  0.19909790484E+03  0.00000000000E+00 0.  1.
<mgrwt>
<rscale>  0 0.38536153E+02</rscale>
<asrwt>0</asrwt>
<pdfrwt beam="2">  1        2 0.89029922E-01 0.23162792E+02</pdfrwt>
<pdfrwt beam="1">  1       -1 0.35313459E-02 0.64112957E+02</pdfrwt>
<totfact> 0.15993761E+04</totfact>
</mgrwt>
</event>
<event>
 5    1  0.7156190E-003  0.5840850E+02  0.7546771E-02  0.1482124E+00
          2   -1    0    0  501    0  0.00000000000E+00  0.00000000000E+00  0.61685475183E+02  0.61685475183E+02  0.00000000000E+00 0.  1.
          2   -1    0    0  502    0 -0.00000000000E+00 -0.00000000000E+00 -0.28225358996E+04  0.28225358996E+04  0.00000000000E+00 0. -1.
         25    1    1    2    0    0 -0.20879483020E+02 -0.79312250158E+02 -0.11991023514E+04  0.12083864592E+04  0.12500000000E+03 0.  0.
          2    1    1    2  501    0  0.32130534843E+02  0.48490860804E+02  0.42002225025E+02  0.71749019212E+02  0.00000000000E+00 0.  1.
          2    1    1    2  502    0 -0.11251051823E+02  0.30821389354E+02 -0.16037502980E+04  0.16040858963E+04  0.00000000000E+00 0. -1.
<mgrwt>
<rscale>  0 0.43777001E+02</rscale>
<asrwt>0</asrwt>
<pdfrwt beam="1">  1        2 0.94900722E-02 0.58408504E+02</pdfrwt>
<pdfrwt beam="2">  1        2 0.43423633E+00 0.32810733E+02</pdfrwt>
<totfact> 0.35256559E+02</totfact>
</mgrwt>
</event>
<event>
 5    1  0.7156190E-003  0.8998102E+02  0.7546771E-02  0.1335917E+00
          1   -1    0    0  502    0 -0.00000000000E+00  0.00000000000E+00  0.49730641855E+03  0.49730641855E+03  0.00000000000E+00 0. -1.
          2   -1    0    0  501    0  0.00000000000E+00 -0.00000000000E+00 -0.19313380921E+04  0.19313380921E+04  0.00000000000E+00 0. -1.
         25    1    1    2    0    0 -0.69290609624E+02  0.12831201951E+03  0.23990009500E+02  0.19356054218E+03  0.12500000000E+03 0.  0.
          2    1    1    2  501    0  0.15732059730E+02 -0.88101902146E+02 -0.18425725472E+04  0.18447447072E+04  0.00000000000E+00 0. -1.
          1    1    1    2  502    0  0.53558549894E+02 -0.40210117362E+02  0.38455086415E+03  0.39033926131E+03  0.00000000000E+00 0. -1.
<mgrwt>
<rscale>  0 0.77629193E+02</rscale>
<asrwt>0</asrwt>
<pdfrwt beam="2">  1        2 0.29712893E+00 0.89981021E+02</pdfrwt>
<pdfrwt beam="1">  1        1 0.76508682E-01 0.66972918E+02</pdfrwt>
<totfact> 0.58213999E+01</totfact>
</mgrwt>
</event>
<event>
 5    1  0.7156190E-003  0.1351450E+03  0.7546771E-02  0.1407967E+00
         -2   -1    0    0    0  501 -0.00000000000E+00  0.00000000000E+00  0.16010227681E+03  0.16010227681E+03  0.00000000000E+00 0.  1.
          2   -1    0    0  502    0  0.00000000000E+00 -0.00000000000E+00 -0.19499459675E+03  0.19499459675E+03  0.00000000000E+00 0. -1.
         25    1    1    2    0    0  0.13479324773E+03  0.73637776648E+01  0.15077254032E+02  0.18459623085E+03  0.12500000000E+03 0.  0.
          2    1    1    2  502    0 -0.13223600604E+03 -0.31822648851E+02 -0.31147338859E+02  0.13953207155E+03  0.00000000000E+00 0. -1.
         -2    1    1    2    0  501 -0.25572416899E+01  0.24458871186E+02 -0.18822235111E+02  0.30968571154E+02  0.00000000000E+00 0.  1.
<mgrwt>
<rscale>  0 0.57649899E+02</rscale>
<asrwt>0</asrwt>
<pdfrwt beam="2">  1        2 0.29999169E-01 0.13514496E+03</pdfrwt>
<pdfrwt beam="1">  1       -2 0.24631120E-01 0.24592191E+02</pdfrwt>
<totfact> 0.23238450E+03</totfact>
</mgrwt>
</event>
<event>
 5    1  0.7156190E-003  0.8125647E+02  0.7546771E-02  0.1410882E+00
          2   -1    0    0  502    0  0.00000000000E+00  0.00000000000E+00  0.43916815692E+03  0.43916815692E+03  0.00000000000E+00 0. -1.
          2   -1    0    0  501    0 -0.00000000000E+00 -0.00000000000E+00 -0.11873453966E+03  0.11873453966E+03  0.00000000000E+00 0.  1.
         25    1    1    2    0    0 -0.63987345744E+02  0.82616282255E+02  0.48863462084E+02  0.17009546859E+03  0.12500000000E+03 0.  0.
          2    1    1    2  501    0  0.39420307093E+02 -0.66721930083E+01 -0.45659519941E+02  0.60689954128E+02  0.00000000000E+00 0.  1.
          2    1    1    2  502    0  0.24567038651E+02 -0.75944089247E+02  0.31722967512E+03  0.32711727386E+03  0.00000000000E+00 0. -1.
<mgrwt>
<rscale>  0 0.56997484E+02</rscale>
<asrwt>0</asrwt>
<pdfrwt beam="1">  1        2 0.67564331E-01 0.81256468E+02</pdfrwt>
<pdfrwt beam="2">  1        2 0.18266853E-01 0.39980980E+02</pdfrwt>
<totfact> 0.31994821E+03</totfact>
</mgrwt>
</event>
<event>
 5    1  0.7156190E-003  0.1158504E+03  0.7546771E-02  0.1406898E+00
          1   -1    0    0  502    0  0.00000000000E+00  0.00000000000E+00  0.85650124285E+03  0.85650124285E+03  0.00000000000E+00 0.  1.
          1   -1    0    0  501    0 -0.00000000000E+00 -0.00000000000E+00 -0.98463051467E+03  0.98463051467E+03  0.00000000000E+00 0. -1.
         25    1    1    2    0    0  0.65374056355E+02  0.10044470388E+03  0.41772966961E+02  0.17813726884E+03  0.12500000000E+03 0.  0.
          1    1    1    2  501    0  0.19354520039E+02 -0.21501181846E+02 -0.91172654017E+03  0.91218538813E+03  0.00000000000E+00 0. -1.
          1    1    1    2  502    0 -0.84728576394E+02 -0.78943522037E+02  0.74182430139E+03  0.75080910054E+03  0.00000000000E+00 0.  1.
<mgrwt>
<rscale>  0 0.57891787E+02</rscale>
<asrwt>0</asrwt>
<pdfrwt beam="1">  1        1 0.13176942E+00 0.11585041E+03</pdfrwt>
<pdfrwt beam="2">  1        1 0.15148162E+00 0.28929194E+02</pdfrwt>
<totfact> 0.49611459E+01</totfact>
</mgrwt>
</event>
<event>
 5    1  0.7156190E-003  0.5129553E+02  0.7546771E-02  0.1493370E+00
         -2   -1    0    0    0  501 -0.00000000000E+00  0.00000000000E+00  0.35342255723E+02  0.35342255723E+02  0.00000000000E+00 0.  1.
          2   -1    0    0  502    0  0.00000000000E+00 -0.00000000000E+00 -0.61565792386E+03  0.61565792386E+03  0.00000000000E+00 0. -1.
         25    1    1    2    0    0  0.58877656974E+01  0.44083076799E+02 -0.11928233921E+03  0.17841317185E+03  0.12500000000E+03 0.  0.
          2    1    1    2  502    0 -0.26549534262E+02  0.22088686871E+02 -0.15335399311E+03  0.15719489514E+03  0.00000000000E+00 0. -1.
         -2    1    1    2    0  501  0.20661768564E+02 -0.66171763670E+02 -0.30767933582E+03  0.31539211259E+03  0.00000000000E+00 0.  1.
<mgrwt>
<rscale>  0 0.42090157E+02</rscale>
<asrwt>0</asrwt>
<pdfrwt beam="2">  1        2 0.94716612E-01 0.34536761E+02</pdfrwt>
<pdfrwt beam="1">  1       -2 0.54372696E-02 0.51295526E+02</pdfrwt>
<totfact> 0.75989724E+03</totfact>
</mgrwt>
</event>
<event>
 5    1  0.7156190E-003  0.3983883E+02  0.7546771E-02  0.1527085E+00
          2   -1    0    0  502    0  0.00000000000E+00  0.00000000000E+00  0.97095117137E+02  0.97095117137E+02  0.00000000000E+00 0. -1.
          2   -1    0    0  501    0 -0.00000000000E+00 -0.00000000000E+00 -0.27792031849E+04  0.27792031849E+04  0.00000000000E+00 0. -1.
         25    1    1    2    0    0 -0.11075383767E+02 -0.35199607191E+02 -0.13938552010E+03  0.19082714609E+03  0.12500000000E+03 0.  0.
          2    1    1    2  501    0 -0.27332234589E+02  0.22474571030E+02 -0.26082330722E+04  0.26084731006E+04  0.00000000000E+00 0. -1.
          2    1    1    2  502    0  0.38407618356E+02  0.12725036161E+02  0.65510524592E+02  0.76998055335E+02  0.00000000000E+00 0. -1.
<mgrwt>
<rscale>  0 0.37546376E+02</rscale>
<asrwt>0</asrwt>
<pdfrwt beam="1">  1        2 0.14937710E-01 0.39838832E+02</pdfrwt>
<pdfrwt beam="2">  1        2 0.42756973E+00 0.35385836E+02</pdfrwt>
<totfact> 0.21072146E+02</totfact>
</mgrwt>
</event>
<event>
 5    1  0.7156190E-003  0.7463160E+02  0.7546771E-02  0.1478836E+00
          2   -1    0    0  502    0  0.00000000000E+00  0.00000000000E+00  0.24389268533E+04  0.24389268533E+04  0.00000000000E+00 0. -1.
         -1   -1    0    0    0  501 -0.00000000000E+00 -0.00000000000E+00 -0.85747507306E+01  0.85747507306E+01  0.00000000000E+00 0.  1.
         25    1    1    2    0    0 -0.81772469632E+02  0.32609987800E+01  0.87643899587E+03  0.88908249583E+03  0.12500000000E+03 0.  0.
          2    1    1    2  502    0  0.13265444585E+02 -0.22688055066E+02  0.94359937678E+03  0.94396530854E+03  0.00000000000E+00 0. -1.
         -1    1    1    2    0  501  0.68507025048E+02  0.19427056286E+02  0.61031372989E+03  0.61445379964E+03  0.00000000000E+00 0.  1.
<mgrwt>
<rscale>  0 0.44288082E+02</rscale>
<asrwt>0</asrwt>
<pdfrwt beam="1">  1        2 0.37521896E+00 0.26281550E+02</pdfrwt>
<pdfrwt beam="2">  1       -1 0.13191944E-02 0.74631603E+02</pdfrwt>
<totfact> 0.71454648E+03</totfact>
</mgrwt>
</event>
<event>
 5    1  0.7156190E-003  0.1613341E+03  0.7546771E-02  0.1328962E+00
         -1   -1    0    0    0  501 -0.00000000000E+00  0.00000000000E+00  0.41208908782E+02  0.41208908782E+02  0.00000000000E+00 0.  1.
          2   -1    0    0  502    0  0.00000000000E+00 -0.00000000000E+00 -0.11459369711E+04  0.11459369711E+04  0.00000000000E+00 0. -1.
         25    1    1    2    0    0  0.18908884966E+02 -0.18800965760E+03 -0.65195929560E+03  0.69020366588E+03  0.12500000000E+03 0.  0.
          2    1    1    2  502    0 -0.10028631701E+02  0.38412903994E+02 -0.19304304398E+03  0.19708308268E+03  0.00000000000E+00 0. -1.
         -1    1    1    2    0  501 -0.88802532646E+01  0.14959675360E+03 -0.25972572273E+03  0.29985913132E+03  0.00000000000E+00 0.  1.
<mgrwt>
<rscale>  0 0.80031446E+02</rscale>
<asrwt>0</asrwt>
<pdfrwt beam="2">  1        2 0.17629796E+00 0.39700436E+02</pdfrwt>
<pdfrwt beam="1">  1       -1 0.63398335E-02 0.16133405E+03</pdfrwt>
<totfact> 0.32452536E+03</totfact>
</mgrwt>
</event>
<event>
 5    1  0.7156190E-003  0.5471648E+02  0.7546771E-02  0.1520675E+00
         -1   -1    0    0    0  501 -0.00000000000E+00  0.00000000000E+00  0.32096983430E+02  0.32096983430E+02  0.00000000000E+00 0.  1.
          2   -1    0    0  502    0  0.00000000000E+00 -0.00000000000E+00 -0.43969567861E+03  0.43969567861E+03  0.00000000000E+00 0. -1.
         25    1    1    2    0    0 -0.16247739669E+02 -0.47993230858E+02 -0.17614074293E+03  0.22185107747E+03  0.12500000000E+03 0.  0.
          2    1    1    2  502    0 -0.95781192825E+01  0.55470489732E+02 -0.20354620822E+03  0.21118658689E+03  0.00000000000E+00 0. -1.
         -1    1    1    2    0  501  0.25825858951E+02 -0.74772588741E+01 -0.27911744022E+02  0.38754997680E+02  0.00000000000E+00 0.  1.
<mgrwt>
<rscale>  0 0.38355381E+02</rscale>
<asrwt>0</asrwt>
<pdfrwt beam="2">  1        2 0.67645485E-01 0.54716482E+02</pdfrwt>
<pdfrwt beam="1">  1       -1 0.49379978E-02 0.26886509E+02</pdfrwt>
<totfact> 0.11709980E+04</totfact>
</mgrwt>
</event>
<event>
 5    1  0.7156190E-003  0.1224962E+03  0.7546771E-02  0.1249729E+00
          2   -1    0    0  502    0  0.00000000000E+00  0.00000000000E+00  0.13754726500E+04  0.13754726500E+04  0.00000000000E+00 0. -1.
          2   -1    0    0  501    0 -0.00000000000E+00 -0.00000000000E+00 -0.99674817730E+03  0.99674817730E+03  0.00000000000E+00 0. -1.
         25    1    1    2    0    0 -0.14579316195E+03  0.33077101340E+02 -0.40920794675E+03  0.45323932352E+03  0.12500000000E+03 0.  0.
          2    1    1    2  501    0  0.10422932192E+03  0.68742693824E+02 -0.55636000147E+03  0.57019800135E+03  0.00000000000E+00 0. -1.
          2    1    1    2  502    0  0.41563840027E+02 -0.10181979516E+03  0.13442924209E+04  0.13487835024E+04  0.00000000000E+00 0. -1.
<mgrwt>
<rscale>  0 0.11606764E+03</rscale>
<asrwt>0</asrwt>
<pdfrwt beam="1">  1        2 0.21161118E+00 0.10997647E+03</pdfrwt>
<pdfrwt beam="2">  1        2 0.15334587E+00 0.12249618E+03</pdfrwt>
<totfact> 0.73002963E+01</totfact>
</mgrwt>
</event>
<event>
 5    1  0.7156190E-003  0.5160892E+02  0.7546771E-02  0.1474196E+00
         -2   -1    0    0    0  501 -0.00000000000E+00  0.00000000000E+00  0.14403411762E+02  0.14403411762E+02  0.00000000000E+00 0.  1.
          1   -1    0    0  502    0  0.00000000000E+00 -0.00000000000E+00 -0.98928701426E+03  0.98928701426E+03  0.00000000000E+00 0. -1.
         25    1    1    2    0    0  0.13196178152E+02 -0.56387178454E+02 -0.50184038064E+03  0.52040601520E+03  0.12500000000E+03 0.  0.
          1    1    1    2  502    0  0.29967599131E+02  0.25391146354E+02 -0.29115616908E+03  0.29379360460E+03  0.00000000000E+00 0. -1.
         -2    1    1    2    0  501 -0.43163777284E+02  0.30996032100E+02 -0.18188705278E+03  0.18949080622E+03  0.00000000000E+00 0.  1.
<mgrwt>
<rscale>  0 0.45023317E+02</rscale>
<asrwt>0</asrwt>
<pdfrwt beam="2">  1        1 0.15219799E+00 0.39278077E+02</pdfrwt>
<pdfrwt beam="1">  1       -2 0.22159096E-02 0.51608918E+02</pdfrwt>
<totfact> 0.87515296E+03</totfact>
</mgrwt>
</event>
<event>
 5    1  0.7156190E-003  0.6282236E+02  0.7546771E-02  0.1416708E+00
          2   -1    0    0  502    0  0.00000000000E+00  0.00000000000E+00  0.47564449004E+03  0.47564449004E+03  0.00000000000E+00 0. -1.
         -3   -1    0    0    0  501 -0.00000000000E+00 -0.00000000000E+00 -0.36264235750E+03  0.36264235750E+03  0.00000000000E+00 0.  1.
         25    1    1    2    0    0 -0.81855615341E+01  0.40029350971E+02  0.26001128405E+03  0.29137642353E+03  0.12500000000E+03 0.  0.
          2    1    1    2  502    0  0.56374496521E+02 -0.51022724384E+02  0.19085839266E+03  0.20544665563E+03  0.00000000000E+00 0. -1.
         -3    1    1    2    0  501 -0.48188934987E+02  0.10993373413E+02 -0.33786754417E+03  0.34146376838E+03  0.00000000000E+00 0.  1.
<mgrwt>
<rscale>  0 0.55723608E+02</rscale>
<asrwt>0</asrwt>
<pdfrwt beam="1">  1        2 0.73176076E-01 0.62822361E+02</pdfrwt>
<pdfrwt beam="2">  1       -3 0.55791132E-01 0.49426994E+02</pdfrwt>
<totfact> 0.12372326E+02</totfact>
</mgrwt>
</event>
<event>
 5    1  0.7156190E-003  0.3557456E+02  0.7546771E-02  0.1575926E+00
          1   -1    0    0  502    0  0.00000000000E+00  0.00000000000E+00  0.19844935122E+03  0.19844935122E+03  0.00000000000E+00 0. -1.
         -2   -1    0    0    0  501 -0.00000000000E+00 -0.00000000000E+00 -0.78226185629E+02  0.78226185629E+02  0.00000000000E+00 0.  1.
         25    1    1    2    0    0  0.43874472438E+02  0.28872297063E+02  0.17953448146E+02  0.13676953305E+03  0.12500000000E+03 0.  0.
          1    1    1    2  502    0 -0.10814220576E+02 -0.26879292560E+02  0.10277607927E+03  0.10678186272E+03  0.00000000000E+00 0. -1.
         -2    1    1    2    0  501 -0.33060251862E+02 -0.19930045028E+01 -0.50636182976E+00  0.33124141082E+02  0.00000000000E+00 0.  1.
<mgrwt>
<rscale>  0 0.32104628E+02</rscale>
<asrwt>0</asrwt>
<pdfrwt beam="1">  1        1 0.30530669E-01 0.28973155E+02</pdfrwt>
<pdfrwt beam="2">  1       -2 0.12034798E-01 0.35574555E+02</pdfrwt>
<totfact> 0.53819113E+03</totfact>
</mgrwt>
</event>
<event>
 5    1  0.7156190E-003  0.7865571E+02  0.7546771E-02  0.1483878E+00
          1   -1    0    0  502    0 -0.00000000000E+00  0.00000000000E+00  0.12459314366E+04  0.12459314366E+04  0.00000000000E+00 0. -1.
          2   -1    0    0  501    0  0.00000000000E+00 -0.00000000000E+00 -0.16362770582E+04  0.16362770582E+04  0.00000000000E+00 0. -1.
         25    1    1    2    0    0 -0.81266329235E+02 -0.54590484735E+02 -0.79163712162E+03  0.80740242111E+03  0.12500000000E+03 0.  0.
          2    1    1    2  501    0  0.24057149385E+02  0.65137857291E+00 -0.83533541388E+03  0.83568201154E+03  0.00000000000E+00 0. -1.
          1    1    1    2  502    0  0.57209179850E+02  0.53939106162E+02  0.12366269139E+04  0.12391240622E+04  0.00000000000E+00 0. -1.
<mgrwt>
<rscale>  0 0.43507765E+02</rscale>
<asrwt>0</asrwt>
<pdfrwt beam="2">  1        2 0.25173493E+00 0.24065966E+02</pdfrwt>
<pdfrwt beam="1">  1        1 0.19168176E+00 0.78655707E+02</pdfrwt>
<totfact> 0.23288786E+01</totfact>
</mgrwt>
</event>
<event>
 5    1  0.7156190E-003  0.4122711E+02  0.7546771E-02  0.1578200E+00
          2   -1    0    0  501    0  0.00000000000E+00  0.00000000000E+00  0.61846246606E+03  0.61846246606E+03  0.00000000000E+00 0. -1.
          3   -1    0    0  502    0 -0.00000000000E+00 -0.00000000000E+00 -0.11666684756E+03  0.11666684756E+03  0.00000000000E+00 0. -1.
         25    1    1    2    0    0  0.46884629771E+02  0.17674498318E+02  0.12284836821E+03  0.18228350987E+03  0.12500000000E+03 0.  0.
          2    1    1    2  501    0 -0.62108165057E+01 -0.23855484136E+02  0.46068196291E+03  0.46134101196E+03  0.00000000000E+00 0. -1.
          3    1    1    2  502    0 -0.40673813265E+02  0.61809858179E+01 -0.81734712627E+02  0.91504791784E+02  0.00000000000E+00 0. -1.
<mgrwt>
<rscale>  0 0.31879118E+02</rscale>
<asrwt>0</asrwt>
<pdfrwt beam="1">  1        2 0.95148070E-01 0.24650727E+02</pdfrwt>
<pdfrwt beam="2">  1        3 0.17948746E-01 0.41227107E+02</pdfrwt>
<totfact> 0.73584663E+02</totfact>
</mgrwt>
</event>
<event>
 5    1  0.7156190E-003  0.1135064E+03  0.7546771E-02  0.1261841E+00
          2   -1    0    0  501    0  0.00000000000E+00  0.00000000000E+00  0.13596570605E+04  0.13596570605E+04  0.00000000000E+00 0. -1.
          1   -1    0    0  502    0 -0.00000000000E+00 -0.00000000000E+00 -0.44051702411E+03  0.44051702411E+03  0.00000000000E+00 0. -1.
         25    1    1    2    0    0 -0.56428989487E+02 -0.42422290737E+02  0.52873869103E+03  0.54788090403E+03  0.12500000000E+03 0.  0.
          2    1    1    2  501    0  0.44970134112E+02  0.14707762819E+03  0.80754946159E+03  0.82206464137E+03  0.00000000000E+00 0. -1.
          1    1    1    2  502    0  0.11458855375E+02 -0.10465533745E+03 -0.41714811626E+03  0.43022853918E+03  0.00000000000E+00 0. -1.
<mgrwt>
<rscale>  0 0.10931628E+03</rscale>
<asrwt>0</asrwt>
<pdfrwt beam="1">  1        2 0.20917801E+00 0.11350644E+03</pdfrwt>
<pdfrwt beam="2">  1        1 0.67771850E-01 0.10528079E+03</pdfrwt>
<totfact> 0.12884263E+02</totfact>
</mgrwt>
</event>
<event>
 5    1  0.7156190E-003  0.7298023E+02  0.7546771E-02  0.1373337E+00
         -2   -1    0    0    0  501 -0.00000000000E+00  0.00000000000E+00  0.64925677030E+02  0.64925677030E+02  0.00000000000E+00 0. -1.
          1   -1    0    0  502    0  0.00000000000E+00 -0.00000000000E+00 -0.17977687413E+04  0.17977687413E+04  0.00000000000E+00 0. -1.
         25    1    1    2    0    0  0.11044467362E+01 -0.10886892306E+03 -0.36425712685E+03  0.40020234466E+03  0.12500000000E+03 0.  0.
          1    1    1    2  502    0 -0.37195397651E+02  0.47254173301E+02 -0.13873565957E+04  0.13886593456E+04  0.00000000000E+00 0. -1.
         -2    1    1    2    0  501  0.36090950915E+02  0.61614749754E+02  0.18770658261E+02  0.73832728087E+02  0.00000000000E+00 0. -1.
<mgrwt>
<rscale>  0 0.66248091E+02</rscale>
<asrwt>0</asrwt>
<pdfrwt beam="2">  1        1 0.27657982E+00 0.60136965E+02</pdfrwt>
<pdfrwt beam="1">  1       -2 0.99885653E-02 0.72980232E+02</pdfrwt>
<totfact> 0.29106545E+02</totfact>
</mgrwt>
</event>
<event>
 5    1  0.7156190E-003  0.1295182E+03  0.7546771E-02  0.1236589E+00
          2   -1    0    0  502    0  0.00000000000E+00  0.00000000000E+00  0.48030681882E+03  0.48030681882E+03  0.00000000000E+00 0. -1.
         -3   -1    0    0    0  501 -0.00000000000E+00 -0.00000000000E+00 -0.41831776410E+03  0.41831776410E+03  0.00000000000E+00 0.  1.
         25    1    1    2    0    0  0.16369304565E+03 -0.27641131772E+02  0.38483722167E+02  0.21134200300E+03  0.12500000000E+03 0.  0.
          2    1    1    2  502    0 -0.88731269157E+02 -0.78963153451E+02  0.33188322397E+03  0.35249807387E+03  0.00000000000E+00 0. -1.
         -3    1    1    2    0  501 -0.74961776498E+02  0.10660428522E+03 -0.30837789143E+03  0.33478450604E+03  0.00000000000E+00 0.  1.
<mgrwt>
<rscale>  0 0.12403234E+03</rscale>
<asrwt>0</asrwt>
<pdfrwt beam="1">  1        2 0.73893357E-01 0.11877886E+03</pdfrwt>
<pdfrwt beam="2">  1       -3 0.64356579E-01 0.12951818E+03</pdfrwt>
<totfact> 0.95230225E+01</totfact>
</mgrwt>
</event>
<event>
 5    1  0.7156190E-003  0.4272127E+02  0.7546771E-02  0.1547582E+00
          2   -1    0    0  501    0  0.00000000000E+00  0.00000000000E+00  0.76342068807E+03  0.76342068807E+03  0.00000000000E+00 0.  1.
          1   -1    0    0  502    0 -0.00000000000E+00 -0.00000000000E+00 -0.58387515960E+02  0.58387515960E+02  0.00000000000E+00 0. -1.
         25    1    1    2    0    0  0.31825809710E+02  0.12338849024E+02  0.87011670440E+02  0.15608062068E+03  0.12500000000E+03 0.  0.
          2    1    1    2  501    0 -0.19483420449E+02 -0.38429684306E+02  0.63213300587E+03  0.63359970124E+03  0.00000000000E+00 0.  1.
          1    1    1    2  502    0 -0.12342389262E+02  0.26090835282E+02 -0.14111504192E+02  0.32127882111E+02  0.00000000000E+00 0. -1.
<mgrwt>
<rscale>  0 0.35114943E+02</rscale>
<asrwt>0</asrwt>
<pdfrwt beam="1">  1        2 0.11744933E+00 0.42721271E+02</pdfrwt>
<pdfrwt beam="2">  1        1 0.89826953E-02 0.28862887E+02</pdfrwt>
<totfact> 0.34385833E+03</totfact>
</mgrwt>
</event>
<event>
 5    1  0.7156190E-003  0.2786752E+03  0.7546771E-02  0.1096415E+00
          2   -1    0    0  502    0  0.00000000000E+00  0.00000000000E+00  0.30360684368E+04  0.30360684368E+04  0.00000000000E+00 0. -1.
         -2   -1    0    0    0  501 -0.00000000000E+00 -0.00000000000E+00 -0.63947745781E+01  0.63947745781E+01  0.00000000000E+00 0.  1.
         25    1    1    2    0    0 -0.37494914565E+02 -0.95505716529E+02  0.21681034613E+04  0.21741262221E+04  0.12500000000E+03 0.  0.
          2    1    1    2  502    0  0.14603169542E+02  0.22126732993E+02  0.35258608095E+03  0.35358137586E+03  0.00000000000E+00 0. -1.
         -2    1    1    2    0  501  0.22891745023E+02  0.73378983536E+02  0.50898411995E+03  0.51475561345E+03  0.00000000000E+00 0.  1.
<mgrwt>
<rscale>  0 0.27867525E+03</rscale>
<asrwt>0</asrwt>
<pdfrwt beam="1">  1        2 0.46708630E+00 0.27867525E+03</pdfrwt>
<pdfrwt beam="2">  1       -2 0.98381390E-03 0.27867525E+03</pdfrwt>
<totfact> 0.43284821E+03</totfact>
</mgrwt>
</event>
<event>
 5    1  0.7156190E-003  0.1029700E+03  0.7546771E-02  0.1338771E+00
          2   -1    0    0  502    0  0.00000000000E+00  0.00000000000E+00  0.97086054587E+03  0.97086054587E+03  0.00000000000E+00 0. -1.
         -2   -1    0    0    0  501 -0.00000000000E+00 -0.00000000000E+00 -0.94773785352E+02  0.94773785352E+02  0.00000000000E+00 0.  1.
         25    1    1    2    0    0  0.69740420712E+02  0.22741383759E+02  0.79991037769E+02  0.16554293383E+03  0.12500000000E+03 0.  0.
          2    1    1    2  502    0  0.52487489091E+02 -0.22457875156E+02  0.77373045048E+03  0.77583381124E+03  0.00000000000E+00 0. -1.
         -2    1    1    2    0  501 -0.12222790980E+03 -0.28350860249E+00  0.22365272265E+02  0.12425758615E+03  0.00000000000E+00 0.  1.
<mgrwt>
<rscale>  0 0.76671884E+02</rscale>
<asrwt>0</asrwt>
<pdfrwt beam="1">  1        2 0.14936315E+00 0.57090215E+02</pdfrwt>
<pdfrwt beam="2">  1       -2 0.14580583E-01 0.10296997E+03</pdfrwt>
<totfact> 0.10174509E+03</totfact>
</mgrwt>
</event>
<event>
 5    1  0.7156190E-003  0.8523395E+02  0.7546771E-02  0.1405713E+00
          1   -1    0    0  502    0  0.00000000000E+00  0.00000000000E+00  0.26581723703E+04  0.26581723703E+04  0.00000000000E+00 0. -1.
         -2   -1    0    0    0  501 -0.00000000000E+00 -0.00000000000E+00 -0.96634446385E+01  0.96634446385E+01  0.00000000000E+00 0.  1.
         25    1    1    2    0    0  0.45316324164E+02  0.10069244695E+03  0.97583870683E+03  0.98998925239E+03  0.12500000000E+03 0.  0.
          1    1    1    2  502    0 -0.18590045954E+02 -0.35065000045E+02  0.11131215972E+04  0.11138289071E+04  0.00000000000E+00 0. -1.
         -2    1    1    2    0  501 -0.26726278210E+02 -0.65627446907E+02  0.55954862165E+03  0.56401765551E+03  0.00000000000E+00 0.  1.
<mgrwt>
<rscale>  0 0.58161604E+02</rscale>
<asrwt>0</asrwt>
<pdfrwt beam="1">  1        1 0.40894901E+00 0.39688084E+02</pdfrwt>
<pdfrwt beam="2">  1       -2 0.14866859E-02 0.85233951E+02</pdfrwt>
<totfact> 0.15154904E+03</totfact>
</mgrwt>
</event>
<event>
 5    1  0.7156190E-003  0.1405773E+03  0.7546771E-02  0.1296359E+00
          2   -1    0    0  501    0  0.00000000000E+00  0.00000000000E+00  0.73303477739E+03  0.73303477739E+03  0.00000000000E+00 0. -1.
          2   -1    0    0  502    0 -0.00000000000E+00 -0.00000000000E+00 -0.13202875476E+04  0.13202875476E+04  0.00000000000E+00 0.  1.
         25    1    1    2    0    0  0.87040554946E+02  0.88357817937E+02  0.25232017696E+03  0.30769080893E+03  0.12500000000E+03 0.  0.
          2    1    1    2  501    0 -0.41414507615E+02  0.45025827828E+02  0.44709653330E+03  0.45126244770E+03  0.00000000000E+00 0. -1.
          2    1    1    2  502    0 -0.45626047331E+02 -0.13338364577E+03 -0.12866694805E+04  0.12943690683E+04  0.00000000000E+00 0.  1.
<mgrwt>
<rscale>  0 0.92735844E+02</rscale>
<asrwt>0</asrwt>
<pdfrwt beam="1">  1        2 0.11277458E+00 0.61175866E+02</pdfrwt>
<pdfrwt beam="2">  1        2 0.20312116E+00 0.14057728E+03</pdfrwt>
<totfact> 0.11620042E+02</totfact>
</mgrwt>
</event>
<event>
 5    1  0.7156190E-003  0.7237226E+02  0.7546771E-02  0.1411725E+00
         -3   -1    0    0    0  501 -0.00000000000E+00  0.00000000000E+00  0.50453378051E+03  0.50453378051E+03  0.00000000000E+00 0.  1.
          3   -1    0    0  502    0  0.00000000000E+00 -0.00000000000E+00 -0.14614098141E+03  0.14614098141E+03  0.00000000000E+00 0. -1.
         25    1    1    2    0    0  0.37721777094E+02  0.23029135270E+02  0.46762597572E+03  0.48605794583E+03  0.12500000000E+03 0.  0.
          3    1    1    2  502    0 -0.73844947484E+02  0.31211945103E+01 -0.45372593973E+02  0.86726526553E+02  0.00000000000E+00 0. -1.
         -3    1    1    2    0  501  0.36123170389E+02 -0.26150329780E+02 -0.63860582649E+02  0.77890289529E+02  0.00000000000E+00 0.  1.
<mgrwt>
<rscale>  0 0.56810637E+02</rscale>
<asrwt>0</asrwt>
<pdfrwt beam="2">  1        3 0.22483228E-01 0.72372262E+02</pdfrwt>
<pdfrwt beam="1">  1       -3 0.77620581E-01 0.44595103E+02</pdfrwt>
<totfact> 0.62227595E+01</totfact>
</mgrwt>
</event>
<event>
 5    1  0.7156190E-003  0.1135837E+03  0.7546771E-02  0.1292752E+00
          2   -1    0    0  502    0  0.00000000000E+00  0.00000000000E+00  0.31763371451E+03  0.31763371451E+03  0.00000000000E+00 0. -1.
          2   -1    0    0  501    0 -0.00000000000E+00 -0.00000000000E+00 -0.65363874865E+03  0.65363874865E+03  0.00000000000E+00 0. -1.
         25    1    1    2    0    0  0.20251231727E+02  0.37941659121E+02 -0.16862927986E+03  0.21426739348E+03  0.12500000000E+03 0.  0.
          2    1    1    2  501    0  0.78765256940E+00  0.78292390517E+02 -0.44681613065E+03  0.45362426459E+03  0.00000000000E+00 0. -1.
          2    1    1    2  502    0 -0.21038884296E+02 -0.11623404964E+03  0.27944037637E+03  0.30338080509E+03  0.00000000000E+00 0. -1.
<mgrwt>
<rscale>  0 0.94303704E+02</rscale>
<asrwt>0</asrwt>
<pdfrwt beam="1">  1        2 0.48866726E-01 0.11358369E+03</pdfrwt>
<pdfrwt beam="2">  1        2 0.10055981E+00 0.78296352E+02</pdfrwt>
<totfact> 0.74909039E+02</totfact>
</mgrwt>
</event>
<event>
 5    1  0.7156190E-003  0.2884087E+03  0.7546771E-02  0.1284301E+00
         -2   -1    0    0    0  501 -0.00000000000E+00  0.00000000000E+00  0.18128879543E+04  0.18128879543E+04  0.00000000000E+00 0.  1.
          1   -1    0    0  502    0  0.00000000000E+00 -0.00000000000E+00 -0.35949425814E+04  0.35949425814E+04  0.00000000000E+00 0. -1.
         25    1    1    2    0    0  0.28669557567E+03  0.12111507965E+03 -0.18841115150E+03  0.38469075585E+03  0.12500000000E+03 0.  0.
          1    1    1    2  502    0 -0.25502878625E+03 -0.13167524070E+03 -0.33020033384E+04  0.33144538159E+04  0.00000000000E+00 0. -1.
         -2    1    1    2    0  501 -0.31666789419E+02  0.10560161055E+02  0.17083598628E+04  0.17086859639E+04  0.00000000000E+00 0.  1.
<mgrwt>
<rscale>  0 0.98119415E+02</rscale>
<asrwt>0</asrwt>
<pdfrwt beam="2">  1        1 0.55306808E+00 0.28840869E+03</pdfrwt>
<pdfrwt beam="1">  1       -2 0.27890584E+00 0.33381171E+02</pdfrwt>
<totfact> 0.14208537E-02</totfact>
</mgrwt>
</event>
<event>
 5    1  0.7156190E-003  0.4418120E+02  0.7546771E-02  0.1501811E+00
          2   -1    0    0  502    0  0.00000000000E+00  0.00000000000E+00  0.70294737429E+03  0.70294737429E+03  0.00000000000E+00 0. -1.
         -1   -1    0    0    0  501 -0.00000000000E+00 -0.00000000000E+00 -0.20775156455E+02  0.20775156455E+02  0.00000000000E+00 0.  1.
         25    1    1    2    0    0 -0.22603913014E+02  0.44415516663E+02  0.26764406729E+03  0.29956972771E+03  0.12500000000E+03 0.  0.
          2    1    1    2  502    0 -0.21518699846E+02 -0.31115111062E+02  0.11403575228E+03  0.12014723209E+03  0.00000000000E+00 0. -1.
         -1    1    1    2    0  501  0.44122612860E+02 -0.13300405601E+02  0.30049239826E+03  0.30400557095E+03  0.00000000000E+00 0.  1.
<mgrwt>
<rscale>  0 0.40883136E+02</rscale>
<asrwt>0</asrwt>
<pdfrwt beam="1">  1        2 0.10814573E+00 0.37831265E+02</pdfrwt>
<pdfrwt beam="2">  1       -1 0.31961784E-02 0.44181203E+02</pdfrwt>
<totfact> 0.14087581E+04</totfact>
</mgrwt>
</event>
<event>
 5    1  0.7156190E-003  0.7146311E+02  0.7546771E-02  0.1416178E+00
          2   -1    0    0  502    0  0.00000000000E+00  0.00000000000E+00  0.21292387431E+04  0.21292387431E+04  0.00000000000E+00 0. -1.
         -1   -1    0    0    0  501 -0.00000000000E+00 -0.00000000000E+00 -0.15679631817E+02  0.15679631817E+02  0.00000000000E+00 0.  1.
         25    1    1    2    0    0  0.84645407732E+02  0.24315461807E+02  0.42077984933E+03  0.44770165103E+03  0.12500000000E+03 0.  0.
          2    1    1    2  502    0 -0.69097141682E+02  0.16448776212E+02  0.13168662875E+04  0.13187804201E+04  0.00000000000E+00 0. -1.
         -1    1    1    2    0  501 -0.15548266049E+02 -0.40764238020E+02  0.37591297445E+03  0.37843630381E+03  0.00000000000E+00 0.  1.
<mgrwt>
<rscale>  0 0.55837704E+02</rscale>
<asrwt>0</asrwt>
<pdfrwt beam="1">  1        2 0.32757496E+00 0.71463107E+02</pdfrwt>
<pdfrwt beam="2">  1       -1 0.24122527E-02 0.43628794E+02</pdfrwt>
<totfact> 0.34887277E+03</totfact>
</mgrwt>
</event>
<event>
 5    1  0.7156190E-003  0.4316490E+02  0.7546771E-02  0.1513714E+00
         -1   -1    0    0    0  501 -0.00000000000E+00  0.00000000000E+00  0.74910739313E+01  0.74910739313E+01  0.00000000000E+00 0.  1.
          1   -1    0    0  502    0  0.00000000000E+00 -0.00000000000E+00 -0.16948031476E+04  0.16948031476E+04  0.00000000000E+00 0. -1.
         25    1    1    2    0    0 -0.24089793839E+02  0.23581969075E+01 -0.11043481655E+04  0.11116635057E+04  0.12500000000E+03 0.  0.
          1    1    1    2  502    0  0.56215556520E+02  0.13238943852E+02 -0.30920911644E+03  0.31455641166E+03  0.00000000000E+00 0. -1.
         -1    1    1    2    0  501 -0.32125762681E+02 -0.15597140760E+02 -0.27375479175E+03  0.27607430419E+03  0.00000000000E+00 0.  1.
<mgrwt>
<rscale>  0 0.39261914E+02</rscale>
<asrwt>0</asrwt>
<pdfrwt beam="2">  1        1 0.26073901E+00 0.43164898E+02</pdfrwt>
<pdfrwt beam="1">  1       -1 0.11524726E-02 0.35711839E+02</pdfrwt>
<totfact> 0.72424286E+03</totfact>
</mgrwt>
</event>
<event>
 5    1  0.7156190E-003  0.6540034E+02  0.7546771E-02  0.1519601E+00
         -1   -1    0    0    0  501 -0.00000000000E+00  0.00000000000E+00  0.26022262261E+02  0.26022262261E+02  0.00000000000E+00 0.  1.
          1   -1    0    0  502    0  0.00000000000E+00 -0.00000000000E+00 -0.71549583042E+03  0.71549583042E+03  0.00000000000E+00 0. -1.
         25    1    1    2    0    0 -0.79669186234E+00  0.56393923166E+02 -0.36530081571E+03  0.39019302306E+03  0.12500000000E+03 0.  0.
          1    1    1    2  502    0 -0.19854018180E+02 -0.65713711567E+02 -0.32122439879E+03  0.32847768311E+03  0.00000000000E+00 0. -1.
         -1    1    1    2    0  501  0.20650710042E+02  0.93197884003E+01 -0.29483536662E+01  0.22847386512E+02  0.00000000000E+00 0.  1.
<mgrwt>
<rscale>  0 0.38493286E+02</rscale>
<asrwt>0</asrwt>
<pdfrwt beam="2">  1        1 0.11007627E+00 0.65400337E+02</pdfrwt>
<pdfrwt beam="1">  1       -1 0.40034252E-02 0.22656352E+02</pdfrwt>
<totfact> 0.53689231E+03</totfact>
</mgrwt>
</event>
<event>
 5    1  0.7156190E-003  0.3745239E+02  0.7546771E-02  0.1579802E+00
          3   -1    0    0  502    0 -0.00000000000E+00  0.00000000000E+00  0.41349491805E+03  0.41349491805E+03  0.00000000000E+00 0.  1.
          1   -1    0    0  501    0  0.00000000000E+00 -0.00000000000E+00 -0.19961582005E+03  0.19961582005E+03  0.00000000000E+00 0. -1.
         25    1    1    2    0    0  0.57776558654E+02 -0.17009089151E+02  0.15418548254E+03  0.20742613835E+03  0.12500000000E+03 0.  0.
          1    1    1    2  501    0 -0.26795113039E+02 -0.19756986893E+01 -0.17051868442E+03  0.17262242961E+03  0.00000000000E+00 0. -1.
          3    1    1    2  502    0 -0.30981445614E+02  0.18984787841E+02  0.23021229987E+03  0.23306217015E+03  0.00000000000E+00 0.  1.
<mgrwt>
<rscale>  0 0.31721685E+02</rscale>
<asrwt>0</asrwt>
<pdfrwt beam="2">  1        1 0.30710126E-01 0.26867852E+02</pdfrwt>
<pdfrwt beam="1">  1        3 0.63614602E-01 0.37452390E+02</pdfrwt>
<totfact> 0.17131448E+02</totfact>
</mgrwt>
</event>
<event>
 5    1  0.7156190E-003  0.8979269E+02  0.7546771E-02  0.1347389E+00
          2   -1    0    0  501    0  0.00000000000E+00  0.00000000000E+00  0.46884005525E+03  0.46884005525E+03  0.00000000000E+00 0. -1.
          1   -1    0    0  502    0 -0.00000000000E+00 -0.00000000000E+00 -0.13661146902E+04  0.13661146902E+04  0.00000000000E+00 0. -1.
         25    1    1    2    0    0  0.90922874084E+02 -0.10024830552E+03 -0.78999280850E+03  0.81119068614E+03  0.12500000000E+03 0.  0.
          2    1    1    2  501    0 -0.27137201891E+02  0.54385255461E+02  0.45347530653E+03  0.45753036770E+03  0.00000000000E+00 0. -1.
          1    1    1    2  502    0 -0.63785672193E+02  0.45863050063E+02 -0.56075713295E+03  0.56623369159E+03  0.00000000000E+00 0. -1.
<mgrwt>
<rscale>  0 0.73875447E+02</rscale>
<asrwt>0</asrwt>
<pdfrwt beam="1">  1        2 0.72129241E-01 0.60779797E+02</pdfrwt>
<pdfrwt beam="2">  1        1 0.21017149E+00 0.89792694E+02</pdfrwt>
<totfact> 0.90228161E+01</totfact>
</mgrwt>
</event>
<event>
 5    1  0.7156190E-003  0.5141232E+02  0.7546771E-02  0.1463065E+00
          2   -1    0    0  501    0  0.00000000000E+00  0.00000000000E+00  0.98849950492E+03  0.98849950492E+03  0.00000000000E+00 0. -1.
          2   -1    0    0  502    0 -0.00000000000E+00 -0.00000000000E+00 -0.84040880638E+02  0.84040880638E+02  0.00000000000E+00 0. -1.
         25    1    1    2    0    0 -0.65543604162E+02 -0.40682085411E+02  0.40444760864E+03  0.43029508974E+03  0.12500000000E+03 0.  0.
          2    1    1    2  501    0  0.14464182995E+02  0.40183077888E+02  0.56103797442E+03  0.56266108901E+03  0.00000000000E+00 0. -1.
          2    1    1    2  502    0  0.51079421167E+02  0.49900752299E+00 -0.61026958782E+02  0.79584206809E+02  0.00000000000E+00 0. -1.
<mgrwt>
<rscale>  0 0.46857961E+02</rscale>
<asrwt>0</asrwt>
<pdfrwt beam="1">  1        2 0.15207684E+00 0.42707053E+02</pdfrwt>
<pdfrwt beam="2">  1        2 0.12929367E-01 0.51412317E+02</pdfrwt>
<totfact> 0.19346873E+03</totfact>
</mgrwt>
</event>
<event>
 5    1  0.7156190E-003  0.4948550E+02  0.7546771E-02  0.1487238E+00
         -3   -1    0    0    0  501 -0.00000000000E+00  0.00000000000E+00  0.14211434606E+03  0.14211434606E+03  0.00000000000E+00 0.  1.
          3   -1    0    0  502    0  0.00000000000E+00 -0.00000000000E+00 -0.45600558361E+03  0.45600558361E+03  0.00000000000E+00 0. -1.
         25    1    1    2    0    0  0.56219089297E+02 -0.56898500788E+02 -0.17512555876E+02  0.14943130531E+03  0.12500000000E+03 0.  0.
          3    1    1    2  502    0 -0.21145632918E+02  0.44023884288E+02 -0.36623048389E+03  0.36947260725E+03  0.00000000000E+00 0. -1.
         -3    1    1    2    0  501 -0.35073456379E+02  0.12874616500E+02  0.69851802215E+02  0.79216017100E+02  0.00000000000E+00 0.  1.
<mgrwt>
<rscale>  0 0.42998451E+02</rscale>
<asrwt>0</asrwt>
<pdfrwt beam="2">  1        3 0.70154707E-01 0.49485502E+02</pdfrwt>
<pdfrwt beam="1">  1       -3 0.21863745E-01 0.37361787E+02</pdfrwt>
<totfact> 0.75376800E+01</totfact>
</mgrwt>
</event>
<event>
 5    1  0.7156190E-003  0.1019313E+03  0.7546771E-02  0.1338673E+00
         -3   -1    0    0    0  501 -0.00000000000E+00  0.00000000000E+00  0.51093527195E+03  0.51093527195E+03  0.00000000000E+00 0.  1.
          2   -1    0    0  502    0  0.00000000000E+00 -0.00000000000E+00 -0.68201969226E+03  0.68201969226E+03  0.00000000000E+00 0. -1.
         25    1    1    2    0    0 -0.63847087478E+02 -0.22393909595E+02  0.77248852038E+02  0.16177244174E+03  0.12500000000E+03 0.  0.
          2    1    1    2  502    0 -0.44551466639E+02  0.36699708373E+02 -0.63077887993E+03  0.63341431713E+03  0.00000000000E+00 0. -1.
         -3    1    1    2    0  501  0.10839855412E+03 -0.14305798779E+02  0.38244560759E+03  0.39776820534E+03  0.00000000000E+00 0.  1.
<mgrwt>
<rscale>  0 0.76704411E+02</rscale>
<asrwt>0</asrwt>
<pdfrwt beam="2">  1        2 0.10492611E+00 0.57720895E+02</pdfrwt>
<pdfrwt beam="1">  1       -3 0.78605427E-01 0.10193131E+03</pdfrwt>
<totfact> 0.42641965E+01</totfact>
</mgrwt>
</event>
<event>
 5    1  0.7156190E-003  0.8658651E+02  0.7546771E-02  0.1480936E+00
          1   -1    0    0  502    0  0.00000000000E+00  0.00000000000E+00  0.78546415486E+03  0.78546415486E+03  0.00000000000E+00 0. -1.
         -2   -1    0    0    0  501 -0.00000000000E+00 -0.00000000000E+00 -0.25866642050E+02  0.25866642050E+02  0.00000000000E+00 0.  1.
         25    1    1    2    0    0  0.57344747670E+02 -0.79013514494E+02  0.43167598114E+03  0.45989206152E+03  0.12500000000E+03 0.  0.
          1    1    1    2  502    0 -0.22002874733E+02  0.37447131572E+01  0.18299848129E+03  0.18435453215E+03  0.00000000000E+00 0. -1.
         -2    1    1    2    0  501 -0.35341872937E+02  0.75268801337E+02  0.14492305039E+03  0.16708420324E+03  0.00000000000E+00 0.  1.
<mgrwt>
<rscale>  0 0.43960743E+02</rscale>
<asrwt>0</asrwt>
<pdfrwt beam="1">  1        1 0.12084062E+00 0.22319260E+02</pdfrwt>
<pdfrwt beam="2">  1       -2 0.39794840E-02 0.86586514E+02</pdfrwt>
<totfact> 0.58450323E+03</totfact>
</mgrwt>
</event>
<event>
 5    1  0.7156190E-003  0.5476377E+02  0.7546771E-02  0.1524976E+00
          1   -1    0    0  502    0  0.00000000000E+00  0.00000000000E+00  0.19184699702E+04  0.19184699702E+04  0.00000000000E+00 0. -1.
         -2   -1    0    0    0  501 -0.00000000000E+00 -0.00000000000E+00 -0.13500534357E+03  0.13500534357E+03  0.00000000000E+00 0. -1.
         25    1    1    2    0    0  0.70696055981E+01  0.35838201023E+02  0.14280646540E+04  0.14339902412E+04  0.12500000000E+03 0.  0.
          1    1    1    2  502    0  0.24498282600E+02  0.90159109876E+01  0.48137764412E+03  0.48208493936E+03  0.00000000000E+00 0. -1.
         -2    1    1    2    0  501 -0.31567888198E+02 -0.44854112011E+02 -0.12597767139E+03  0.13740013326E+03  0.00000000000E+00 0. -1.
<mgrwt>
<rscale>  0 0.37809902E+02</rscale>
<asrwt>0</asrwt>
<pdfrwt beam="1">  1        1 0.29514921E+00 0.26104645E+02</pdfrwt>
<pdfrwt beam="2">  1       -2 0.20770054E-01 0.54763767E+02</pdfrwt>
<totfact> 0.83733972E+01</totfact>
</mgrwt>
</event>
<event>
 5    1  0.7156190E-003  0.1300250E+03  0.7546771E-02  0.1245532E+00
          1   -1    0    0  501    0  0.00000000000E+00  0.00000000000E+00  0.12346666841E+04  0.12346666841E+04  0.00000000000E+00 0. -1.
          1   -1    0    0  502    0 -0.00000000000E+00 -0.00000000000E+00 -0.17319864520E+04  0.17319864520E+04  0.00000000000E+00 0. -1.
         25    1    1    2    0    0 -0.11968604557E+02  0.48376012769E+02 -0.72046044378E+02  0.15264048813E+03  0.12500000000E+03 0.  0.
          1    1    1    2  501    0  0.84016548328E+02  0.67960946013E+02  0.11890245424E+04  0.11939249696E+04  0.00000000000E+00 0. -1.
          1    1    1    2  502    0 -0.72047943771E+02 -0.11633695878E+03 -0.16142982659E+04  0.16200876783E+04  0.00000000000E+00 0. -1.
<mgrwt>
<rscale>  0 0.11853612E+03</rscale>
<asrwt>0</asrwt>
<pdfrwt beam="1">  1        1 0.18994872E+00 0.10806235E+03</pdfrwt>
<pdfrwt beam="2">  1        1 0.26645945E+00 0.13002505E+03</pdfrwt>
<totfact> 0.76517406E+00</totfact>
</mgrwt>
</event>
<event>
 5    1  0.7156190E-003  0.1354902E+03  0.7546771E-02  0.1248753E+00
          2   -1    0    0  501    0  0.00000000000E+00  0.00000000000E+00  0.12837616967E+04  0.12837616967E+04  0.00000000000E+00 0.  1.
          2   -1    0    0  502    0 -0.00000000000E+00 -0.00000000000E+00 -0.23594316159E+03  0.23594316159E+03  0.00000000000E+00 0. -1.
         25    1    1    2    0    0 -0.39379786848E+02 -0.10346345009E+02 -0.27076607256E+02  0.13422353418E+03  0.12500000000E+03 0.  0.
          2    1    1    2  501    0  0.13977092603E+03  0.11987155008E+02  0.12094698496E+04  0.12175783017E+04  0.00000000000E+00 0.  1.
          2    1    1    2  502    0 -0.10039113919E+03 -0.16408099990E+01 -0.13457470727E+03  0.16790302237E+03  0.00000000000E+00 0. -1.
<mgrwt>
<rscale>  0 0.11663548E+03</rscale>
<asrwt>0</asrwt>
<pdfrwt beam="1">  1        2 0.19750180E+00 0.13549023E+03</pdfrwt>
<pdfrwt beam="2">  1        2 0.36298949E-01 0.10040455E+03</pdfrwt>
<totfact> 0.40868497E+02</totfact>
</mgrwt>
</event>
<event>
 5    1  0.7156190E-003  0.5435959E+02  0.7546771E-02  0.1459005E+00
          2   -1    0    0  502    0  0.00000000000E+00  0.00000000000E+00  0.17677413156E+03  0.17677413156E+03  0.00000000000E+00 0. -1.
         -1   -1    0    0    0  501 -0.00000000000E+00 -0.00000000000E+00 -0.80551289559E+02  0.80551289559E+02  0.00000000000E+00 0.  1.
         25    1    1    2    0    0 -0.18130507370E+02  0.55685829837E+02  0.67961614917E+02  0.15386165229E+03  0.12500000000E+03 0.  0.
          2    1    1    2  502    0 -0.23331093213E+02 -0.52310747894E+02  0.22182361840E+02  0.61423215746E+02  0.00000000000E+00 0. -1.
         -1    1    1    2    0  501  0.41461600583E+02 -0.33750819425E+01  0.60788652417E+01  0.42040553084E+02  0.00000000000E+00 0.  1.
<mgrwt>
<rscale>  0 0.47553029E+02</rscale>
<asrwt>0</asrwt>
<pdfrwt beam="1">  1        2 0.27196020E-01 0.54359587E+02</pdfrwt>
<pdfrwt beam="2">  1       -1 0.12392506E-01 0.41598744E+02</pdfrwt>
<totfact> 0.83134432E+03</totfact>
</mgrwt>
</event>
<event>
 5    1  0.7156190E-003  0.9697274E+02  0.7546771E-02  0.1292151E+00
          2   -1    0    0  502    0  0.00000000000E+00  0.00000000000E+00  0.11164923739E+04  0.11164923739E+04  0.00000000000E+00 0. -1.
         -1   -1    0    0    0  501 -0.00000000000E+00 -0.00000000000E+00 -0.10975862812E+03  0.10975862812E+03  0.00000000000E+00 0.  1.
         25    1    1    2    0    0 -0.21523367265E+02 -0.12533245058E+03  0.14833078001E+03  0.23194503402E+03  0.12500000000E+03 0.  0.
          2    1    1    2  502    0  0.80653824884E+02  0.54559221912E+02  0.89113979428E+03  0.89644402007E+03  0.00000000000E+00 0. -1.
         -1    1    1    2    0  501 -0.59130457619E+02  0.70773228665E+02 -0.32736828507E+02  0.97861947940E+02  0.00000000000E+00 0.  1.
<mgrwt>
<rscale>  0 0.94568553E+02</rscale>
<asrwt>0</asrwt>
<pdfrwt beam="1">  1        2 0.17176805E+00 0.96972740E+02</pdfrwt>
<pdfrwt beam="2">  1       -1 0.16885944E-01 0.92223971E+02</pdfrwt>
<totfact> 0.69042654E+02</totfact>
</mgrwt>
</event>
<event>
 5    1  0.7156190E-003  0.1227748E+03  0.7546771E-02  0.1346069E+00
          2   -1    0    0  501    0  0.00000000000E+00  0.00000000000E+00  0.83097438918E+03  0.83097438918E+03  0.00000000000E+00 0. -1.
          3   -1    0    0  502    0 -0.00000000000E+00 -0.00000000000E+00 -0.79266873536E+03  0.79266873536E+03  0.00000000000E+00 0. -1.
         25    1    1    2    0    0  0.24361132581E+02  0.16115761609E+03 -0.15673352594E+03  0.25837112872E+03  0.12500000000E+03 0.  0.
          2    1    1    2  501    0 -0.53855150894E+01 -0.44634302603E+02  0.77354112935E+03  0.77484650321E+03  0.00000000000E+00 0. -1.
          3    1    1    2  502    0 -0.18975617492E+02 -0.11652331349E+03 -0.57850194959E+03  0.59042549261E+03  0.00000000000E+00 0. -1.
<mgrwt>
<rscale>  0 0.74294787E+02</rscale>
<asrwt>0</asrwt>
<pdfrwt beam="1">  1        2 0.12784221E+00 0.44958033E+02</pdfrwt>
<pdfrwt beam="2">  1        3 0.12194904E+00 0.12277484E+03</pdfrwt>
<totfact> 0.12791697E+01</totfact>
</mgrwt>
</event>
<event>
 5    1  0.7156190E-003  0.4261784E+02  0.7546771E-02  0.1588921E+00
          2   -1    0    0  502    0  0.00000000000E+00  0.00000000000E+00  0.44387845379E+03  0.44387845379E+03  0.00000000000E+00 0. -1.
         -1   -1    0    0    0  501 -0.00000000000E+00 -0.00000000000E+00 -0.93560335891E+02  0.93560335891E+02  0.00000000000E+00 0.  1.
         25    1    1    2    0    0  0.63150660565E+02 -0.11672459968E+02  0.20632992866E+03  0.24964232757E+03  0.12500000000E+03 0.  0.
          2    1    1    2  502    0 -0.21500308547E+02  0.60148185694E+01  0.20910413649E+03  0.21029260855E+03  0.00000000000E+00 0. -1.
         -1    1    1    2    0  501 -0.41650352018E+02  0.56576413990E+01 -0.65115947262E+02  0.77503853564E+02  0.00000000000E+00 0.  1.
<mgrwt>
<rscale>  0 0.30846027E+02</rscale>
<asrwt>0</asrwt>
<pdfrwt beam="1">  1        2 0.68288992E-01 0.22325799E+02</pdfrwt>
<pdfrwt beam="2">  1       -1 0.14393898E-01 0.42617842E+02</pdfrwt>
<totfact> 0.25754426E+03</totfact>
</mgrwt>
</event>
<event>
 5    1  0.7156190E-003  0.8373041E+02  0.7546771E-02  0.1395176E+00
          1   -1    0    0  502    0  0.00000000000E+00  0.00000000000E+00  0.16946629717E+03  0.16946629717E+03  0.00000000000E+00 0. -1.
         -2   -1    0    0    0  501 -0.00000000000E+00 -0.00000000000E+00 -0.13635976543E+03  0.13635976543E+03  0.00000000000E+00 0.  1.
         25    1    1    2    0    0 -0.98092027481E+02  0.28164279884E+02 -0.29359789972E+02  0.16401911408E+03  0.12500000000E+03 0.  0.
          1    1    1    2  502    0  0.24144407267E+02 -0.36680398380E+02  0.49635494610E+02  0.66272817601E+02  0.00000000000E+00 0. -1.
         -2    1    1    2    0  501  0.73947620214E+02  0.85161184968E+01  0.12830827100E+02  0.75534130919E+02  0.00000000000E+00 0.  1.
<mgrwt>
<rscale>  0 0.60637477E+02</rscale>
<asrwt>0</asrwt>
<pdfrwt beam="1">  1        1 0.26071738E-01 0.43913597E+02</pdfrwt>
<pdfrwt beam="2">  1       -2 0.20978425E-01 0.83730414E+02</pdfrwt>
<totfact> 0.28334989E+03</totfact>
</mgrwt>
</event>
<event>
 5    1  0.7156190E-003  0.3421878E+02  0.7546771E-02  0.1594599E+00
         -1   -1    0    0    0  501 -0.00000000000E+00  0.00000000000E+00  0.11211561138E+03  0.11211561138E+03  0.00000000000E+00 0.  1.
          2   -1    0    0  502    0  0.00000000000E+00 -0.00000000000E+00 -0.12633930555E+03  0.12633930555E+03  0.00000000000E+00 0. -1.
         25    1    1    2    0    0  0.79231470248E+01  0.26716331292E+02 -0.66711678702E+02  0.14440216997E+03  0.12500000000E+03 0.  0.
          2    1    1    2  502    0  0.26260486304E+02 -0.25165819476E+02  0.46947156983E+02  0.59388274597E+02  0.00000000000E+00 0. -1.
         -1    1    1    2    0  501 -0.34183633329E+02 -0.15505118158E+01  0.55408275459E+01  0.34664472365E+02  0.00000000000E+00 0.  1.
<mgrwt>
<rscale>  0 0.30318109E+02</rscale>
<asrwt>0</asrwt>
<pdfrwt beam="2">  1        2 0.19436816E-01 0.26862084E+02</pdfrwt>
<pdfrwt beam="1">  1       -1 0.17248556E-01 0.34218780E+02</pdfrwt>
<totfact> 0.69076980E+03</totfact>
</mgrwt>
</event>
<event>
 5    1  0.7202078E-003  0.1396542E+03  0.7546771E-02  0.1318507E+00
          2   -1    0    0  502    0  0.00000000000E+00  0.00000000000E+00  0.84443356501E+03  0.84443356501E+03  0.00000000000E+00 0. -1.
         -1   -1    0    0    0  501 -0.00000000000E+00 -0.00000000000E+00 -0.43756962240E+02  0.43756962240E+02  0.00000000000E+00 0.  1.
         25    1    1    2    0    0  0.12475447239E+03  0.10185014259E+03  0.41921425354E+03  0.46615739863E+03  0.12500000000E+03 0.  0.
          2    1    1    2  502    0 -0.74564917054E+02 -0.10556511821E+03  0.29339183550E+03  0.32059739577E+03  0.00000000000E+00 0. -1.
         -1    1    1    2    0  501 -0.50189555340E+02  0.37149756192E+01  0.88070513729E+02  0.10143573284E+03  0.00000000000E+00 0.  1.
<mgrwt>
<rscale>  0 0.83835305E+02</rscale>
<asrwt>0</asrwt>
<pdfrwt beam="1">  1        2 0.12991284E+00 0.13965423E+03</pdfrwt>
<pdfrwt beam="2">  1       -1 0.67318410E-02 0.50326857E+02</pdfrwt>
<totfact> 0.37806189E+03</totfact>
</mgrwt>
</event>
<event>
 5    1  0.7156190E-003  0.4301631E+02  0.7546771E-02  0.1585302E+00
          2   -1    0    0  502    0  0.00000000000E+00  0.00000000000E+00  0.19669108911E+02  0.19669108911E+02  0.00000000000E+00 0. -1.
         -1   -1    0    0    0  501 -0.00000000000E+00 -0.00000000000E+00 -0.59086544159E+03  0.59086544159E+03  0.00000000000E+00 0.  1.
         25    1    1    2    0    0  0.11656546547E+02  0.29085865459E+02 -0.31854169489E+03  0.34362141090E+03  0.12500000000E+03 0.  0.
          2    1    1    2  502    0 -0.15602489599E+02  0.16369578847E+02 -0.21177166918E+02  0.30981820346E+02  0.00000000000E+00 0. -1.
         -1    1    1    2    0  501  0.39459430527E+01 -0.45455444306E+02 -0.23147747087E+03  0.23593131925E+03  0.00000000000E+00 0.  1.
<mgrwt>
<rscale>  0 0.31189395E+02</rscale>
<asrwt>0</asrwt>
<pdfrwt beam="1">  1        2 0.30260169E-02 0.22614172E+02</pdfrwt>
<pdfrwt beam="2">  1       -1 0.90902372E-01 0.43016314E+02</pdfrwt>
<totfact> 0.34820398E+03</totfact>
</mgrwt>
</event>
<event>
 5    1  0.7156190E-003  0.6034665E+02  0.7546771E-02  0.1436599E+00
          1   -1    0    0  502    0  0.00000000000E+00  0.00000000000E+00  0.16348751743E+03  0.16348751743E+03  0.00000000000E+00 0. -1.
         -1   -1    0    0    0  501 -0.00000000000E+00 -0.00000000000E+00 -0.19556948344E+03  0.19556948344E+03  0.00000000000E+00 0.  1.
         25    1    1    2    0    0  0.45434076999E+02  0.43409759026E+02 -0.14452359117E+03  0.20114852954E+03  0.12500000000E+03 0.  0.
          1    1    1    2  502    0 -0.61011847049E+02 -0.20241206198E+01  0.88817359581E+02  0.10777321517E+03  0.00000000000E+00 0. -1.
         -1    1    1    2    0  501  0.15577770050E+02 -0.41385638407E+02  0.23624265582E+02  0.50135256161E+02  0.00000000000E+00 0.  1.
<mgrwt>
<rscale>  0 0.51657999E+02</rscale>
<asrwt>0</asrwt>
<pdfrwt beam="1">  1        1 0.25151926E-01 0.60346646E+02</pdfrwt>
<pdfrwt beam="2">  1       -1 0.30087613E-01 0.44220335E+02</pdfrwt>
<totfact> 0.18031208E+03</totfact>
</mgrwt>
</event>
<event>
 5    1  0.7156190E-003  0.7858637E+02  0.7546771E-02  0.1439938E+00
          1   -1    0    0  501    0  0.00000000000E+00  0.00000000000E+00  0.62423021134E+03  0.62423021134E+03  0.00000000000E+00 0. -1.
          3   -1    0    0  502    0 -0.00000000000E+00 -0.00000000000E+00 -0.80224856601E+02  0.80224856601E+02  0.00000000000E+00 0. -1.
         25    1    1    2    0    0  0.71960768076E+02  0.31077261152E+02  0.94957449387E+02  0.17545958366E+03  0.12500000000E+03 0.  0.
          1    1    1    2  501    0 -0.79112151020E+02  0.12594340518E+01  0.47830505308E+03  0.48480515923E+03  0.00000000000E+00 0. -1.
          3    1    1    2  502    0  0.71513829432E+01 -0.32336695204E+02 -0.29257147732E+02  0.44190325051E+02  0.00000000000E+00 0. -1.
<mgrwt>
<rscale>  0 0.51015938E+02</rscale>
<asrwt>0</asrwt>
<pdfrwt beam="1">  1        1 0.96035414E-01 0.78586368E+02</pdfrwt>
<pdfrwt beam="2">  1        3 0.12342286E-01 0.33118033E+02</pdfrwt>
<totfact> 0.78450029E+02</totfact>
</mgrwt>
</event>
<event>
 5    1  0.7156190E-003  0.9001404E+02  0.7546771E-02  0.1399783E+00
          2   -1    0    0  502    0  0.00000000000E+00  0.00000000000E+00  0.56427827739E+03  0.56427827739E+03  0.00000000000E+00 0. -1.
         -1   -1    0    0    0  501 -0.00000000000E+00 -0.00000000000E+00 -0.17587986841E+03  0.17587986841E+03  0.00000000000E+00 0.  1.
         25    1    1    2    0    0 -0.26417008854E+02 -0.52607547836E+02  0.24677417657E+02  0.14035450612E+03  0.12500000000E+03 0.  0.
          2    1    1    2  502    0 -0.24477149038E+02 -0.30848245217E+02  0.46054021692E+03  0.46222076593E+03  0.00000000000E+00 0. -1.
         -1    1    1    2    0  501  0.50894157892E+02  0.83455793054E+02 -0.96819225605E+02  0.13758287375E+03  0.00000000000E+00 0.  1.
<mgrwt>
<rscale>  0 0.59537449E+02</rscale>
<asrwt>0</asrwt>
<pdfrwt beam="1">  1        2 0.86812042E-01 0.39379500E+02</pdfrwt>
<pdfrwt beam="2">  1       -1 0.27058442E-01 0.90014038E+02</pdfrwt>
<totfact> 0.76805003E+02</totfact>
</mgrwt>
</event>
<event>
 5    1  0.7156190E-003  0.8263298E+02  0.7546771E-02  0.1443933E+00
         -2   -1    0    0    0  501 -0.00000000000E+00  0.00000000000E+00  0.85470175865E+02  0.85470175865E+02  0.00000000000E+00 0.  1.
          2   -1    0    0  502    0  0.00000000000E+00 -0.00000000000E+00 -0.28288476747E+03  0.28288476747E+03  0.00000000000E+00 0. -1.
         25    1    1    2    0    0  0.64229209584E+02 -0.52399779515E+02 -0.15656202579E+03  0.21681281368E+03  0.12500000000E+03 0.  0.
          2    1    1    2  502    0 -0.42095991678E+02  0.73489754941E+02 -0.69565837613E+02  0.10960028449E+03  0.00000000000E+00 0. -1.
         -2    1    1    2    0  501 -0.22133217906E+02 -0.21089975427E+02  0.28713271800E+02  0.41941845165E+02  0.00000000000E+00 0.  1.
<mgrwt>
<rscale>  0 0.50262128E+02</rscale>
<asrwt>0</asrwt>
<pdfrwt beam="2">  1        2 0.43520733E-01 0.82632984E+02</pdfrwt>
<pdfrwt beam="1">  1       -2 0.13149258E-01 0.30572314E+02</pdfrwt>
<totfact> 0.43061631E+03</totfact>
</mgrwt>
</event>
<event>
 5    1  0.7156190E-003  0.1335704E+03  0.7546771E-02  0.1339332E+00
          2   -1    0    0  502    0  0.00000000000E+00  0.00000000000E+00  0.14606547684E+04  0.14606547684E+04  0.00000000000E+00 0. -1.
         -1   -1    0    0    0  501 -0.00000000000E+00 -0.00000000000E+00 -0.90838343725E+02  0.90838343725E+02  0.00000000000E+00 0.  1.
         25    1    1    2    0    0 -0.30192764624E+02 -0.16325002245E+03  0.78064729711E+03  0.80783499265E+03  0.12500000000E+03 0.  0.
          2    1    1    2  502    0  0.30107130812E+02  0.31808008573E+02  0.60913573330E+03  0.61070822029E+03  0.00000000000E+00 0. -1.
         -1    1    1    2    0  501  0.85633811603E-01  0.13144201388E+03 -0.19966605755E+02  0.13294989917E+03  0.00000000000E+00 0.  1.
<mgrwt>
<rscale>  0 0.76485309E+02</rscale>
<asrwt>0</asrwt>
<pdfrwt beam="1">  1        2 0.22471610E+00 0.43797132E+02</pdfrwt>
<pdfrwt beam="2">  1       -1 0.13975131E-01 0.13357045E+03</pdfrwt>
<totfact> 0.65976691E+02</totfact>
</mgrwt>
</event>
<event>
 5    1  0.7156190E-003  0.1100940E+03  0.7546771E-02  0.1385387E+00
         -1   -1    0    0    0  501 -0.00000000000E+00  0.00000000000E+00  0.22135818892E+04  0.22135818892E+04  0.00000000000E+00 0.  1.
          2   -1    0    0  502    0  0.00000000000E+00 -0.00000000000E+00 -0.19161720968E+03  0.19161720968E+03  0.00000000000E+00 0. -1.
         25    1    1    2    0    0 -0.71649304948E+02  0.92057601166E+02  0.11018977116E+04  0.11150837599E+04  0.12500000000E+03 0.  0.
          2    1    1    2  502    0  0.91186678847E+02 -0.61666000269E+02 -0.16832472483E+03  0.20112413823E+03  0.00000000000E+00 0. -1.
         -1    1    1    2    0  501 -0.19537373899E+02 -0.30391600897E+02  0.10883916928E+04  0.10889912008E+04  0.00000000000E+00 0.  1.
<mgrwt>
<rscale>  0 0.63068748E+02</rscale>
<asrwt>0</asrwt>
<pdfrwt beam="2">  1        2 0.29479572E-01 0.11009397E+03</pdfrwt>
<pdfrwt beam="1">  1       -1 0.34055104E+00 0.36129744E+02</pdfrwt>
<totfact> 0.57730369E+00</totfact>
</mgrwt>
</event>
<event>
 5    1  0.7156190E-003  0.4468118E+02  0.7546771E-02  0.1495712E+00
          2   -1    0    0  502    0  0.00000000000E+00  0.00000000000E+00  0.18198582051E+03  0.18198582051E+03  0.00000000000E+00 0. -1.
         -1   -1    0    0    0  501 -0.00000000000E+00 -0.00000000000E+00 -0.67684213758E+02  0.67684213758E+02  0.00000000000E+00 0.  1.
         25    1    1    2    0    0 -0.40174702771E+02 -0.17643246419E+01  0.75446499771E+02  0.15144072739E+03  0.12500000000E+03 0.  0.
          2    1    1    2  502    0  0.35215139813E+02 -0.36931003660E+02  0.25054778326E+02  0.56848456622E+02  0.00000000000E+00 0. -1.
         -1    1    1    2    0  501  0.49595629575E+01  0.38695328302E+02  0.13800328657E+02  0.41380850259E+02  0.00000000000E+00 0.  1.
<mgrwt>
<rscale>  0 0.41750402E+02</rscale>
<asrwt>0</asrwt>
<pdfrwt beam="1">  1        2 0.27997818E-01 0.44681176E+02</pdfrwt>
<pdfrwt beam="2">  1       -1 0.10412956E-01 0.39011866E+02</pdfrwt>
<totfact> 0.10317368E+04</totfact>
</mgrwt>
</event>
<event>
 5    1  0.7156190E-003  0.4002740E+02  0.7546771E-02  0.1522787E+00
          2   -1    0    0  502    0  0.00000000000E+00  0.00000000000E+00  0.33718719628E+04  0.33718719628E+04  0.00000000000E+00 0. -1.
         -1   -1    0    0    0  501 -0.00000000000E+00 -0.00000000000E+00 -0.40164377885E+01  0.40164377885E+01  0.00000000000E+00 0.  1.
         25    1    1    2    0    0 -0.98248523891E+01  0.25008188610E+01  0.12026120990E+04  0.12091334263E+04  0.12500000000E+03 0.  0.
          2    1    1    2  502    0 -0.27924818600E+01 -0.40487604229E+02  0.99550225572E+03  0.99632915505E+03  0.00000000000E+00 0. -1.
         -1    1    1    2    0  501  0.12617334249E+02  0.37986785368E+02  0.11697411703E+04  0.11704258193E+04  0.00000000000E+00 0.  1.
<mgrwt>
<rscale>  0 0.38086095E+02</rscale>
<asrwt>0</asrwt>
<pdfrwt beam="1">  1        2 0.51874727E+00 0.36238939E+02</pdfrwt>
<pdfrwt beam="2">  1       -1 0.61791620E-03 0.40027403E+02</pdfrwt>
<totfact> 0.54350277E+03</totfact>
</mgrwt>
</event>
<event>
 5    1  0.7156190E-003  0.5373247E+02  0.7546771E-02  0.1550471E+00
         -2   -1    0    0    0  501 -0.00000000000E+00  0.00000000000E+00  0.10598336620E+03  0.10598336620E+03  0.00000000000E+00 0.  1.
          1   -1    0    0  502    0  0.00000000000E+00 -0.00000000000E+00 -0.46772170453E+03  0.46772170453E+03  0.00000000000E+00 0. -1.
         25    1    1    2    0    0 -0.18336709975E+02 -0.27405963530E+02 -0.50562582225E+02  0.13881245078E+03  0.12500000000E+03 0.  0.
          1    1    1    2  502    0  0.23743612796E+02  0.49273123029E+02 -0.36889804327E+03  0.37293077928E+03  0.00000000000E+00 0. -1.
         -2    1    1    2    0  501 -0.54069028214E+01 -0.21867159500E+02  0.57722287178E+02  0.61961840674E+02  0.00000000000E+00 0.  1.
<mgrwt>
<rscale>  0 0.34790252E+02</rscale>
<asrwt>0</asrwt>
<pdfrwt beam="2">  1        1 0.71957186E-01 0.53732472E+02</pdfrwt>
<pdfrwt beam="1">  1       -2 0.16305133E-01 0.22525702E+02</pdfrwt>
<totfact> 0.11704110E+03</totfact>
</mgrwt>
</event>
<event>
 5    1  0.7156190E-003  0.4983576E+02  0.7546771E-02  0.1537344E+00
          2   -1    0    0  502    0  0.00000000000E+00  0.00000000000E+00  0.94674657418E+03  0.94674657418E+03  0.00000000000E+00 0. -1.
         -1   -1    0    0    0  501 -0.00000000000E+00 -0.00000000000E+00 -0.22602109567E+02  0.22602109567E+02  0.00000000000E+00 0.  1.
         25    1    1    2    0    0 -0.37518023361E+02  0.40288126141E+02  0.22981107429E+03  0.26733661375E+03  0.12500000000E+03 0.  0.
          2    1    1    2  502    0  0.25465258764E+02  0.71195090789E+01  0.52732412977E+03  0.52798665196E+03  0.00000000000E+00 0. -1.
         -1    1    1    2    0  501  0.12052764597E+02 -0.47407635220E+02  0.16700926055E+03  0.17402541803E+03  0.00000000000E+00 0.  1.
<mgrwt>
<rscale>  0 0.36300763E+02</rscale>
<asrwt>0</asrwt>
<pdfrwt beam="1">  1        2 0.14565329E+00 0.26441763E+02</pdfrwt>
<pdfrwt beam="2">  1       -1 0.34772484E-02 0.49835762E+02</pdfrwt>
<totfact> 0.91069250E+03</totfact>
</mgrwt>
</event>
<event>
 5    1  0.7156190E-003  0.8692656E+02  0.7546771E-02  0.1410025E+00
          2   -1    0    0  502    0  0.00000000000E+00  0.00000000000E+00  0.24107203548E+04  0.24107203548E+04  0.00000000000E+00 0. -1.
          2   -1    0    0  501    0 -0.00000000000E+00 -0.00000000000E+00 -0.95539414374E+03  0.95539414374E+03  0.00000000000E+00 0. -1.
         25    1    1    2    0    0  0.60750278687E+02 -0.61512542636E+01  0.68927611515E+02  0.15525607852E+03  0.12500000000E+03 0.  0.
          2    1    1    2  501    0  0.23645510813E+02  0.29264826386E+02 -0.91100871410E+03  0.91178529129E+03  0.00000000000E+00 0. -1.
          2    1    1    2  502    0 -0.84395789501E+02 -0.23113572123E+02  0.22974073137E+04  0.22990731288E+04  0.00000000000E+00 0. -1.
<mgrwt>
<rscale>  0 0.57188250E+02</rscale>
<asrwt>0</asrwt>
<pdfrwt beam="1">  1        2 0.37088005E+00 0.86926561E+02</pdfrwt>
<pdfrwt beam="2">  1        2 0.14698372E+00 0.37623666E+02</pdfrwt>
<totfact> 0.24931836E+01</totfact>
</mgrwt>
</event>
<event>
 5    1  0.7156190E-003  0.5879216E+02  0.7546771E-02  0.1495722E+00
          3   -1    0    0  502    0  0.00000000000E+00  0.00000000000E+00  0.40028222012E+02  0.40028222012E+02  0.00000000000E+00 0. -1.
         -1   -1    0    0    0  501 -0.00000000000E+00 -0.00000000000E+00 -0.35945294594E+03  0.35945294594E+03  0.00000000000E+00 0.  1.
         25    1    1    2    0    0  0.18100221495E+02 -0.63102311516E+02 -0.15360962780E+03  0.20863949168E+03  0.12500000000E+03 0.  0.
          3    1    1    2  502    0 -0.29114095269E+02  0.55922802903E+01 -0.26667396983E+02  0.39875483747E+02  0.00000000000E+00 0. -1.
         -1    1    1    2    0  501  0.11013873774E+02  0.57510031226E+02 -0.13914769915E+03  0.15096619253E+03  0.00000000000E+00 0.  1.
<mgrwt>
<rscale>  0 0.41748904E+02</rscale>
<asrwt>0</asrwt>
<pdfrwt beam="1">  1        3 0.61581879E-02 0.29646318E+02</pdfrwt>
<pdfrwt beam="2">  1       -1 0.55300454E-01 0.58792158E+02</pdfrwt>
<totfact> 0.19222851E+03</totfact>
</mgrwt>
</event>
<event>
 5    1  0.7156190E-003  0.2023493E+03  0.7546771E-02  0.1260458E+00
          1   -1    0    0  502    0 -0.00000000000E+00  0.00000000000E+00  0.87335198422E+03  0.87335198422E+03  0.00000000000E+00 0. -1.
          2   -1    0    0  501    0  0.00000000000E+00 -0.00000000000E+00 -0.10328543463E+04  0.10328543463E+04  0.00000000000E+00 0. -1.
         25    1    1    2    0    0 -0.53741109810E+02  0.21050315743E+03  0.48849542736E+03  0.54904687297E+03  0.12500000000E+03 0.  0.
          2    1    1    2  501    0  0.57183778505E+02 -0.17710143713E+02 -0.97537818792E+03  0.97721350952E+03  0.00000000000E+00 0. -1.
          1    1    1    2  502    0 -0.34426686944E+01 -0.19279301371E+03  0.32738039849E+03  0.37994594802E+03  0.00000000000E+00 0. -1.
<mgrwt>
<rscale>  0 0.11006057E+03</rscale>
<asrwt>0</asrwt>
<pdfrwt beam="2">  1        2 0.15890067E+00 0.59863459E+02</pdfrwt>
<pdfrwt beam="1">  1        1 0.13436184E+00 0.20234932E+03</pdfrwt>
<totfact> 0.76019803E+01</totfact>
</mgrwt>
</event>
<event>
 5    1  0.7156190E-003  0.6977750E+02  0.7546771E-02  0.1424886E+00
         -2   -1    0    0    0  501 -0.00000000000E+00  0.00000000000E+00  0.61914747502E+02  0.61914747502E+02  0.00000000000E+00 0.  1.
          1   -1    0    0  502    0  0.00000000000E+00 -0.00000000000E+00 -0.37791745749E+03  0.37791745749E+03  0.00000000000E+00 0. -1.
         25    1    1    2    0    0 -0.46084892845E+02  0.70521369322E+02 -0.64583437216E+02  0.16399116209E+03  0.12500000000E+03 0.  0.
          1    1    1    2  502    0  0.40712599839E+02 -0.94308011515E+01 -0.16275324209E+03  0.16803295393E+03  0.00000000000E+00 0. -1.
         -2    1    1    2    0  501  0.53722930065E+01 -0.61090568170E+02 -0.88666030682E+02  0.10780808897E+03  0.00000000000E+00 0.  1.
<mgrwt>
<rscale>  0 0.54000416E+02</rscale>
<asrwt>0</asrwt>
<pdfrwt beam="2">  1        1 0.58141148E-01 0.41790619E+02</pdfrwt>
<pdfrwt beam="1">  1       -2 0.95253457E-02 0.69777501E+02</pdfrwt>
<totfact> 0.38233198E+03</totfact>
</mgrwt>
</event>
<event>
 5    1  0.7156190E-003  0.5359467E+02  0.7546771E-02  0.1521629E+00
          2   -1    0    0  501    0  0.00000000000E+00  0.00000000000E+00  0.92015924400E+03  0.92015924400E+03  0.00000000000E+00 0. -1.
          3   -1    0    0  502    0 -0.00000000000E+00 -0.00000000000E+00 -0.19196987025E+03  0.19196987025E+03  0.00000000000E+00 0. -1.
         25    1    1    2    0    0  0.20877266775E+02  0.19542321019E+02  0.31649669671E+03  0.34148634175E+03  0.12500000000E+03 0.  0.
          2    1    1    2  501    0  0.26609734278E+02  0.59873731413E+01  0.58679478795E+03  0.58742833585E+03  0.00000000000E+00 0. -1.
          3    1    1    2  502    0 -0.47487001054E+02 -0.25529694160E+02 -0.17510211090E+03  0.18321443665E+03  0.00000000000E+00 0. -1.
<mgrwt>
<rscale>  0 0.38233435E+02</rscale>
<asrwt>0</asrwt>
<pdfrwt beam="1">  1        2 0.14156296E+00 0.27275018E+02</pdfrwt>
<pdfrwt beam="2">  1        3 0.29533827E-01 0.53594670E+02</pdfrwt>
<totfact> 0.20304152E+02</totfact>
</mgrwt>
</event>
<event>
 5    1  0.7156190E-003  0.5771864E+02  0.7546771E-02  0.1464277E+00
         -1   -1    0    0    0  501 -0.00000000000E+00  0.00000000000E+00  0.64676158918E+01  0.64676158918E+01  0.00000000000E+00 0.  1.
          2   -1    0    0  502    0  0.00000000000E+00 -0.00000000000E+00 -0.58446246692E+04  0.58446246692E+04  0.00000000000E+00 0. -1.
         25    1    1    2    0    0 -0.48232350083E+02 -0.24362681865E+02 -0.17218078695E+04  0.17271847728E+04  0.12500000000E+03 0.  0.
          2    1    1    2  502    0  0.24424161395E+02  0.53605849053E+02 -0.40201482445E+04  0.40205798132E+04  0.00000000000E+00 0. -1.
         -1    1    1    2    0  501  0.23808188687E+02 -0.29243167188E+02 -0.96200939346E+02  0.10332769913E+03  0.00000000000E+00 0.  1.
<mgrwt>
<rscale>  0 0.46653301E+02</rscale>
<asrwt>0</asrwt>
<pdfrwt beam="2">  1        2 0.89918250E+00 0.57718638E+02</pdfrwt>
<pdfrwt beam="1">  1       -1 0.99500735E-03 0.37709318E+02</pdfrwt>
<totfact> 0.50861347E+00</totfact>
</mgrwt>
</event>
<event>
 5    1  0.7156190E-003  0.5873154E+02  0.7546771E-02  0.1462799E+00
          1   -1    0    0  501    0  0.00000000000E+00  0.00000000000E+00  0.47126216125E+03  0.47126216125E+03  0.00000000000E+00 0.  1.
          3   -1    0    0  502    0 -0.00000000000E+00 -0.00000000000E+00 -0.79715426654E+02  0.79715426654E+02  0.00000000000E+00 0. -1.
         25    1    1    2    0    0  0.89349075671E+02 -0.24095481289E+02  0.16351933576E+03  0.22567104978E+03  0.12500000000E+03 0.  0.
          1    1    1    2  501    0 -0.54787165770E+02  0.96562811908E+01  0.26612619067E+03  0.27187869843E+03  0.00000000000E+00 0.  1.
          3    1    1    2  502    0 -0.34561909901E+02  0.14439200098E+02 -0.38098791832E+02  0.53427839695E+02  0.00000000000E+00 0. -1.
<mgrwt>
<rscale>  0 0.46903080E+02</rscale>
<asrwt>0</asrwt>
<pdfrwt beam="1">  1        1 0.72501870E-01 0.58731540E+02</pdfrwt>
<pdfrwt beam="2">  1        3 0.12263912E-01 0.37456857E+02</pdfrwt>
<totfact> 0.11725109E+03</totfact>
</mgrwt>
</event>
<event>
 5    1  0.7156190E-003  0.1158673E+03  0.7546771E-02  0.1270630E+00
         -1   -1    0    0    0  501 -0.00000000000E+00  0.00000000000E+00  0.24714718249E+03  0.24714718249E+03  0.00000000000E+00 0.  1.
          1   -1    0    0  502    0  0.00000000000E+00 -0.00000000000E+00 -0.46316088357E+03  0.46316088357E+03  0.00000000000E+00 0. -1.
         25    1    1    2    0    0 -0.20148742834E+03 -0.25355769082E+02  0.30345774513E+02  0.24038711454E+03  0.12500000000E+03 0.  0.
          1    1    1    2  502    0  0.11014526375E+03  0.42304396337E+00 -0.32731213753E+03  0.34534822060E+03  0.00000000000E+00 0. -1.
         -1    1    1    2    0  501  0.91342164594E+02  0.24932725119E+02  0.80952661945E+02  0.12457273093E+03  0.00000000000E+00 0.  1.
<mgrwt>
<rscale>  0 0.10474140E+03</rscale>
<asrwt>0</asrwt>
<pdfrwt beam="2">  1        1 0.71255519E-01 0.11586728E+03</pdfrwt>
<pdfrwt beam="1">  1       -1 0.38022644E-01 0.94683852E+02</pdfrwt>
<totfact> 0.34509576E+02</totfact>
</mgrwt>
</event>
<event>
 5    1  0.7156190E-003  0.1859327E+03  0.7546771E-02  0.1185623E+00
          2   -1    0    0  501    0  0.00000000000E+00  0.00000000000E+00  0.33657709509E+03  0.33657709509E+03  0.00000000000E+00 0. -1.
          3   -1    0    0  502    0 -0.00000000000E+00 -0.00000000000E+00 -0.59467830472E+03  0.59467830472E+03  0.00000000000E+00 0. -1.
         25    1    1    2    0    0  0.72624561292E+02  0.44244728507E+02 -0.90757857003E+02  0.17633465771E+03  0.12500000000E+03 0.  0.
          2    1    1    2  501    0  0.84146814752E+02 -0.16580198418E+03  0.23895979037E+03  0.30277510764E+03  0.00000000000E+00 0. -1.
          3    1    1    2  502    0 -0.15677137604E+03  0.12155725568E+03 -0.40630314300E+03  0.45214563446E+03  0.00000000000E+00 0. -1.
<mgrwt>
<rscale>  0 0.16275344E+03</rscale>
<asrwt>0</asrwt>
<pdfrwt beam="1">  1        2 0.51781092E-01 0.18593274E+03</pdfrwt>
<pdfrwt beam="2">  1        3 0.91488969E-01 0.14246378E+03</pdfrwt>
<totfact> 0.65470476E+01</totfact>
</mgrwt>
</event>
<event>
 5    1  0.7156190E-003  0.4531989E+02  0.7546771E-02  0.1517391E+00
          1   -1    0    0  502    0  0.00000000000E+00  0.00000000000E+00  0.81973253921E+03  0.81973253921E+03  0.00000000000E+00 0. -1.
          1   -1    0    0  501    0 -0.00000000000E+00 -0.00000000000E+00 -0.38492982614E+02  0.38492982614E+02  0.00000000000E+00 0. -1.
         25    1    1    2    0    0 -0.44962282776E+02 -0.92098223789E+01  0.18168863534E+03  0.22526026706E+03  0.12500000000E+03 0.  0.
          1    1    1    2  501    0  0.56833288060E+01  0.32692356741E+02  0.15531878345E+01  0.33219012749E+02  0.00000000000E+00 0. -1.
          1    1    1    2  502    0  0.39278953970E+02 -0.23482534362E+02  0.59799773341E+03  0.59974624202E+03  0.00000000000E+00 0. -1.
<mgrwt>
<rscale>  0 0.38779318E+02</rscale>
<asrwt>0</asrwt>
<pdfrwt beam="1">  1        1 0.12611269E+00 0.45319890E+02</pdfrwt>
<pdfrwt beam="2">  1        1 0.59219979E-02 0.33182682E+02</pdfrwt>
<totfact> 0.31672861E+03</totfact>
</mgrwt>
</event>
<event>
 5    1  0.7156190E-003  0.1012338E+03  0.7546771E-02  0.1412831E+00
          2   -1    0    0  501    0  0.00000000000E+00  0.00000000000E+00  0.98685895824E+03  0.98685895824E+03  0.00000000000E+00 0.  1.
          2   -1    0    0  502    0 -0.00000000000E+00 -0.00000000000E+00 -0.29625608775E+04  0.29625608775E+04  0.00000000000E+00 0. -1.
         25    1    1    2    0    0 -0.69559232074E+01  0.93724188524E+02 -0.85907824225E+03  0.87319701940E+03  0.12500000000E+03 0.  0.
          2    1    1    2  501    0  0.38563917590E+02 -0.93639723841E+02  0.97706320907E+03  0.98229735220E+03  0.00000000000E+00 0.  1.
          2    1    1    2  502    0 -0.31607994383E+02 -0.84464682458E-01 -0.20936868861E+04  0.20939254641E+04  0.00000000000E+00 0. -1.
<mgrwt>
<rscale>  0 0.56566858E+02</rscale>
<asrwt>0</asrwt>
<pdfrwt beam="1">  1        2 0.15182446E+00 0.10123382E+03</pdfrwt>
<pdfrwt beam="2">  1        2 0.45577859E+00 0.31608107E+02</pdfrwt>
<totfact> 0.13676623E+01</totfact>
</mgrwt>
</event>
<event>
 5    1  0.7156190E-003  0.6720075E+02  0.7546771E-02  0.1402290E+00
         -1   -1    0    0    0  501  0.00000000000E+00  0.00000000000E+00  0.87185492109E+03  0.87185492109E+03  0.00000000000E+00 0.  1.
         -1   -1    0    0    0  502 -0.00000000000E+00 -0.00000000000E+00 -0.50825549750E+03  0.50825549750E+03  0.00000000000E+00 0.  1.
         25    1    1    2    0    0 -0.59271750918E+02 -0.64819966742E+02 -0.15906524616E+03  0.22054822847E+03  0.12500000000E+03 0.  0.
         -1    1    1    2    0  501  0.51697351359E+02 -0.12731078891E+01  0.83683215023E+03  0.83842846123E+03  0.00000000000E+00 0.  1.
         -1    1    1    2    0  502  0.75743995585E+01  0.66093074631E+02 -0.31416748048E+03  0.32113372889E+03  0.00000000000E+00 0.  1.
<mgrwt>
<rscale>  0 0.58950439E+02</rscale>
<asrwt>0</asrwt>
<pdfrwt beam="1">  1       -1 0.13413153E+00 0.51713025E+02</pdfrwt>
<pdfrwt beam="2">  1       -1 0.78193153E-01 0.67200753E+02</pdfrwt>
<totfact> 0.84598121E+00</totfact>
</mgrwt>
</event>
<event>
 5    1  0.7156190E-003  0.4604234E+02  0.7546771E-02  0.1502524E+00
         -1   -1    0    0    0  501 -0.00000000000E+00  0.00000000000E+00  0.93755990350E+03  0.93755990350E+03  0.00000000000E+00 0.  1.
          2   -1    0    0  502    0  0.00000000000E+00 -0.00000000000E+00 -0.16840525367E+02  0.16840525367E+02  0.00000000000E+00 0. -1.
         25    1    1    2    0    0  0.45597366613E+02  0.37215214199E+02  0.67920117473E+03  0.69311133865E+03  0.12500000000E+03 0.  0.
          2    1    1    2  502    0 -0.45873908914E+02 -0.10911363095E+01  0.56545091913E+02  0.72821380906E+02  0.00000000000E+00 0. -1.
         -1    1    1    2    0  501  0.27654230104E+00 -0.36124077890E+02  0.18497311148E+03  0.18846770930E+03  0.00000000000E+00 0.  1.
<mgrwt>
<rscale>  0 0.40783400E+02</rscale>
<asrwt>0</asrwt>
<pdfrwt beam="2">  1        2 0.25908508E-02 0.46042337E+02</pdfrwt>
<pdfrwt beam="1">  1       -1 0.14423994E+00 0.36125136E+02</pdfrwt>
<totfact> 0.16958137E+03</totfact>
</mgrwt>
</event>
<event>
 5    1  0.7156190E-003  0.1639322E+03  0.7546771E-02  0.1214352E+00
          1   -1    0    0  502    0  0.00000000000E+00  0.00000000000E+00  0.85196732462E+03  0.85196732462E+03  0.00000000000E+00 0. -1.
          1   -1    0    0  501    0 -0.00000000000E+00 -0.00000000000E+00 -0.54234251852E+03  0.54234251852E+03  0.00000000000E+00 0. -1.
         25    1    1    2    0    0  0.18288933984E+03  0.82841198096E+02  0.11334545782E+03  0.26226583372E+03  0.12500000000E+03 0.  0.
          1    1    1    2  501    0 -0.22837066017E+02 -0.11604481578E+03 -0.45006758464E+03  0.46534800053E+03  0.00000000000E+00 0. -1.
          1    1    1    2  502    0 -0.16005227382E+03  0.33203617686E+02  0.64634693292E+03  0.66669600889E+03  0.00000000000E+00 0. -1.
<mgrwt>
<rscale>  0 0.13924208E+03</rscale>
<asrwt>0</asrwt>
<pdfrwt beam="1">  1        1 0.13107190E+00 0.16393219E+03</pdfrwt>
<pdfrwt beam="2">  1        1 0.83437310E-01 0.11827058E+03</pdfrwt>
<totfact> 0.10691762E+02</totfact>
</mgrwt>
</event>
<event>
 5    1  0.7156190E-003  0.2895005E+03  0.7546771E-02  0.1232772E+00
          2   -1    0    0  502    0  0.00000000000E+00  0.00000000000E+00  0.38437182512E+03  0.38437182512E+03  0.00000000000E+00 0. -1.
         -2   -1    0    0    0  501 -0.00000000000E+00 -0.00000000000E+00 -0.43388387176E+03  0.43388387176E+03  0.00000000000E+00 0.  1.
         25    1    1    2    0    0  0.28115346502E+03 -0.18101785331E+02  0.17958730162E+03  0.35672334438E+03  0.12500000000E+03 0.  0.
          2    1    1    2  502    0 -0.31013255334E+03 -0.28949364802E+02 -0.11016686424E+03  0.33038917104E+03  0.00000000000E+00 0. -1.
         -2    1    1    2    0  501  0.28979088321E+02  0.47051150132E+02 -0.11893248402E+03  0.13114318146E+03  0.00000000000E+00 0.  1.
<mgrwt>
<rscale>  0 0.12648169E+03</rscale>
<asrwt>0</asrwt>
<pdfrwt beam="1">  1        2 0.59134127E-01 0.28950051E+03</pdfrwt>
<pdfrwt beam="2">  1       -2 0.66751365E-01 0.55259373E+02</pdfrwt>
<totfact> 0.18083533E+02</totfact>
</mgrwt>
</event>
<event>
 5    1  0.7156190E-003  0.1094967E+03  0.7546771E-02  0.1284238E+00
         -3   -1    0    0    0  501 -0.00000000000E+00  0.00000000000E+00  0.16709686952E+03  0.16709686952E+03  0.00000000000E+00 0.  1.
          2   -1    0    0  502    0  0.00000000000E+00 -0.00000000000E+00 -0.93294702303E+03  0.93294702303E+03  0.00000000000E+00 0. -1.
         25    1    1    2    0    0 -0.13493285845E+03 -0.62707693758E+02 -0.49033140388E+03  0.52743626798E+03  0.12500000000E+03 0.  0.
          2    1    1    2  502    0  0.10071043780E+03 -0.18340278030E+02 -0.40406946212E+03  0.41683460544E+03  0.00000000000E+00 0. -1.
         -3    1    1    2    0  501  0.34222420650E+02  0.81047971788E+02  0.12855071250E+03  0.15577301913E+03  0.00000000000E+00 0.  1.
<mgrwt>
<rscale>  0 0.98148815E+02</rscale>
<asrwt>0</asrwt>
<pdfrwt beam="2">  1        2 0.14353031E+00 0.10949672E+03</pdfrwt>
<pdfrwt beam="1">  1       -3 0.25707211E-01 0.87976973E+02</pdfrwt>
<totfact> 0.25067897E+02</totfact>
</mgrwt>
</event>
<event>
 5    1  0.7156190E-003  0.1643467E+03  0.7546771E-02  0.1320026E+00
          1   -1    0    0  501    0  0.00000000000E+00  0.00000000000E+00  0.18026504862E+03  0.18026504862E+03  0.00000000000E+00 0. -1.
          1   -1    0    0  502    0 -0.00000000000E+00 -0.00000000000E+00 -0.78179227620E+03  0.78179227620E+03  0.00000000000E+00 0. -1.
         25    1    1    2    0    0 -0.32377741987E+01 -0.18658157156E+03 -0.49572250591E+03  0.54423245850E+03  0.12500000000E+03 0.  0.
          1    1    1    2  501    0 -0.29584037423E+02  0.16007540833E+03  0.11095128891E+03  0.19700137089E+03  0.00000000000E+00 0. -1.
          1    1    1    2  502    0  0.32821811621E+02  0.26506163228E+02 -0.21675601058E+03  0.22082349542E+03  0.00000000000E+00 0. -1.
<mgrwt>
<rscale>  0 0.83267636E+02</rscale>
<asrwt>0</asrwt>
<pdfrwt beam="1">  1        1 0.27733085E-01 0.16434671E+03</pdfrwt>
<pdfrwt beam="2">  1        1 0.12027573E+00 0.42188245E+02</pdfrwt>
<totfact> 0.51879106E+02</totfact>
</mgrwt>
</event>
<event>
 5    1  0.7156190E-003  0.1181610E+03  0.7546771E-02  0.1292660E+00
         -1   -1    0    0    0  501 -0.00000000000E+00  0.00000000000E+00  0.36474705025E+03  0.36474705025E+03  0.00000000000E+00 0.  1.
          3   -1    0    0  502    0  0.00000000000E+00 -0.00000000000E+00 -0.87457401160E+03  0.87457401160E+03  0.00000000000E+00 0. -1.
         25    1    1    2    0    0 -0.49411329304E+02  0.15041003587E+03 -0.51207329144E+03  0.55037143291E+03  0.12500000000E+03 0.  0.
          3    1    1    2  502    0 -0.33912065847E+02 -0.67262526149E+02 -0.32894584244E+03  0.33746057976E+03  0.00000000000E+00 0. -1.
         -1    1    1    2    0  501  0.83323395151E+02 -0.83147509719E+02  0.33119217253E+03  0.35148904919E+03  0.00000000000E+00 0.  1.
<mgrwt>
<rscale>  0 0.94344103E+02</rscale>
<asrwt>0</asrwt>
<pdfrwt beam="2">  1        3 0.13454985E+00 0.75327788E+02</pdfrwt>
<pdfrwt beam="1">  1       -1 0.56114931E-01 0.11816104E+03</pdfrwt>
<totfact> 0.68970590E+00</totfact>
</mgrwt>
</event>
<event>
 5    1  0.7156190E-003  0.1487070E+03  0.7546771E-02  0.1422221E+00
         -1   -1    0    0    0  501 -0.00000000000E+00  0.00000000000E+00  0.23185506771E+03  0.23185506771E+03  0.00000000000E+00 0.  1.
          2   -1    0    0  502    0  0.00000000000E+00 -0.00000000000E+00 -0.23024964332E+03  0.23024964332E+03  0.00000000000E+00 0. -1.
         25    1    1    2    0    0 -0.13945129439E+03  0.53689528698E+02  0.14294298191E+03  0.24163386575E+03  0.12500000000E+03 0.  0.
          2    1    1    2  502    0  0.14475181254E+03 -0.34390894705E+02 -0.12930934493E+03  0.19712109871E+03  0.00000000000E+00 0. -1.
         -1    1    1    2    0  501 -0.53005181563E+01 -0.19298633993E+02 -0.12028212591E+02  0.23349746570E+02  0.00000000000E+00 0.  1.
<mgrwt>
<rscale>  0 0.54553827E+02</rscale>
<asrwt>0</asrwt>
<pdfrwt beam="2">  1        2 0.35423022E-01 0.14870700E+03</pdfrwt>
<pdfrwt beam="1">  1       -1 0.35670010E-01 0.20013315E+02</pdfrwt>
<totfact> 0.12034510E+03</totfact>
</mgrwt>
</event>
<event>
 5    1  0.7156190E-003  0.3209264E+03  0.7546771E-02  0.1088459E+00
          3   -1    0    0  502    0 -0.00000000000E+00  0.00000000000E+00  0.22722909175E+04  0.22722909175E+04  0.00000000000E+00 0. -1.
          2   -1    0    0  501    0  0.00000000000E+00 -0.00000000000E+00 -0.23875728639E+03  0.23875728639E+03  0.00000000000E+00 0. -1.
         25    1    1    2    0    0  0.37919211250E+02  0.97933465409E+00  0.14180938323E+02  0.13139606040E+03  0.12500000000E+03 0.  0.
          2    1    1    2  501    0  0.37881194387E+02 -0.31868289047E+03 -0.13030546033E+02  0.32119085400E+03  0.00000000000E+00 0. -1.
          3    1    1    2  502    0 -0.75800405637E+02  0.31770355581E+03  0.20323832388E+04  0.20584612895E+04  0.00000000000E+00 0. -1.
<mgrwt>
<rscale>  0 0.29365006E+03</rscale>
<asrwt>0</asrwt>
<pdfrwt beam="2">  1        2 0.36731892E-01 0.32092642E+03</pdfrwt>
<pdfrwt beam="1">  1        3 0.34958320E+00 0.26869199E+03</pdfrwt>
<totfact> 0.20836142E+00</totfact>
</mgrwt>
</event>
<event>
 5    1  0.7156190E-003  0.9888890E+02  0.7546771E-02  0.1426956E+00
          1   -1    0    0  502    0  0.00000000000E+00  0.00000000000E+00  0.13036787853E+04  0.13036787853E+04  0.00000000000E+00 0. -1.
         -2   -1    0    0    0  501 -0.00000000000E+00 -0.00000000000E+00 -0.39275686715E+02  0.39275686715E+02  0.00000000000E+00 0. -1.
         25    1    1    2    0    0 -0.34501302056E+02  0.11317499878E+03  0.27739754622E+03  0.32645569200E+03  0.12500000000E+03 0.  0.
          1    1    1    2  502    0  0.31009876025E+01 -0.28860255674E+02  0.86196198706E+03  0.86245057691E+03  0.00000000000E+00 0. -1.
         -2    1    1    2    0  501  0.31400314454E+02 -0.84314743106E+02  0.12504356529E+03  0.15404820309E+03  0.00000000000E+00 0. -1.
<mgrwt>
<rscale>  0 0.53575987E+02</rscale>
<asrwt>0</asrwt>
<pdfrwt beam="1">  1        1 0.20056593E+00 0.29026376E+02</pdfrwt>
<pdfrwt beam="2">  1       -2 0.60424143E-02 0.98888901E+02</pdfrwt>
<totfact> 0.13989677E+03</totfact>
</mgrwt>
</event>
<event>
 5    1  0.7156190E-003  0.5293834E+02  0.7546771E-02  0.1440013E+00
          1   -1    0    0  502    0  0.00000000000E+00  0.00000000000E+00  0.16279691741E+04  0.16279691741E+04  0.00000000000E+00 0. -1.
         -1   -1    0    0    0  501 -0.00000000000E+00 -0.00000000000E+00 -0.12765158329E+03  0.12765158329E+03  0.00000000000E+00 0.  1.
         25    1    1    2    0    0 -0.34287070019E+02  0.93331497096E+02  0.48574938320E+03  0.51133534476E+03  0.12500000000E+03 0.  0.
          1    1    1    2  502    0  0.69171388721E+01 -0.48646321979E+02  0.11228848063E+04  0.11239593408E+04  0.00000000000E+00 0. -1.
         -1    1    1    2    0  501  0.27369931147E+02 -0.44685175117E+02 -0.10831659873E+03  0.12032607185E+03  0.00000000000E+00 0.  1.
<mgrwt>
<rscale>  0 0.51001561E+02</rscale>
<asrwt>0</asrwt>
<pdfrwt beam="1">  1        1 0.25045678E+00 0.49135643E+02</pdfrwt>
<pdfrwt beam="2">  1       -1 0.19638706E-01 0.52938336E+02</pdfrwt>
<totfact> 0.13864424E+02</totfact>
</mgrwt>
</event>
<event>
 5    1  0.7156190E-003  0.7933740E+02  0.7546771E-02  0.1423460E+00
          3   -1    0    0  502    0  0.00000000000E+00  0.00000000000E+00  0.13735994111E+04  0.13735994111E+04  0.00000000000E+00 0. -1.
         -1   -1    0    0    0  501 -0.00000000000E+00 -0.00000000000E+00 -0.19464556954E+03  0.19464556954E+03  0.00000000000E+00 0.  1.
         25    1    1    2    0    0  0.20771868020E+01  0.67406930196E+02  0.10501167093E+04  0.10596783060E+04  0.12500000000E+03 0.  0.
          3    1    1    2  502    0 -0.24106833396E+02 -0.97330299293E+02  0.30887042534E+03  0.32473876613E+03  0.00000000000E+00 0. -1.
         -1    1    1    2    0  501  0.22029646594E+02  0.29923369097E+02 -0.18003329309E+03  0.18382790856E+03  0.00000000000E+00 0.  1.
<mgrwt>
<rscale>  0 0.54295630E+02</rscale>
<asrwt>0</asrwt>
<pdfrwt beam="1">  1        3 0.21132298E+00 0.79337404E+02</pdfrwt>
<pdfrwt beam="2">  1       -1 0.29945473E-01 0.37157951E+02</pdfrwt>
<totfact> 0.64279101E+00</totfact>
</mgrwt>
</event>
<event>
 5    1  0.7156190E-003  0.5285757E+02  0.7546771E-02  0.1508382E+00
          2   -1    0    0  501    0  0.00000000000E+00  0.00000000000E+00  0.14523418071E+04  0.14523418071E+04  0.00000000000E+00 0. -1.
          1   -1    0    0  502    0 -0.00000000000E+00 -0.00000000000E+00 -0.17967853937E+02  0.17967853937E+02  0.00000000000E+00 0. -1.
         25    1    1    2    0    0  0.11475023891E+02  0.42168266723E+02  0.36276441373E+03  0.38617723750E+03  0.12500000000E+03 0.  0.
          2    1    1    2  501    0 -0.40860490858E+02 -0.35051653632E+02  0.10360874040E+04  0.10374850875E+04  0.00000000000E+00 0. -1.
          1    1    1    2  502    0  0.29385466967E+02 -0.71166130915E+01  0.35522135447E+02  0.46647336017E+02  0.00000000000E+00 0. -1.
<mgrwt>
<rscale>  0 0.39976814E+02</rscale>
<asrwt>0</asrwt>
<pdfrwt beam="1">  1        2 0.22343711E+00 0.52857568E+02</pdfrwt>
<pdfrwt beam="2">  1        1 0.27642864E-02 0.30234944E+02</pdfrwt>
<totfact> 0.65330042E+03</totfact>
</mgrwt>
</event>
<event>
 5    1  0.7156190E-003  0.8567467E+02  0.7546771E-02  0.1354557E+00
          2   -1    0    0  502    0  0.00000000000E+00  0.00000000000E+00  0.64163819419E+03  0.64163819419E+03  0.00000000000E+00 0. -1.
         -1   -1    0    0    0  501 -0.00000000000E+00 -0.00000000000E+00 -0.57344435979E+03  0.57344435979E+03  0.00000000000E+00 0.  1.
         25    1    1    2    0    0  0.63528468469E+02 -0.11445870243E+02  0.98150600897E+01  0.14102556384E+03  0.12500000000E+03 0.  0.
          2    1    1    2  502    0 -0.73571181541E+02 -0.47634797548E+02  0.56103557752E+03  0.56784039301E+03  0.00000000000E+00 0. -1.
         -1    1    1    2    0  501  0.10042713071E+02  0.59080667791E+02 -0.50265680321E+03  0.50621659712E+03  0.00000000000E+00 0.  1.
<mgrwt>
<rscale>  0 0.71654191E+02</rscale>
<asrwt>0</asrwt>
<pdfrwt beam="1">  1        2 0.98713568E-01 0.85674667E+02</pdfrwt>
<pdfrwt beam="2">  1       -1 0.88222210E-01 0.59928135E+02</pdfrwt>
<totfact> 0.77467451E+01</totfact>
</mgrwt>
</event>
<event>
 5    1  0.7156190E-003  0.1632497E+03  0.7546771E-02  0.1385845E+00
         -1   -1    0    0    0  501 -0.00000000000E+00  0.00000000000E+00  0.73242461643E+03  0.73242461643E+03  0.00000000000E+00 0.  1.
          2   -1    0    0  502    0  0.00000000000E+00 -0.00000000000E+00 -0.19780046747E+03  0.19780046747E+03  0.00000000000E+00 0. -1.
         25    1    1    2    0    0 -0.15224528942E+03  0.63128187185E+02  0.13472496734E+03  0.24685950051E+03  0.12500000000E+03 0.  0.
          2    1    1    2  502    0  0.13991936627E+03 -0.84041500174E+02 -0.94345921987E+02  0.18852468221E+03  0.00000000000E+00 0. -1.
         -1    1    1    2    0  501  0.12325923150E+02  0.20913312989E+02  0.49424510360E+03  0.49484090118E+03  0.00000000000E+00 0.  1.
<mgrwt>
<rscale>  0 0.62951971E+02</rscale>
<asrwt>0</asrwt>
<pdfrwt beam="2">  1        2 0.30430841E-01 0.16324965E+03</pdfrwt>
<pdfrwt beam="1">  1       -1 0.11268071E+00 0.24275400E+02</pdfrwt>
<totfact> 0.16920527E+02</totfact>
</mgrwt>
</event>
<event>
 5    1  0.7156190E-003  0.7247046E+02  0.7546771E-02  0.1477479E+00
          1   -1    0    0  502    0 -0.00000000000E+00  0.00000000000E+00  0.39499548417E+03  0.39499548417E+03  0.00000000000E+00 0. -1.
          2   -1    0    0  501    0  0.00000000000E+00 -0.00000000000E+00 -0.96023371237E+03  0.96023371237E+03  0.00000000000E+00 0. -1.
         25    1    1    2    0    0 -0.90794653670E+02 -0.37869210348E+02 -0.16476502588E+03  0.22902021740E+03  0.12500000000E+03 0.  0.
          2    1    1    2  501    0  0.66339900696E+02  0.25674665793E+02 -0.76116588925E+03  0.76448262364E+03  0.00000000000E+00 0. -1.
          1    1    1    2  502    0  0.24454752974E+02  0.12194544554E+02  0.36069268693E+03  0.36172635550E+03  0.00000000000E+00 0. -1.
<mgrwt>
<rscale>  0 0.44501345E+02</rscale>
<asrwt>0</asrwt>
<pdfrwt beam="2">  1        2 0.14772826E+00 0.72470463E+02</pdfrwt>
<pdfrwt beam="1">  1        1 0.60768536E-01 0.27326578E+02</pdfrwt>
<totfact> 0.25575134E+02</totfact>
</mgrwt>
</event>
<event>
 5    1  0.7156190E-003  0.9385686E+02  0.7546771E-02  0.1420021E+00
          2   -1    0    0  501    0  0.00000000000E+00  0.00000000000E+00  0.11209504435E+04  0.11209504435E+04  0.00000000000E+00 0. -1.
          1   -1    0    0  502    0 -0.00000000000E+00 -0.00000000000E+00 -0.32011110071E+04  0.32011110071E+04  0.00000000000E+00 0. -1.
         25    1    1    2    0    0 -0.20150946819E+02 -0.67358239867E+02 -0.37971920026E+02  0.14835787760E+03  0.12500000000E+03 0.  0.
          2    1    1    2  501    0  0.17924835839E+02 -0.26808762438E+02  0.10647995998E+04  0.10652878471E+04  0.00000000000E+00 0. -1.
          1    1    1    2  502    0  0.22261109796E+01  0.94167002305E+02 -0.31069882434E+04  0.31084157258E+04  0.00000000000E+00 0. -1.
<mgrwt>
<rscale>  0 0.55016420E+02</rscale>
<asrwt>0</asrwt>
<pdfrwt beam="1">  1        2 0.17245392E+00 0.32249178E+02</pdfrwt>
<pdfrwt beam="2">  1        1 0.49247860E+00 0.93856856E+02</pdfrwt>
<totfact> 0.21684372E+00</totfact>
</mgrwt>
</event>
<event>
 5    1  0.7156190E-003  0.1182312E+03  0.7546771E-02  0.1255965E+00
          1   -1    0    0  502    0 -0.00000000000E+00  0.00000000000E+00  0.12373946014E+04  0.12373946014E+04  0.00000000000E+00 0. -1.
          2   -1    0    0  501    0  0.00000000000E+00 -0.00000000000E+00 -0.23375646826E+03  0.23375646826E+03  0.00000000000E+00 0. -1.
         25    1    1    2    0    0  0.20195749056E+02 -0.25243393505E+01 -0.32633943755E+02  0.13078308321E+03  0.12500000000E+03 0.  0.
          2    1    1    2  501    0  0.83997328281E+02  0.66433764398E+02 -0.12959064990E+03  0.16811523652E+03  0.00000000000E+00 0. -1.
          1    1    1    2  502    0 -0.10419307734E+03 -0.63909425048E+02  0.11658627268E+04  0.11722527499E+04  0.00000000000E+00 0. -1.
<mgrwt>
<rscale>  0 0.11252459E+03</rscale>
<asrwt>0</asrwt>
<pdfrwt beam="2">  1        2 0.35962534E-01 0.10709340E+03</pdfrwt>
<pdfrwt beam="1">  1        1 0.19036840E+00 0.11823121E+03</pdfrwt>
<totfact> 0.22257819E+02</totfact>
</mgrwt>
</event>
<event>
 5    1  0.7156190E-003  0.1069587E+03  0.7546771E-02  0.1305222E+00
         -3   -1    0    0    0  501 -0.00000000000E+00  0.00000000000E+00  0.69617858607E+03  0.69617858607E+03  0.00000000000E+00 0.  1.
          2   -1    0    0  502    0  0.00000000000E+00 -0.00000000000E+00 -0.11745934147E+04  0.11745934147E+04  0.00000000000E+00 0. -1.
         25    1    1    2    0    0  0.13504992251E+03 -0.56858755414E+01 -0.65702427304E+02  0.19548048420E+03  0.12500000000E+03 0.  0.
          2    1    1    2  502    0 -0.91717431228E+02 -0.54427994394E+02 -0.10390883647E+04  0.10445473295E+04  0.00000000000E+00 0. -1.
         -3    1    1    2    0  501 -0.43332491283E+02  0.60113869936E+02  0.62637596336E+03  0.63074418716E+03  0.00000000000E+00 0.  1.
<mgrwt>
<rscale>  0 0.89028360E+02</rscale>
<asrwt>0</asrwt>
<pdfrwt beam="2">  1        2 0.18070668E+00 0.10695865E+03</pdfrwt>
<pdfrwt beam="1">  1       -3 0.10710440E+00 0.74103861E+02</pdfrwt>
<totfact> 0.10347044E+01</totfact>
</mgrwt>
</event>
<event>
 5    1  0.7156190E-003  0.1593661E+03  0.7546771E-02  0.1241582E+00
          3   -1    0    0  502    0  0.00000000000E+00  0.00000000000E+00  0.35941208587E+03  0.35941208587E+03  0.00000000000E+00 0. -1.
         -3   -1    0    0    0  501 -0.00000000000E+00 -0.00000000000E+00 -0.34222826066E+03  0.34222826066E+03  0.00000000000E+00 0.  1.
         25    1    1    2    0    0  0.60875092927E+02 -0.22736354142E+03 -0.20244923842E+01  0.26651276794E+03  0.12500000000E+03 0.  0.
          3    1    1    2  502    0 -0.31959005967E+02  0.86008108201E+02  0.19033304054E+03  0.21129467353E+03  0.00000000000E+00 0. -1.
         -3    1    1    2    0  501 -0.28916086960E+02  0.14135543322E+03 -0.17112472295E+03  0.22383290506E+03  0.00000000000E+00 0.  1.
<mgrwt>
<rscale>  0 0.12092334E+03</rscale>
<asrwt>0</asrwt>
<pdfrwt beam="1">  1        3 0.55294167E-01 0.91753870E+02</pdfrwt>
<pdfrwt beam="2">  1       -3 0.52650501E-01 0.15936609E+03</pdfrwt>
<totfact> 0.27588861E+01</totfact>
</mgrwt>
</event>
<event>
 5    1  0.7156190E-003  0.6669147E+02  0.7546771E-02  0.1382937E+00
          2   -1    0    0  502    0  0.00000000000E+00  0.00000000000E+00  0.17468510773E+03  0.17468510773E+03  0.00000000000E+00 0. -1.
         -1   -1    0    0    0  501 -0.00000000000E+00 -0.00000000000E+00 -0.13291849596E+04  0.13291849596E+04  0.00000000000E+00 0.  1.
         25    1    1    2    0    0  0.10628545977E+03 -0.50967223488E+02 -0.45801876186E+03  0.48918344519E+03  0.12500000000E+03 0.  0.
          2    1    1    2  502    0 -0.45525745148E+02  0.47860645231E+02  0.15110911875E+03  0.16491573789E+03  0.00000000000E+00 0. -1.
         -1    1    1    2    0  501 -0.60759714618E+02  0.31065782569E+01 -0.84759020871E+03  0.84977088421E+03  0.00000000000E+00 0.  1.
<mgrwt>
<rscale>  0 0.63698097E+02</rscale>
<asrwt>0</asrwt>
<pdfrwt beam="1">  1        2 0.26874633E-01 0.66691468E+02</pdfrwt>
<pdfrwt beam="2">  1       -1 0.20448999E+00 0.60839081E+02</pdfrwt>
<totfact> 0.39039596E+01</totfact>
</mgrwt>
</event>
<event>
 5    1  0.7156190E-003  0.8693324E+02  0.7546771E-02  0.1468104E+00
          1   -1    0    0  502    0  0.00000000000E+00  0.00000000000E+00  0.25661449587E+04  0.25661449587E+04  0.00000000000E+00 0. -1.
          1   -1    0    0  501    0 -0.00000000000E+00 -0.00000000000E+00 -0.67437872403E+03  0.67437872403E+03  0.00000000000E+00 0. -1.
         25    1    1    2    0    0  0.83791784166E+02  0.67164613185E+02 -0.95779579991E+02  0.19060660089E+03  0.12500000000E+03 0.  0.
          1    1    1    2  501    0 -0.93293650395E+01 -0.22498680204E+02 -0.53015759420E+03  0.53071678167E+03  0.00000000000E+00 0. -1.
          1    1    1    2  502    0 -0.74462419126E+02 -0.44665932981E+02  0.25177034089E+04  0.25192003002E+04  0.00000000000E+00 0. -1.
<mgrwt>
<rscale>  0 0.46014879E+02</rscale>
<asrwt>0</asrwt>
<pdfrwt beam="1">  1        1 0.39479153E+00 0.86933240E+02</pdfrwt>
<pdfrwt beam="2">  1        1 0.10375057E+00 0.24356265E+02</pdfrwt>
<totfact> 0.66817270E+00</totfact>
</mgrwt>
</event>
<event>
 5    1  0.7156190E-003  0.3107150E+03  0.7546771E-02  0.1168734E+00
          2   -1    0    0  501    0  0.00000000000E+00  0.00000000000E+00  0.20734787938E+04  0.20734787938E+04  0.00000000000E+00 0.  1.
          2   -1    0    0  502    0 -0.00000000000E+00 -0.00000000000E+00 -0.43172025191E+03  0.43172025191E+03  0.00000000000E+00 0. -1.
         25    1    1    2    0    0 -0.24025125941E+03 -0.29759698329E+03 -0.38402272301E+00  0.40238014313E+03  0.12500000000E+03 0.  0.
          2    1    1    2  501    0  0.14010728859E+03  0.27280105650E+03  0.18476183778E+04  0.18728972579E+04  0.00000000000E+00 0.  1.
          2    1    1    2  502    0  0.10014397081E+03  0.24795926792E+02 -0.20547581319E+03  0.22992164466E+03  0.00000000000E+00 0. -1.
<mgrwt>
<rscale>  0 0.17904152E+03</rscale>
<asrwt>0</asrwt>
<pdfrwt beam="1">  1        2 0.31899673E+00 0.31071498E+03</pdfrwt>
<pdfrwt beam="2">  1        2 0.66418502E-01 0.10316808E+03</pdfrwt>
<totfact> 0.77428129E+01</totfact>
</mgrwt>
</event>
<event>
 5    1  0.7156190E-003  0.7499090E+02  0.7546771E-02  0.1474866E+00
          1   -1    0    0  502    0  0.00000000000E+00  0.00000000000E+00  0.11647511131E+04  0.11647511131E+04  0.00000000000E+00 0. -1.
         -2   -1    0    0    0  501 -0.00000000000E+00 -0.00000000000E+00 -0.14559030826E+02  0.14559030826E+02  0.00000000000E+00 0.  1.
         25    1    1    2    0    0 -0.65577116795E+02 -0.27518771408E+02  0.49365715494E+03  0.51417898406E+03  0.12500000000E+03 0.  0.
          1    1    1    2  502    0  0.56099023048E+02  0.52696520480E+02  0.54441534115E+03  0.54982914377E+03  0.00000000000E+00 0. -1.
         -2    1    1    2    0  501  0.94780937471E+01 -0.25177749072E+02  0.11211958615E+03  0.11530201606E+03  0.00000000000E+00 0.  1.
<mgrwt>
<rscale>  0 0.44916087E+02</rscale>
<asrwt>0</asrwt>
<pdfrwt beam="1">  1        1 0.17919241E+00 0.74990895E+02</pdfrwt>
<pdfrwt beam="2">  1       -2 0.22398518E-02 0.26902664E+02</pdfrwt>
<totfact> 0.56046584E+03</totfact>
</mgrwt>
</event>
<event>
 5    1  0.7156190E-003  0.8657035E+02  0.7546771E-02  0.1396224E+00
          1   -1    0    0  502    0 -0.00000000000E+00  0.00000000000E+00  0.12593782223E+03  0.12593782223E+03  0.00000000000E+00 0.  1.
          2   -1    0    0  501    0  0.00000000000E+00 -0.00000000000E+00 -0.16615354265E+04  0.16615354265E+04  0.00000000000E+00 0. -1.
         25    1    1    2    0    0  0.96928276646E+02  0.74030749389E+02 -0.26981901293E+03  0.32140775101E+03  0.12500000000E+03 0.  0.
          2    1    1    2  501    0 -0.76199580722E+02 -0.37364558757E+02 -0.13601113101E+04  0.13627564941E+04  0.00000000000E+00 0. -1.
          1    1    1    2  502    0 -0.20728695924E+02 -0.36666190632E+02  0.94332718835E+02  0.10330900354E+03  0.00000000000E+00 0.  1.
<mgrwt>
<rscale>  0 0.60384907E+02</rscale>
<asrwt>0</asrwt>
<pdfrwt beam="2">  1        2 0.25562082E+00 0.86570350E+02</pdfrwt>
<pdfrwt beam="1">  1        1 0.19375051E-01 0.42119928E+02</pdfrwt>
<totfact> 0.41915117E+02</totfact>
</mgrwt>
</event>
<event>
 5    1  0.7156190E-003  0.6123190E+02  0.7546771E-02  0.1527545E+00
         -1   -1    0    0    0  501  0.00000000000E+00  0.00000000000E+00  0.17333460064E+02  0.17333460064E+02  0.00000000000E+00 0.  1.
         -1   -1    0    0    0  502 -0.00000000000E+00 -0.00000000000E+00 -0.17869668279E+04  0.17869668279E+04  0.00000000000E+00 0.  1.
         25    1    1    2    0    0 -0.26651376941E+02 -0.67757128505E+02 -0.49813406045E+03  0.51871366526E+03  0.12500000000E+03 0.  0.
         -1    1    1    2    0  501 -0.10918029257E+02  0.20189843333E+02 -0.14548631327E+02  0.27175279394E+02  0.00000000000E+00 0.  1.
         -1    1    1    2    0  502  0.37569406198E+02  0.47567285171E+02 -0.12569506761E+04  0.12584113433E+04  0.00000000000E+00 0.  1.
<mgrwt>
<rscale>  0 0.37489285E+02</rscale>
<asrwt>0</asrwt>
<pdfrwt beam="1">  1       -1 0.26666875E-02 0.22952846E+02</pdfrwt>
<pdfrwt beam="2">  1       -1 0.27491783E+00 0.61231905E+02</pdfrwt>
<totfact> 0.17988342E+02</totfact>
</mgrwt>
</event>
<event>
 5    1  0.7156190E-003  0.6147115E+02  0.7546771E-02  0.1410064E+00
          3   -1    0    0  502    0 -0.00000000000E+00  0.00000000000E+00  0.52284272709E+03  0.52284272709E+03  0.00000000000E+00 0. -1.
          2   -1    0    0  501    0  0.00000000000E+00 -0.00000000000E+00 -0.24121924755E+04  0.24121924755E+04  0.00000000000E+00 0. -1.
         25    1    1    2    0    0 -0.16114078076E+02  0.74050691428E+01  0.52737642343E+02  0.13682381913E+03  0.12500000000E+03 0.  0.
          2    1    1    2  501    0 -0.44228071671E+02 -0.29543480611E+02 -0.23674362216E+04  0.23680336153E+04  0.00000000000E+00 0. -1.
          3    1    1    2  502    0  0.60342149747E+02  0.22138411468E+02  0.42534883088E+03  0.43017776818E+03  0.00000000000E+00 0. -1.
<mgrwt>
<rscale>  0 0.57179662E+02</rscale>
<asrwt>0</asrwt>
<pdfrwt beam="2">  1        2 0.37110654E+00 0.53187777E+02</pdfrwt>
<pdfrwt beam="1">  1        3 0.80437340E-01 0.61471149E+02</pdfrwt>
<totfact> 0.48925532E+00</totfact>
</mgrwt>
</event>
<event>
 5    1  0.7156190E-003  0.9797602E+02  0.7546771E-02  0.1434446E+00
          1   -1    0    0  501    0  0.00000000000E+00  0.00000000000E+00  0.22951079422E+03  0.22951079422E+03  0.00000000000E+00 0. -1.
          3   -1    0    0  502    0 -0.00000000000E+00 -0.00000000000E+00 -0.17634212703E+03  0.17634212703E+03  0.00000000000E+00 0. -1.
         25    1    1    2    0    0 -0.11758900369E+02 -0.11850092835E+03  0.64469397738E+02  0.18428794047E+03  0.12500000000E+03 0.  0.
          1    1    1    2  501    0  0.14185083802E+02  0.23770511175E+02  0.83231541710E+02  0.87713985997E+02  0.00000000000E+00 0. -1.
          3    1    1    2  502    0 -0.24261834321E+01  0.94730417177E+02 -0.94532272262E+02  0.13385099478E+03  0.00000000000E+00 0. -1.
<mgrwt>
<rscale>  0 0.52077850E+02</rscale>
<asrwt>0</asrwt>
<pdfrwt beam="1">  1        1 0.35309353E-01 0.27681290E+02</pdfrwt>
<pdfrwt beam="2">  1        3 0.27129558E-01 0.97976016E+02</pdfrwt>
<totfact> 0.79286918E+02</totfact>
</mgrwt>
</event>
<event>
 5    1  0.7156190E-003  0.3793555E+02  0.7546771E-02  0.1530942E+00
          1   -1    0    0  501    0  0.00000000000E+00  0.00000000000E+00  0.71211532673E+01  0.71211532673E+01  0.00000000000E+00 0. -1.
          1   -1    0    0  502    0 -0.00000000000E+00 -0.00000000000E+00 -0.29754281678E+04  0.29754281678E+04  0.00000000000E+00 0. -1.
         25    1    1    2    0    0 -0.60004483924E+02  0.17347716847E+02 -0.16479457772E+04  0.16538596573E+04  0.12500000000E+03 0.  0.
          1    1    1    2  501    0  0.25152449870E+02 -0.27231048992E+02 -0.84215093018E+02  0.92012812454E+02  0.00000000000E+00 0. -1.
          1    1    1    2  502    0  0.34852034054E+02  0.98833321447E+01 -0.12361461443E+04  0.12366768514E+04  0.00000000000E+00 0. -1.
<mgrwt>
<rscale>  0 0.37071071E+02</rscale>
<asrwt>0</asrwt>
<pdfrwt beam="1">  1        1 0.10955615E-02 0.37935546E+02</pdfrwt>
<pdfrwt beam="2">  1        1 0.45775839E+00 0.36226296E+02</pdfrwt>
<totfact> 0.13321368E+03</totfact>
</mgrwt>
</event>
<event>
 5    1  0.7156190E-003  0.4126335E+02  0.7546771E-02  0.1526879E+00
          1   -1    0    0  502    0  0.00000000000E+00  0.00000000000E+00  0.39840968197E+02  0.39840968197E+02  0.00000000000E+00 0. -1.
          1   -1    0    0  501    0 -0.00000000000E+00 -0.00000000000E+00 -0.40312097695E+03  0.40312097695E+03  0.00000000000E+00 0. -1.
         25    1    1    2    0    0 -0.21081099948E+01 -0.12302027574E+02 -0.20596749403E+03  0.24125379294E+03  0.12500000000E+03 0.  0.
          1    1    1    2  501    0  0.93204385591E+01  0.45743952460E+02 -0.16068721481E+03  0.16733129045E+03  0.00000000000E+00 0. -1.
          1    1    1    2  502    0 -0.72123285643E+01 -0.33441924887E+02  0.33747000861E+01  0.34376861755E+02  0.00000000000E+00 0. -1.
<mgrwt>
<rscale>  0 0.37571972E+02</rscale>
<asrwt>0</asrwt>
<pdfrwt beam="1">  1        1 0.61293796E-02 0.34210817E+02</pdfrwt>
<pdfrwt beam="2">  1        1 0.62018613E-01 0.41263353E+02</pdfrwt>
<totfact> 0.76545792E+03</totfact>
</mgrwt>
</event>
<event>
 5    1  0.7156190E-003  0.8198228E+02  0.7546771E-02  0.1379074E+00
          2   -1    0    0  502    0  0.00000000000E+00  0.00000000000E+00  0.56123662656E+03  0.56123662656E+03  0.00000000000E+00 0. -1.
          2   -1    0    0  501    0 -0.00000000000E+00 -0.00000000000E+00 -0.20165798738E+03  0.20165798738E+03  0.00000000000E+00 0. -1.
         25    1    1    2    0    0  0.85019959860E+02  0.88357456875E+02  0.24958523810E+03  0.30488231309E+03  0.12500000000E+03 0.  0.
          2    1    1    2  501    0 -0.44262455014E+02 -0.25481465265E+02 -0.16514031955E+03  0.17285773092E+03  0.00000000000E+00 0. -1.
          2    1    1    2  502    0 -0.40757504846E+02 -0.62875991609E+02  0.27513372063E+03  0.28515456993E+03  0.00000000000E+00 0. -1.
<mgrwt>
<rscale>  0 0.64707773E+02</rscale>
<asrwt>0</asrwt>
<pdfrwt beam="1">  1        2 0.86344096E-01 0.81982277E+02</pdfrwt>
<pdfrwt beam="2">  1        2 0.31024306E-01 0.51073183E+02</pdfrwt>
<totfact> 0.14090987E+03</totfact>
</mgrwt>
</event>
<event>
 5    1  0.7156190E-003  0.5308369E+02  0.7546771E-02  0.1471128E+00
          2   -1    0    0  501    0  0.00000000000E+00  0.00000000000E+00  0.90795387651E+02  0.90795387651E+02  0.00000000000E+00 0. -1.
          1   -1    0    0  502    0 -0.00000000000E+00 -0.00000000000E+00 -0.18405015647E+03  0.18405015647E+03  0.00000000000E+00 0. -1.
         25    1    1    2    0    0 -0.36361806778E+02 -0.43377786376E+02 -0.66889861304E+02  0.15265342082E+03  0.12500000000E+03 0.  0.
          2    1    1    2  501    0 -0.18089840624E+02  0.34587217733E+02  0.25383790041E+02  0.46560227246E+02  0.00000000000E+00 0. -1.
          1    1    1    2  502    0  0.54451647402E+02  0.87905686427E+01 -0.51748697552E+02  0.75631896050E+02  0.00000000000E+00 0. -1.
<mgrwt>
<rscale>  0 0.45518973E+02</rscale>
<asrwt>0</asrwt>
<pdfrwt beam="1">  1        2 0.13968521E-01 0.39032268E+02</pdfrwt>
<pdfrwt beam="2">  1        1 0.28315408E-01 0.53083691E+02</pdfrwt>
<totfact> 0.81778416E+03</totfact>
</mgrwt>
</event>
<event>
 5    1  0.7156190E-003  0.1608943E+03  0.7546771E-02  0.1305259E+00
          1   -1    0    0  502    0  0.00000000000E+00  0.00000000000E+00  0.33895221142E+04  0.33895221142E+04  0.00000000000E+00 0. -1.
         -3   -1    0    0    0  501 -0.00000000000E+00 -0.00000000000E+00 -0.19411316934E+02  0.19411316934E+02  0.00000000000E+00 0.  1.
         25    1    1    2    0    0 -0.16793267472E+03  0.18700529380E+01  0.11491186351E+04  0.11680340397E+04  0.12500000000E+03 0.  0.
          1    1    1    2  502    0  0.15968218532E+02  0.46584875918E+02  0.15657094829E+04  0.15664837438E+04  0.00000000000E+00 0. -1.
         -3    1    1    2    0  501  0.15196445619E+03 -0.48454928856E+02  0.65528267922E+03  0.67441564762E+03  0.00000000000E+00 0.  1.
<mgrwt>
<rscale>  0 0.89013169E+02</rscale>
<asrwt>0</asrwt>
<pdfrwt beam="1">  1        1 0.52146447E+00 0.49245656E+02</pdfrwt>
<pdfrwt beam="2">  1       -3 0.29863591E-02 0.16089428E+03</pdfrwt>
<totfact> 0.14188706E+02</totfact>
</mgrwt>
</event>
<event>
 5    1  0.7156190E-003  0.6315030E+02  0.7546771E-02  0.1463663E+00
         -2   -1    0    0    0  501 -0.00000000000E+00  0.00000000000E+00  0.19600927872E+02  0.19600927872E+02  0.00000000000E+00 0. -1.
          2   -1    0    0  502    0  0.00000000000E+00 -0.00000000000E+00 -0.83169944345E+03  0.83169944345E+03  0.00000000000E+00 0.  1.
         25    1    1    2    0    0 -0.61268173757E+02  0.17495722242E+02 -0.54404642952E+03  0.56184642642E+03  0.12500000000E+03 0.  0.
          2    1    1    2  502    0 -0.21189263005E+01 -0.34554157536E+02 -0.44014406934E+02  0.55997747003E+02  0.00000000000E+00 0. -1.
         -2    1    1    2    0  501  0.63387100058E+02  0.17058435294E+02 -0.22403767913E+03  0.23345619790E+03  0.00000000000E+00 0.  1.
<mgrwt>
<rscale>  0 0.46756863E+02</rscale>
<asrwt>0</asrwt>
<pdfrwt beam="2">  1        2 0.12795379E+00 0.34619065E+02</pdfrwt>
<pdfrwt beam="1">  1       -2 0.30155266E-02 0.63150296E+02</pdfrwt>
<totfact> 0.13083417E+04</totfact>
</mgrwt>
</event>
<event>
 5    1  0.7156190E-003  0.8048002E+02  0.7546771E-02  0.1329689E+00
          2   -1    0    0  501    0  0.00000000000E+00  0.00000000000E+00  0.18409977547E+04  0.18409977547E+04  0.00000000000E+00 0. -1.
          1   -1    0    0  502    0 -0.00000000000E+00 -0.00000000000E+00 -0.85754405492E+03  0.85754405492E+03  0.00000000000E+00 0. -1.
         25    1    1    2    0    0  0.36079784369E+02 -0.14489586139E+02 -0.68291389837E+03  0.69534746101E+03  0.12500000000E+03 0.  0.
          2    1    1    2  501    0  0.79482231382E+01  0.80176815230E+02  0.18245600526E+04  0.18263381072E+04  0.00000000000E+00 0. -1.
          1    1    1    2  502    0 -0.44028007507E+02 -0.65687229090E+02 -0.15819245445E+03  0.17685624150E+03  0.00000000000E+00 0. -1.
<mgrwt>
<rscale>  0 0.79775762E+02</rscale>
<asrwt>0</asrwt>
<pdfrwt beam="1">  1        2 0.28323042E+00 0.80480020E+02</pdfrwt>
<pdfrwt beam="2">  1        1 0.13192986E+00 0.79077668E+02</pdfrwt>
<totfact> 0.30750693E+01</totfact>
</mgrwt>
</event>
<event>
 5    1  0.7156190E-003  0.7289762E+02  0.7546771E-02  0.1420315E+00
          1   -1    0    0  502    0  0.00000000000E+00  0.00000000000E+00  0.86341893338E+03  0.86341893338E+03  0.00000000000E+00 0. -1.
         -2   -1    0    0    0  501 -0.00000000000E+00 -0.00000000000E+00 -0.22748181949E+03  0.22748181949E+03  0.00000000000E+00 0. -1.
         25    1    1    2    0    0 -0.11082555296E+03 -0.13247861675E+02  0.17425225978E+03  0.24175743849E+03  0.12500000000E+03 0.  0.
          1    1    1    2  502    0  0.39141309101E+02  0.13572776278E+02  0.64809866729E+03  0.64942139237E+03  0.00000000000E+00 0. -1.
         -2    1    1    2    0  501  0.71684243860E+02 -0.32491460287E+00 -0.18641381317E+03  0.19972192200E+03  0.00000000000E+00 0. -1.
<mgrwt>
<rscale>  0 0.54954415E+02</rscale>
<asrwt>0</asrwt>
<pdfrwt beam="1">  1        1 0.13283368E+00 0.41427797E+02</pdfrwt>
<pdfrwt beam="2">  1       -2 0.34997204E-01 0.72897620E+02</pdfrwt>
<totfact> 0.15181186E+02</totfact>
</mgrwt>
</event>
<event>
 5    1  0.7156190E-003  0.5082097E+02  0.7546771E-02  0.1525269E+00
         -1   -1    0    0    0  501 -0.00000000000E+00  0.00000000000E+00  0.33613430963E+03  0.33613430963E+03  0.00000000000E+00 0.  1.
          2   -1    0    0  502    0  0.00000000000E+00 -0.00000000000E+00 -0.41687708513E+02  0.41687708513E+02  0.00000000000E+00 0. -1.
         25    1    1    2    0    0  0.23828470013E+02 -0.12435389980E+02  0.89213143348E+02  0.15590516301E+03  0.12500000000E+03 0.  0.
          2    1    1    2  502    0  0.27830191421E+02 -0.37005071393E+01  0.47732176675E+02  0.55376655711E+02  0.00000000000E+00 0. -1.
         -1    1    1    2    0  501 -0.51658661435E+02  0.16135897120E+02  0.15750128110E+03  0.16654019942E+03  0.00000000000E+00 0.  1.
<mgrwt>
<rscale>  0 0.37773082E+02</rscale>
<asrwt>0</asrwt>
<pdfrwt beam="2">  1        2 0.64134938E-02 0.28075137E+02</pdfrwt>
<pdfrwt beam="1">  1       -1 0.51712969E-01 0.50820972E+02</pdfrwt>
<totfact> 0.41500946E+03</totfact>
</mgrwt>
</event>
<event>
 5    1  0.7156190E-003  0.1551707E+03  0.7546771E-02  0.1290403E+00
          2   -1    0    0  501    0  0.00000000000E+00  0.00000000000E+00  0.14938120238E+04  0.14938120238E+04  0.00000000000E+00 0. -1.
          1   -1    0    0  502    0 -0.00000000000E+00 -0.00000000000E+00 -0.65342371331E+02  0.65342371331E+02  0.00000000000E+00 0. -1.
         25    1    1    2    0    0 -0.48621990921E+02 -0.19146372525E+03  0.46979416936E+03  0.52474185811E+03  0.12500000000E+03 0.  0.
          2    1    1    2  501    0 -0.52924164220E+01  0.58344031723E+02  0.85566369256E+03  0.85766682953E+03  0.00000000000E+00 0. -1.
          1    1    1    2  502    0  0.53914407344E+02  0.13311969353E+03  0.10301179056E+03  0.17674570750E+03  0.00000000000E+00 0. -1.
<mgrwt>
<rscale>  0 0.95343886E+02</rscale>
<asrwt>0</asrwt>
<pdfrwt beam="1">  1        2 0.22981721E+00 0.58583579E+02</pdfrwt>
<pdfrwt beam="2">  1        1 0.10052674E-01 0.15517073E+03</pdfrwt>
<totfact> 0.13026421E+03</totfact>
</mgrwt>
</event>
<event>
 5    1  0.7156190E-003  0.9992548E+02  0.7546771E-02  0.1418244E+00
          2   -1    0    0  502    0  0.00000000000E+00  0.00000000000E+00  0.56416917502E+03  0.56416917502E+03  0.00000000000E+00 0. -1.
         -3   -1    0    0    0  501 -0.00000000000E+00 -0.00000000000E+00 -0.56710470071E+02  0.56710470071E+02  0.00000000000E+00 0.  1.
         25    1    1    2    0    0 -0.11177710380E+03 -0.35425781283E+02  0.24740470561E+03  0.30097042259E+03  0.12500000000E+03 0.  0.
          2    1    1    2  502    0  0.28550068726E+02 -0.11308470250E+02  0.20980406156E+03  0.21203945900E+03  0.00000000000E+00 0. -1.
         -3    1    1    2    0  501  0.83227035072E+02  0.46734251532E+02  0.50249937776E+02  0.10786976351E+03  0.00000000000E+00 0.  1.
<mgrwt>
<rscale>  0 0.55394247E+02</rscale>
<asrwt>0</asrwt>
<pdfrwt beam="1">  1        2 0.86795254E-01 0.30708108E+02</pdfrwt>
<pdfrwt beam="2">  1       -3 0.87246881E-02 0.99925483E+02</pdfrwt>
<totfact> 0.29811744E+03</totfact>
</mgrwt>
</event>
<event>
 5    1  0.7156190E-003  0.3216871E+02  0.7546771E-02  0.1609298E+00
          1   -1    0    0  502    0  0.00000000000E+00  0.00000000000E+00  0.45278615195E+03  0.45278615195E+03  0.00000000000E+00 0.  1.
         -1   -1    0    0    0  501 -0.00000000000E+00 -0.00000000000E+00 -0.20451592982E+03  0.20451592982E+03  0.00000000000E+00 0.  1.
         25    1    1    2    0    0 -0.37145705742E+02  0.31483182728E+02 -0.62663100169E+01  0.13429542394E+03  0.12500000000E+03 0.  0.
          1    1    1    2  502    0  0.11020039051E+02 -0.30119261491E+02  0.38682697611E+03  0.38815424849E+03  0.00000000000E+00 0.  1.
         -1    1    1    2    0  501  0.26125666691E+02 -0.13639212376E+01 -0.13229044396E+03  0.13485240934E+03  0.00000000000E+00 0.  1.
<mgrwt>
<rscale>  0 0.29009887E+02</rscale>
<asrwt>0</asrwt>
<pdfrwt beam="1">  1        1 0.69659408E-01 0.32168710E+02</pdfrwt>
<pdfrwt beam="2">  1       -1 0.31463989E-01 0.26161245E+02</pdfrwt>
<totfact> 0.48520614E+02</totfact>
</mgrwt>
</event>
<event>
 5    1  0.7156190E-003  0.7556256E+02  0.7546771E-02  0.1374986E+00
         -3   -1    0    0    0  501 -0.00000000000E+00  0.00000000000E+00  0.28584959671E+03  0.28584959671E+03  0.00000000000E+00 0.  1.
          2   -1    0    0  502    0  0.00000000000E+00 -0.00000000000E+00 -0.25937009214E+04  0.25937009214E+04  0.00000000000E+00 0. -1.
         25    1    1    2    0    0  0.10831243421E+03 -0.75391409637E+02 -0.31301002983E+03  0.36196094655E+03  0.12500000000E+03 0.  0.
          2    1    1    2  502    0 -0.47226198306E+02  0.32448617499E+02 -0.22505103418E+04  0.22512396641E+04  0.00000000000E+00 0. -1.
         -3    1    1    2    0  501 -0.61086235909E+02  0.42942792138E+02  0.25566904697E+03  0.26634990744E+03  0.00000000000E+00 0.  1.
<mgrwt>
<rscale>  0 0.65800402E+02</rscale>
<asrwt>0</asrwt>
<pdfrwt beam="2">  1        2 0.39903092E+00 0.57299447E+02</pdfrwt>
<pdfrwt beam="1">  1       -3 0.43976860E-01 0.75562560E+02</pdfrwt>
<totfact> 0.13398447E+01</totfact>
</mgrwt>
</event>
<event>
 5    1  0.7156190E-003  0.1301795E+03  0.7546771E-02  0.1290522E+00
          2   -1    0    0  501    0  0.00000000000E+00  0.00000000000E+00  0.11330453782E+04  0.11330453782E+04  0.00000000000E+00 0. -1.
          1   -1    0    0  502    0 -0.00000000000E+00 -0.00000000000E+00 -0.45309735020E+03  0.45309735020E+03  0.00000000000E+00 0. -1.
         25    1    1    2    0    0  0.66857044512E+01 -0.17204532938E+03 -0.50624912921E+02  0.21870568308E+03  0.12500000000E+03 0.  0.
          2    1    1    2  501    0  0.41230674669E+02  0.56262383231E+02  0.10354586962E+04  0.10378054422E+04  0.00000000000E+00 0. -1.
          1    1    1    2  502    0 -0.47916379120E+02  0.11578294615E+03 -0.30488575528E+03  0.32963160313E+03  0.00000000000E+00 0. -1.
<mgrwt>
<rscale>  0 0.95290902E+02</rscale>
<asrwt>0</asrwt>
<pdfrwt beam="1">  1        2 0.17431467E+00 0.69752594E+02</pdfrwt>
<pdfrwt beam="2">  1        1 0.69707285E-01 0.13017947E+03</pdfrwt>
<totfact> 0.16921206E+02</totfact>
</mgrwt>
</event>
<event>
 5    1  0.7156190E-003  0.3359282E+02  0.7546771E-02  0.1565827E+00
          2   -1    0    0  502    0  0.00000000000E+00  0.00000000000E+00  0.10349702114E+03  0.10349702114E+03  0.00000000000E+00 0. -1.
         -1   -1    0    0    0  501 -0.00000000000E+00 -0.00000000000E+00 -0.11668125447E+03  0.11668125447E+03  0.00000000000E+00 0.  1.
         25    1    1    2    0    0  0.21120838627E+02  0.27695053939E+02 -0.24773377042E+02  0.13210535965E+03  0.12500000000E+03 0.  0.
          2    1    1    2  502    0 -0.33704646041E+02  0.34517861049E+01  0.33755179508E+02  0.47826040352E+02  0.00000000000E+00 0. -1.
         -1    1    1    2    0  501  0.12583807414E+02 -0.31146840044E+02 -0.22166035797E+02  0.40246875615E+02  0.00000000000E+00 0.  1.
<mgrwt>
<rscale>  0 0.33133746E+02</rscale>
<asrwt>0</asrwt>
<pdfrwt beam="1">  1        2 0.15922619E-01 0.32680942E+02</pdfrwt>
<pdfrwt beam="2">  1       -1 0.17950962E-01 0.33592824E+02</pdfrwt>
<totfact> 0.81643328E+03</totfact>
</mgrwt>
</event>
<event>
 5    1  0.7156190E-003  0.8030775E+02  0.7546771E-02  0.1395451E+00
          1   -1    0    0  502    0 -0.00000000000E+00  0.00000000000E+00  0.12044798644E+03  0.12044798644E+03  0.00000000000E+00 0. -1.
          2   -1    0    0  501    0  0.00000000000E+00 -0.00000000000E+00 -0.86844024163E+03  0.86844024163E+03  0.00000000000E+00 0. -1.
         25    1    1    2    0    0 -0.63115719826E+02 -0.62075248222E+01 -0.20921200304E+03  0.25182690418E+03  0.12500000000E+03 0.  0.
          2    1    1    2  501    0  0.65723997565E+02  0.51817787921E+02 -0.62973797014E+03  0.63527524589E+03  0.00000000000E+00 0. -1.
          1    1    1    2  502    0 -0.26082777387E+01 -0.45610263099E+02  0.90957717991E+02  0.10178607800E+03  0.00000000000E+00 0. -1.
<mgrwt>
<rscale>  0 0.60570967E+02</rscale>
<asrwt>0</asrwt>
<pdfrwt beam="2">  1        2 0.13360619E+00 0.80307751E+02</pdfrwt>
<pdfrwt beam="1">  1        1 0.18530460E-01 0.45684781E+02</pdfrwt>
<totfact> 0.12018635E+03</totfact>
</mgrwt>
</event>
<event>
 5    1  0.7156190E-003  0.1875477E+03  0.7546771E-02  0.1373649E+00
          2   -1    0    0  502    0  0.00000000000E+00  0.00000000000E+00  0.15799106919E+03  0.15799106919E+03  0.00000000000E+00 0. -1.
         -2   -1    0    0    0  501 -0.00000000000E+00 -0.00000000000E+00 -0.17306961428E+04  0.17306961428E+04  0.00000000000E+00 0.  1.
         25    1    1    2    0    0 -0.12902211009E+03  0.10450481230E+03  0.18449178116E+02  0.20864643025E+03  0.12500000000E+03 0.  0.
          2    1    1    2  502    0 -0.21481773735E+02  0.91287269618E+01  0.35503003583E+02  0.42488392793E+02  0.00000000000E+00 0. -1.
         -2    1    1    2    0  501  0.15050388382E+03 -0.11363353926E+03 -0.16266572553E+04  0.16375523890E+04  0.00000000000E+00 0.  1.
<mgrwt>
<rscale>  0 0.66163004E+02</rscale>
<asrwt>0</asrwt>
<pdfrwt beam="1">  1        2 0.24306318E-01 0.23340957E+02</pdfrwt>
<pdfrwt beam="2">  1       -2 0.26626095E+00 0.18754771E+03</pdfrwt>
<totfact> 0.12256238E+01</totfact>
</mgrwt>
</event>
<event>
 5    1  0.7156190E-003  0.8376405E+02  0.7546771E-02  0.1415814E+00
          2   -1    0    0  501    0  0.00000000000E+00  0.00000000000E+00  0.27181141405E+03  0.27181141405E+03  0.00000000000E+00 0.  1.
          1   -1    0    0  502    0 -0.00000000000E+00 -0.00000000000E+00 -0.10932473749E+04  0.10932473749E+04  0.00000000000E+00 0. -1.
         25    1    1    2    0    0  0.11689434401E+03 -0.11989690249E+02  0.12348573678E+02  0.17200444065E+03  0.12500000000E+03 0.  0.
          2    1    1    2  501    0 -0.33819985001E+02  0.15795949907E+02  0.17596783425E+03  0.17988324577E+03  0.00000000000E+00 0.  1.
          1    1    1    2  502    0 -0.83074359006E+02 -0.38062596576E+01 -0.10097523687E+04  0.10131711025E+04  0.00000000000E+00 0. -1.
<mgrwt>
<rscale>  0 0.55916536E+02</rscale>
<asrwt>0</asrwt>
<pdfrwt beam="1">  1        2 0.41817140E-01 0.37326980E+02</pdfrwt>
<pdfrwt beam="2">  1        1 0.16819191E+00 0.83764051E+02</pdfrwt>
<totfact> 0.24071207E+02</totfact>
</mgrwt>
</event>
<event>
 5    1  0.7156190E-003  0.1713553E+03  0.7546771E-02  0.1254204E+00
          2   -1    0    0  502    0  0.00000000000E+00  0.00000000000E+00  0.55718482698E+03  0.55718482698E+03  0.00000000000E+00 0. -1.
          2   -1    0    0  501    0 -0.00000000000E+00 -0.00000000000E+00 -0.27516207514E+04  0.27516207514E+04  0.00000000000E+00 0. -1.
         25    1    1    2    0    0 -0.18520118862E+01 -0.21545889460E+03 -0.49428427718E+03  0.55350511459E+03  0.12500000000E+03 0.  0.
          2    1    1    2  501    0 -0.52453847896E+02  0.53874685412E+02 -0.22133010317E+04  0.22145779158E+04  0.00000000000E+00 0. -1.
          2    1    1    2  502    0  0.54305859782E+02  0.16158420919E+03  0.51314938453E+03  0.54072254799E+03  0.00000000000E+00 0. -1.
<mgrwt>
<rscale>  0 0.11351038E+03</rscale>
<asrwt>0</asrwt>
<pdfrwt beam="1">  1        2 0.85720740E-01 0.17135531E+03</pdfrwt>
<pdfrwt beam="2">  1        2 0.42332628E+00 0.75192339E+02</pdfrwt>
<totfact> 0.30226288E+01</totfact>
</mgrwt>
</event>
<event>
 5    1  0.7156190E-003  0.1321928E+03  0.7546771E-02  0.1372742E+00
         -3   -1    0    0    0  502 -0.00000000000E+00  0.00000000000E+00  0.16760915927E+03  0.16760915927E+03  0.00000000000E+00 0.  1.
         -2   -1    0    0    0  501  0.00000000000E+00 -0.00000000000E+00 -0.10354683887E+04  0.10354683887E+04  0.00000000000E+00 0.  1.
         25    1    1    2    0    0 -0.76449402423E+02  0.12245008323E+03 -0.37105700901E+03  0.41730904369E+03  0.12500000000E+03 0.  0.
         -2    1    1    2    0  501  0.90790616031E+02 -0.92326381919E+02 -0.63271063162E+03  0.64582492994E+03  0.00000000000E+00 0.  1.
         -3    1    1    2    0  502 -0.14341213608E+02 -0.30123701313E+02  0.13590841115E+03  0.13994357438E+03  0.00000000000E+00 0.  1.
<mgrwt>
<rscale>  0 0.66410711E+02</rscale>
<asrwt>0</asrwt>
<pdfrwt beam="2">  1       -2 0.15930283E+00 0.13219275E+03</pdfrwt>
<pdfrwt beam="1">  1       -3 0.25786024E-01 0.33363270E+02</pdfrwt>
<totfact> 0.13683600E+01</totfact>
</mgrwt>
</event>
<event>
 5    1  0.7156190E-003  0.5066714E+02  0.7546771E-02  0.1449847E+00
          2   -1    0    0  501    0  0.00000000000E+00  0.00000000000E+00  0.10717386556E+04  0.10717386556E+04  0.00000000000E+00 0. -1.
          2   -1    0    0  502    0 -0.00000000000E+00 -0.00000000000E+00 -0.10896349350E+04  0.10896349350E+04  0.00000000000E+00 0. -1.
         25    1    1    2    0    0  0.30471312483E+02 -0.11785280565E+02  0.88513336127E+03  0.89451297416E+03  0.12500000000E+03 0.  0.
          2    1    1    2  501    0 -0.27743010630E+02 -0.38833248586E+02  0.17818123909E+03  0.18446205517E+03  0.00000000000E+00 0. -1.
          2    1    1    2  502    0 -0.27283018531E+01  0.50618529151E+02 -0.10812108797E+04  0.10823985613E+04  0.00000000000E+00 0. -1.
<mgrwt>
<rscale>  0 0.49174181E+02</rscale>
<asrwt>0</asrwt>
<pdfrwt beam="1">  1        2 0.16488287E+00 0.47725212E+02</pdfrwt>
<pdfrwt beam="2">  1        2 0.16763614E+00 0.50667141E+02</pdfrwt>
<totfact> 0.10413753E+02</totfact>
</mgrwt>
</event>
<event>
 5    1  0.7156190E-003  0.1031448E+03  0.7546771E-02  0.1343967E+00
          2   -1    0    0  502    0  0.00000000000E+00  0.00000000000E+00  0.61093575298E+03  0.61093575298E+03  0.00000000000E+00 0. -1.
          2   -1    0    0  501    0 -0.00000000000E+00 -0.00000000000E+00 -0.19909310583E+04  0.19909310583E+04  0.00000000000E+00 0. -1.
         25    1    1    2    0    0  0.67337447883E+02  0.54134271331E+02  0.10311908454E+02  0.15230294375E+03  0.12500000000E+03 0.  0.
          2    1    1    2  501    0 -0.34611598413E+02 -0.97702550314E+02 -0.19171302908E+04  0.19199302860E+04  0.00000000000E+00 0. -1.
          2    1    1    2  502    0 -0.32725849469E+02  0.43568278983E+02  0.52682307706E+03  0.52963358152E+03  0.00000000000E+00 0. -1.
<mgrwt>
<rscale>  0 0.74969145E+02</rscale>
<asrwt>0</asrwt>
<pdfrwt beam="1">  1        2 0.93990117E-01 0.54490147E+02</pdfrwt>
<pdfrwt beam="2">  1        2 0.30629708E+00 0.10314475E+03</pdfrwt>
<totfact> 0.66495797E+01</totfact>
</mgrwt>
</event>
<event>
 5    1  0.7156190E-003  0.9055335E+02  0.7546771E-02  0.1357319E+00
          2   -1    0    0  501    0  0.00000000000E+00  0.00000000000E+00  0.22305360589E+04  0.22305360589E+04  0.00000000000E+00 0. -1.
          2   -1    0    0  502    0 -0.00000000000E+00 -0.00000000000E+00 -0.49936951962E+02  0.49936951962E+02  0.00000000000E+00 0. -1.
         25    1    1    2    0    0  0.12400692414E+03  0.30538862268E+02  0.12622722444E+04  0.12748594269E+04  0.12500000000E+03 0.  0.
          2    1    1    2  501    0 -0.51101453770E+02  0.21371930908E+02  0.91435082982E+03  0.91602705091E+03  0.00000000000E+00 0. -1.
          2    1    1    2  502    0 -0.72905470366E+02 -0.51910793175E+02  0.39760326431E+01  0.89586532988E+02  0.00000000000E+00 0. -1.
<mgrwt>
<rscale>  0 0.70822340E+02</rscale>
<asrwt>0</asrwt>
<pdfrwt beam="1">  1        2 0.34315932E+00 0.55390595E+02</pdfrwt>
<pdfrwt beam="2">  1        2 0.76826097E-02 0.90553349E+02</pdfrwt>
<totfact> 0.87121694E+02</totfact>
</mgrwt>
</event>
<event>
 5    1  0.7156190E-003  0.1059435E+03  0.7546771E-02  0.1318733E+00
          2   -1    0    0  501    0  0.00000000000E+00  0.00000000000E+00  0.11495783424E+03  0.11495783424E+03  0.00000000000E+00 0. -1.
          3   -1    0    0  502    0 -0.00000000000E+00 -0.00000000000E+00 -0.10638495936E+04  0.10638495936E+04  0.00000000000E+00 0. -1.
         25    1    1    2    0    0  0.26518449137E+02 -0.70033094398E+02 -0.46135647559E+03  0.48382089664E+03  0.12500000000E+03 0.  0.
          2    1    1    2  501    0  0.62183116714E+02 -0.22727319536E+02  0.85283444460E+02  0.10796544334E+03  0.00000000000E+00 0. -1.
          3    1    1    2  502    0 -0.88701565850E+02  0.92760413934E+02 -0.57281872820E+03  0.58702108782E+03  0.00000000000E+00 0. -1.
<mgrwt>
<rscale>  0 0.83750386E+02</rscale>
<asrwt>0</asrwt>
<pdfrwt beam="1">  1        2 0.17685821E-01 0.66206277E+02</pdfrwt>
<pdfrwt beam="2">  1        3 0.16366916E+00 0.10594354E+03</pdfrwt>
<totfact> 0.51777657E+01</totfact>
</mgrwt>
</event>
<event>
 5    1  0.7156190E-003  0.4576149E+03  0.7546771E-02  0.1025475E+00
         -2   -1    0    0    0  501 -0.00000000000E+00  0.00000000000E+00  0.62774196209E+02  0.62774196209E+02  0.00000000000E+00 0.  1.
          1   -1    0    0  502    0  0.00000000000E+00 -0.00000000000E+00 -0.83398686439E+03  0.83398686439E+03  0.00000000000E+00 0. -1.
         25    1    1    2    0    0 -0.19372421682E+03 -0.26318410142E+02 -0.28738159022E+03  0.36937096434E+03  0.12500000000E+03 0.  0.
          1    1    1    2  502    0  0.14429968418E+03  0.79902914015E+01 -0.42241839694E+03  0.44645665600E+03  0.00000000000E+00 0. -1.
         -2    1    1    2    0  501  0.49424532637E+02  0.18328118740E+02 -0.61412681010E+02  0.80933440257E+02  0.00000000000E+00 0.  1.
<mgrwt>
<rscale>  0 0.45761493E+03</rscale>
<asrwt>0</asrwt>
<pdfrwt beam="2">  1        1 0.12830568E+00 0.45761493E+03</pdfrwt>
<pdfrwt beam="1">  1       -2 0.96575681E-02 0.45761493E+03</pdfrwt>
<totfact> 0.13311854E+03</totfact>
</mgrwt>
</event>
<event>
 5    1  0.7156190E-003  0.4559975E+02  0.7546771E-02  0.1535155E+00
          3   -1    0    0  502    0 -0.00000000000E+00  0.00000000000E+00  0.25849782750E+03  0.25849782750E+03  0.00000000000E+00 0. -1.
          1   -1    0    0  501    0  0.00000000000E+00 -0.00000000000E+00 -0.30197193349E+03  0.30197193349E+03  0.00000000000E+00 0. -1.
         25    1    1    2    0    0  0.19293440750E+02  0.11708766318E+02  0.83608448602E+02  0.15206809245E+03  0.12500000000E+03 0.  0.
          1    1    1    2  501    0  0.89613295728E+01  0.27911485936E+02 -0.26269335643E+03  0.26432396030E+03  0.00000000000E+00 0. -1.
          3    1    1    2  502    0 -0.28254770323E+02 -0.39620252254E+02  0.13561080184E+03  0.14407770824E+03  0.00000000000E+00 0. -1.
<mgrwt>
<rscale>  0 0.36561549E+02</rscale>
<asrwt>0</asrwt>
<pdfrwt beam="2">  1        1 0.46457221E-01 0.29314783E+02</pdfrwt>
<pdfrwt beam="1">  1        3 0.39768896E-01 0.45599753E+02</pdfrwt>
<totfact> 0.26767780E+02</totfact>
</mgrwt>
</event>
<event>
 5    1  0.7156190E-003  0.1173974E+03  0.7546771E-02  0.1300773E+00
          1   -1    0    0  502    0 -0.00000000000E+00  0.00000000000E+00  0.72992317130E+03  0.72992317130E+03  0.00000000000E+00 0. -1.
          2   -1    0    0  501    0  0.00000000000E+00 -0.00000000000E+00 -0.99133550831E+03  0.99133550831E+03  0.00000000000E+00 0. -1.
         25    1    1    2    0    0 -0.10367587022E+03  0.32590675171E+02  0.85777030333E+02  0.18653025788E+03  0.12500000000E+03 0.  0.
          2    1    1    2  501    0  0.30511828694E+02  0.63363679237E+02 -0.93349208992E+03  0.93613749496E+03  0.00000000000E+00 0. -1.
          1    1    1    2  502    0  0.73164041523E+02 -0.95954354408E+02  0.58630272257E+03  0.59859092676E+03  0.00000000000E+00 0. -1.
<mgrwt>
<rscale>  0 0.90863843E+02</rscale>
<asrwt>0</asrwt>
<pdfrwt beam="2">  1        2 0.15251316E+00 0.70327289E+02</pdfrwt>
<pdfrwt beam="1">  1        1 0.11229587E+00 0.11739736E+03</pdfrwt>
<totfact> 0.10722400E+02</totfact>
</mgrwt>
</event>
<event>
 5    1  0.7156190E-003  0.7047924E+02  0.7546771E-02  0.1465376E+00
          1   -1    0    0  502    0  0.00000000000E+00  0.00000000000E+00  0.47664805433E+03  0.47664805433E+03  0.00000000000E+00 0. -1.
         -1   -1    0    0    0  501 -0.00000000000E+00 -0.00000000000E+00 -0.10200017768E+03  0.10200017768E+03  0.00000000000E+00 0.  1.
         25    1    1    2    0    0 -0.41776240073E+02  0.98254751501E+01  0.15592572277E+03  0.20440064877E+03  0.12500000000E+03 0.  0.
          1    1    1    2  502    0 -0.30631880447E+02  0.60411552122E+00  0.27825070086E+03  0.27993236609E+03  0.00000000000E+00 0. -1.
         -1    1    1    2    0  501  0.72408120519E+02 -0.10429590671E+02 -0.59528546984E+02  0.94315217143E+02  0.00000000000E+00 0.  1.
<mgrwt>
<rscale>  0 0.46468608E+02</rscale>
<asrwt>0</asrwt>
<pdfrwt beam="1">  1        1 0.73330469E-01 0.30637837E+02</pdfrwt>
<pdfrwt beam="2">  1       -1 0.15692335E-01 0.70479243E+02</pdfrwt>
<totfact> 0.14219078E+03</totfact>
</mgrwt>
</event>
<event>
 5    1  0.7156190E-003  0.1757813E+03  0.7546771E-02  0.1197301E+00
          1   -1    0    0  502    0 -0.00000000000E+00  0.00000000000E+00  0.44634587787E+03  0.44634587787E+03  0.00000000000E+00 0. -1.
          2   -1    0    0  501    0  0.00000000000E+00 -0.00000000000E+00 -0.96171651430E+03  0.96171651430E+03  0.00000000000E+00 0. -1.
         25    1    1    2    0    0  0.51938619588E+02  0.25250344193E+03  0.25005727187E+03  0.38027522613E+03  0.12500000000E+03 0.  0.
          2    1    1    2  501    0 -0.11136797726E+03 -0.13408509744E+03 -0.85191486667E+03  0.86956344206E+03  0.00000000000E+00 0. -1.
          1    1    1    2  502    0  0.59429357673E+02 -0.11841834448E+03  0.86486958362E+02  0.15822372398E+03  0.00000000000E+00 0. -1.
<mgrwt>
<rscale>  0 0.15261070E+03</rscale>
<asrwt>0</asrwt>
<pdfrwt beam="2">  1        2 0.14795639E+00 0.17578127E+03</pdfrwt>
<pdfrwt beam="1">  1        1 0.68668597E-01 0.13249435E+03</pdfrwt>
<totfact> 0.20630568E+02</totfact>
</mgrwt>
</event>
<event>
 5    1  0.7156190E-003  0.8837988E+02  0.7546771E-02  0.1415041E+00
          2   -1    0    0  502    0  0.00000000000E+00  0.00000000000E+00  0.71380779323E+02  0.71380779323E+02  0.00000000000E+00 0. -1.
         -1   -1    0    0    0  501 -0.00000000000E+00 -0.00000000000E+00 -0.27818853946E+03  0.27818853946E+03  0.00000000000E+00 0.  1.
         25    1    1    2    0    0 -0.78518172523E+02  0.50437610441E+02 -0.95118300728E+02  0.18270617695E+03  0.12500000000E+03 0.  0.
          2    1    1    2  502    0 -0.83513894892E+01 -0.34595866724E+02 -0.34810621103E+02  0.49783521796E+02  0.00000000000E+00 0. -1.
         -1    1    1    2    0  501  0.86869562012E+02 -0.15841743716E+02 -0.76878838303E+02  0.11707962003E+03  0.00000000000E+00 0.  1.
<mgrwt>
<rscale>  0 0.56083908E+02</rscale>
<asrwt>0</asrwt>
<pdfrwt beam="1">  1        2 0.10981658E-01 0.35589601E+02</pdfrwt>
<pdfrwt beam="2">  1       -1 0.42798237E-01 0.88379881E+02</pdfrwt>
<totfact> 0.31342875E+03</totfact>
</mgrwt>
</event>
<event>
 5    1  0.7156190E-003  0.9174470E+02  0.7546771E-02  0.1351563E+00
          2   -1    0    0  502    0  0.00000000000E+00  0.00000000000E+00  0.42985166040E+03  0.42985166040E+03  0.00000000000E+00 0. -1.
          2   -1    0    0  501    0 -0.00000000000E+00 -0.00000000000E+00 -0.63060370617E+03  0.63060370617E+03  0.00000000000E+00 0. -1.
         25    1    1    2    0    0  0.61750472379E+02 -0.56378876169E+02 -0.11028619462E+03  0.18649327935E+03  0.12500000000E+03 0.  0.
          2    1    1    2  501    0 -0.45596915979E+02 -0.34872963298E+02 -0.47498113028E+03  0.47843732760E+03  0.00000000000E+00 0. -1.
          2    1    1    2  502    0 -0.16153556400E+02  0.91251839468E+02  0.38451527913E+03  0.39552475963E+03  0.00000000000E+00 0. -1.
<mgrwt>
<rscale>  0 0.72570651E+02</rscale>
<asrwt>0</asrwt>
<pdfrwt beam="1">  1        2 0.66131025E-01 0.91744703E+02</pdfrwt>
<pdfrwt beam="2">  1        2 0.97015954E-01 0.57403853E+02</pdfrwt>
<totfact> 0.57155098E+02</totfact>
</mgrwt>
</event>
<event>
 5    1  0.7156190E-003  0.1644209E+03  0.7546771E-02  0.1222772E+00
         -1   -1    0    0    0  501 -0.00000000000E+00  0.00000000000E+00  0.86225007820E+02  0.86225007820E+02  0.00000000000E+00 0.  1.
          2   -1    0    0  502    0  0.00000000000E+00 -0.00000000000E+00 -0.31806985905E+04  0.31806985905E+04  0.00000000000E+00 0. -1.
         25    1    1    2    0    0 -0.24264640012E+02 -0.18411256677E+03 -0.33077128730E+03  0.39940061906E+03  0.12500000000E+03 0.  0.
          2    1    1    2  502    0 -0.88040932972E+02  0.62413863973E+02 -0.26796344333E+04  0.26818067403E+04  0.00000000000E+00 0. -1.
         -1    1    1    2    0  501  0.11230557298E+03  0.12169870280E+03 -0.84067862141E+02  0.18571623901E+03  0.00000000000E+00 0.  1.
<mgrwt>
<rscale>  0 0.13320767E+03</rscale>
<asrwt>0</asrwt>
<pdfrwt beam="2">  1        2 0.48933818E+00 0.10791986E+03</pdfrwt>
<pdfrwt beam="1">  1       -1 0.13265388E-01 0.16442092E+03</pdfrwt>
<totfact> 0.82152868E+01</totfact>
</mgrwt>
</event>
<event>
 5    1  0.7156190E-003  0.4132358E+02  0.7546771E-02  0.1547800E+00
          2   -1    0    0  502    0  0.00000000000E+00  0.00000000000E+00  0.18964237491E+04  0.18964237491E+04  0.00000000000E+00 0. -1.
          2   -1    0    0  501    0 -0.00000000000E+00 -0.00000000000E+00 -0.16801961526E+04  0.16801961526E+04  0.00000000000E+00 0.  1.
         25    1    1    2    0    0 -0.18821216918E+01  0.32826196162E+02 -0.32641876991E+03  0.35107736311E+03  0.12500000000E+03 0.  0.
          2    1    1    2  501    0  0.31245899914E+02 -0.27761912312E+02 -0.13410046382E+04  0.13416558686E+04  0.00000000000E+00 0.  1.
          2    1    1    2  502    0 -0.29363778222E+02 -0.50642838502E+01  0.18836510046E+04  0.18838866700E+04  0.00000000000E+00 0. -1.
<mgrwt>
<rscale>  0 0.35090320E+02</rscale>
<asrwt>0</asrwt>
<pdfrwt beam="1">  1        2 0.29175750E+00 0.29797289E+02</pdfrwt>
<pdfrwt beam="2">  1        2 0.25849172E+00 0.41323575E+02</pdfrwt>
<totfact> 0.21672192E+01</totfact>
</mgrwt>
</event>
<event>
 5    1  0.7156190E-003  0.4735719E+02  0.7546771E-02  0.1505581E+00
          1   -1    0    0  502    0 -0.00000000000E+00  0.00000000000E+00  0.47602163305E+03  0.47602163305E+03  0.00000000000E+00 0. -1.
          2   -1    0    0  501    0  0.00000000000E+00 -0.00000000000E+00 -0.31144716317E+03  0.31144716317E+03  0.00000000000E+00 0.  1.
         25    1    1    2    0    0  0.83445510830E+01  0.34229490187E+02  0.28612429410E+03  0.31421871555E+03  0.12500000000E+03 0.  0.
          2    1    1    2  501    0 -0.41117676060E+02 -0.23788164429E+02 -0.29379173585E+03  0.29760733208E+03  0.00000000000E+00 0.  1.
          1    1    1    2  502    0  0.32773124977E+02 -0.10441325757E+02  0.17224191165E+03  0.17564274859E+03  0.00000000000E+00 0. -1.
<mgrwt>
<rscale>  0 0.40359728E+02</rscale>
<asrwt>0</asrwt>
<pdfrwt beam="2">  1        2 0.47914948E-01 0.47357190E+02</pdfrwt>
<pdfrwt beam="1">  1        1 0.73234098E-01 0.34396206E+02</pdfrwt>
<totfact> 0.71258283E+02</totfact>
</mgrwt>
</event>
<event>
 5    1  0.7156190E-003  0.1480654E+03  0.7546771E-02  0.1330035E+00
         -2   -1    0    0    0  501 -0.00000000000E+00  0.00000000000E+00  0.82439459496E+02  0.82439459496E+02  0.00000000000E+00 0.  1.
          2   -1    0    0  502    0  0.00000000000E+00 -0.00000000000E+00 -0.17895699624E+04  0.17895699624E+04  0.00000000000E+00 0. -1.
         25    1    1    2    0    0  0.15719107858E+03 -0.63579569565E+00 -0.11673368978E+04  0.11844871770E+04  0.12500000000E+03 0.  0.
          2    1    1    2  502    0 -0.13693953474E+03 -0.37128312175E+02 -0.59836078692E+03  0.61495250146E+03  0.00000000000E+00 0. -1.
         -2    1    1    2    0  501 -0.20251543839E+02  0.37764107871E+02  0.58567181854E+02  0.72569743430E+02  0.00000000000E+00 0.  1.
<mgrwt>
<rscale>  0 0.79654424E+02</rscale>
<asrwt>0</asrwt>
<pdfrwt beam="2">  1        2 0.27531843E+00 0.14806539E+03</pdfrwt>
<pdfrwt beam="1">  1       -2 0.12682995E-01 0.42851521E+02</pdfrwt>
<totfact> 0.41349387E+02</totfact>
</mgrwt>
</event>
<event>
 5    1  0.7156190E-003  0.3180706E+02  0.7546771E-02  0.1598284E+00
         -2   -1    0    0    0  501 -0.00000000000E+00  0.00000000000E+00  0.39484220284E+02  0.39484220284E+02  0.00000000000E+00 0. -1.
          1   -1    0    0  502    0  0.00000000000E+00 -0.00000000000E+00 -0.45207916261E+03  0.45207916261E+03  0.00000000000E+00 0. -1.
         25    1    1    2    0    0 -0.71146187987E+01 -0.58627947091E+02 -0.31217539917E+03  0.34141812171E+03  0.12500000000E+03 0.  0.
          1    1    1    2  502    0  0.12925454100E+01  0.28232734908E+02 -0.11319082262E+03  0.11666584898E+03  0.00000000000E+00 0. -1.
         -2    1    1    2    0  501  0.58220733886E+01  0.30395212182E+02  0.12771279467E+02  0.33479412202E+02  0.00000000000E+00 0. -1.
<mgrwt>
<rscale>  0 0.29982341E+02</rscale>
<asrwt>0</asrwt>
<pdfrwt beam="2">  1        1 0.69550640E-01 0.28262307E+02</pdfrwt>
<pdfrwt beam="1">  1       -2 0.60744955E-02 0.31807056E+02</pdfrwt>
<totfact> 0.56204869E+03</totfact>
</mgrwt>
</event>
<event>
 5    1  0.7156190E-003  0.5435915E+02  0.7546771E-02  0.1481630E+00
         -1   -1    0    0    0  501 -0.00000000000E+00  0.00000000000E+00  0.27117579879E+03  0.27117579879E+03  0.00000000000E+00 0.  1.
          2   -1    0    0  502    0  0.00000000000E+00 -0.00000000000E+00 -0.58047672376E+02  0.58047672376E+02  0.00000000000E+00 0. -1.
         25    1    1    2    0    0  0.62470141085E+02 -0.10997867439E+02  0.17361723000E+03  0.22313989820E+03  0.12500000000E+03 0.  0.
          2    1    1    2  502    0 -0.13748607619E+02  0.32597096182E+02 -0.61440587783E+01  0.35907441418E+02  0.00000000000E+00 0. -1.
         -1    1    1    2    0  501 -0.48721533466E+02 -0.21599228742E+02  0.45654955194E+02  0.70176131550E+02  0.00000000000E+00 0.  1.
<mgrwt>
<rscale>  0 0.43853301E+02</rscale>
<asrwt>0</asrwt>
<pdfrwt beam="2">  1        2 0.89304113E-02 0.35377887E+02</pdfrwt>
<pdfrwt beam="1">  1       -1 0.41719353E-01 0.54359154E+02</pdfrwt>
<totfact> 0.41630729E+03</totfact>
</mgrwt>
</event>
<event>
 5    1  0.7156190E-003  0.5119500E+02  0.7546771E-02  0.1444430E+00
         -2   -1    0    0    0  501 -0.00000000000E+00  0.00000000000E+00  0.71605387168E+02  0.71605387168E+02  0.00000000000E+00 0.  1.
          1   -1    0    0  502    0  0.00000000000E+00 -0.00000000000E+00 -0.29444851489E+03  0.29444851489E+03  0.00000000000E+00 0. -1.
         25    1    1    2    0    0 -0.55487000260E+02  0.20901402685E+02 -0.22491465722E+03  0.26405923363E+03  0.12500000000E+03 0.  0.
          1    1    1    2  502    0  0.15667873406E+02 -0.49738549504E+02  0.68616382446E+01  0.52597410994E+02  0.00000000000E+00 0. -1.
         -2    1    1    2    0  501  0.39819126854E+02  0.28837146820E+02 -0.47901087448E+01  0.49397257433E+02  0.00000000000E+00 0.  1.
<mgrwt>
<rscale>  0 0.50169457E+02</rscale>
<asrwt>0</asrwt>
<pdfrwt beam="2">  1        1 0.45299771E-01 0.51195000E+02</pdfrwt>
<pdfrwt beam="1">  1       -2 0.11016214E-01 0.49164458E+02</pdfrwt>
<totfact> 0.40093165E+03</totfact>
</mgrwt>
</event>
<event>
 5    1  0.7156190E-003  0.5536322E+02  0.7546771E-02  0.1489814E+00
         -1   -1    0    0    0  501 -0.00000000000E+00  0.00000000000E+00  0.89658221533E+02  0.89658221533E+02  0.00000000000E+00 0.  1.
          2   -1    0    0  502    0  0.00000000000E+00 -0.00000000000E+00 -0.16282289962E+03  0.16282289962E+03  0.00000000000E+00 0. -1.
         25    1    1    2    0    0 -0.53843803368E+02  0.47800960088E+02 -0.65094583306E+02  0.15826051852E+03  0.12500000000E+03 0.  0.
          2    1    1    2  502    0  0.21064953306E+02 -0.46618769856E+02 -0.25408842401E+02  0.57119622135E+02  0.00000000000E+00 0. -1.
         -1    1    1    2    0  501  0.32778850062E+02 -0.11821902319E+01  0.17338747618E+02  0.37100980501E+02  0.00000000000E+00 0.  1.
<mgrwt>
<rscale>  0 0.42613642E+02</rscale>
<asrwt>0</asrwt>
<pdfrwt beam="2">  1        2 0.25049677E-01 0.55363218E+02</pdfrwt>
<pdfrwt beam="1">  1       -1 0.13793573E-01 0.32800161E+02</pdfrwt>
<totfact> 0.76015466E+03</totfact>
</mgrwt>
</event>
<event>
 5    1  0.7156190E-003  0.3965251E+02  0.7546771E-02  0.1541922E+00
         -1   -1    0    0    0  501 -0.00000000000E+00  0.00000000000E+00  0.98809354828E+02  0.98809354828E+02  0.00000000000E+00 0.  1.
          2   -1    0    0  502    0  0.00000000000E+00 -0.00000000000E+00 -0.25453066392E+03  0.25453066392E+03  0.00000000000E+00 0. -1.
         25    1    1    2    0    0 -0.27846118919E+02  0.58200296027E+02  0.28644397713E+02  0.14355550257E+03  0.12500000000E+03 0.  0.
          2    1    1    2  502    0  0.29272772663E+02 -0.25975739717E+02 -0.17004816872E+03  0.17449359288E+03  0.00000000000E+00 0. -1.
         -1    1    1    2    0  501 -0.14266537441E+01 -0.32224556310E+02 -0.14317538083E+02  0.35290923295E+02  0.00000000000E+00 0.  1.
<mgrwt>
<rscale>  0 0.35763616E+02</rscale>
<asrwt>0</asrwt>
<pdfrwt beam="2">  1        2 0.39158563E-01 0.39652512E+02</pdfrwt>
<pdfrwt beam="1">  1       -1 0.15201439E-01 0.32256121E+02</pdfrwt>
<totfact> 0.40833779E+03</totfact>
</mgrwt>
</event>
<event>
 5    1  0.7156190E-003  0.1724404E+03  0.7546771E-02  0.1262561E+00
          3   -1    0    0  502    0 -0.00000000000E+00  0.00000000000E+00  0.40955913446E+03  0.40955913446E+03  0.00000000000E+00 0. -1.
          2   -1    0    0  501    0  0.00000000000E+00 -0.00000000000E+00 -0.46406056184E+03  0.46406056184E+03  0.00000000000E+00 0. -1.
         25    1    1    2    0    0 -0.12661503562E+03 -0.70191781041E+02 -0.19560101771E+03  0.27357450813E+03  0.12500000000E+03 0.  0.
          2    1    1    2  501    0  0.19542741195E+03  0.69909010339E+02 -0.17811159481E+03  0.27350115772E+03  0.00000000000E+00 0. -1.
          3    1    1    2  502    0 -0.68812376334E+02  0.28277070229E+00  0.31921118515E+03  0.32654403045E+03  0.00000000000E+00 0. -1.
<mgrwt>
<rscale>  0 0.10893180E+03</rscale>
<asrwt>0</asrwt>
<pdfrwt beam="2">  1        2 0.71393932E-01 0.17244044E+03</pdfrwt>
<pdfrwt beam="1">  1        3 0.63009098E-01 0.68812957E+02</pdfrwt>
<totfact> 0.10027303E+02</totfact>
</mgrwt>
</event>
<event>
 5    1  0.7156190E-003  0.7864529E+02  0.7546771E-02  0.1374626E+00
         -1   -1    0    0    0  501 -0.00000000000E+00  0.00000000000E+00  0.48734806845E+03  0.48734806845E+03  0.00000000000E+00 0.  1.
          1   -1    0    0  502    0  0.00000000000E+00 -0.00000000000E+00 -0.20791907943E+04  0.20791907943E+04  0.00000000000E+00 0. -1.
         25    1    1    2    0    0  0.19361756199E+02  0.88664712142E+02 -0.16160792264E+04  0.16234449097E+04  0.12500000000E+03 0.  0.
          1    1    1    2  502    0 -0.52436506005E+02 -0.17298703370E+02 -0.45454893672E+03  0.45789034514E+03  0.00000000000E+00 0. -1.
         -1    1    1    2    0  501  0.33074749805E+02 -0.71366008772E+02  0.47878543723E+03  0.48520360797E+03  0.00000000000E+00 0.  1.
<mgrwt>
<rscale>  0 0.65897622E+02</rscale>
<asrwt>0</asrwt>
<pdfrwt beam="2">  1        1 0.31987551E+00 0.55216232E+02</pdfrwt>
<pdfrwt beam="1">  1       -1 0.74976625E-01 0.78645291E+02</pdfrwt>
<totfact> 0.71734586E+00</totfact>
</mgrwt>
</event>
<event>
 5    1  0.7156190E-003  0.1155597E+03  0.7546771E-02  0.1315620E+00
         -1   -1    0    0    0  501 -0.00000000000E+00  0.00000000000E+00  0.63816305441E+03  0.63816305441E+03  0.00000000000E+00 0.  1.
          2   -1    0    0  502    0  0.00000000000E+00 -0.00000000000E+00 -0.18305817110E+03  0.18305817110E+03  0.00000000000E+00 0. -1.
         25    1    1    2    0    0  0.11797408326E+02  0.11723718289E+03  0.12055785568E+02  0.17220359422E+03  0.12500000000E+03 0.  0.
          2    1    1    2  502    0 -0.61317288167E+02 -0.11663438162E+02 -0.86563270689E+02  0.10671947081E+03  0.00000000000E+00 0. -1.
         -1    1    1    2    0  501  0.49519879841E+02 -0.10557374473E+03  0.52961236842E+03  0.54229816048E+03  0.00000000000E+00 0.  1.
<mgrwt>
<rscale>  0 0.84928532E+02</rscale>
<asrwt>0</asrwt>
<pdfrwt beam="2">  1        2 0.28162796E-01 0.62416709E+02</pdfrwt>
<pdfrwt beam="1">  1       -1 0.98178930E-01 0.11555969E+03</pdfrwt>
<totfact> 0.22673712E+02</totfact>
</mgrwt>
</event>
<event>
 5    1  0.7156190E-003  0.9060754E+02  0.7546771E-02  0.1319615E+00
          2   -1    0    0  501    0  0.00000000000E+00  0.00000000000E+00  0.35653738942E+03  0.35653738942E+03  0.00000000000E+00 0. -1.
          1   -1    0    0  502    0 -0.00000000000E+00 -0.00000000000E+00 -0.10986255020E+03  0.10986255020E+03  0.00000000000E+00 0. -1.
         25    1    1    2    0    0 -0.65120198729E+02 -0.22424117651E+02  0.18304240339E+03  0.23210558540E+03  0.12500000000E+03 0.  0.
          2    1    1    2  501    0 -0.73115353506E+02 -0.23516043222E+02  0.40408207124E+02  0.86785266089E+02  0.00000000000E+00 0. -1.
          1    1    1    2  502    0  0.13823555224E+03  0.45940160873E+02  0.23224228697E+02  0.14750908813E+03  0.00000000000E+00 0. -1.
<mgrwt>
<rscale>  0 0.83420767E+02</rscale>
<asrwt>0</asrwt>
<pdfrwt beam="1">  1        2 0.54851905E-01 0.90607541E+02</pdfrwt>
<pdfrwt beam="2">  1        1 0.16901931E-01 0.76804031E+02</pdfrwt>
<totfact> 0.37184164E+03</totfact>
</mgrwt>
</event>
<event>
 5    1  0.7156190E-003  0.3640809E+02  0.7546771E-02  0.1561704E+00
         -1   -1    0    0    0  501 -0.00000000000E+00  0.00000000000E+00  0.21565933587E+02  0.21565933587E+02  0.00000000000E+00 0.  1.
          2   -1    0    0  502    0  0.00000000000E+00 -0.00000000000E+00 -0.24802961666E+04  0.24802961666E+04  0.00000000000E+00 0.  1.
         25    1    1    2    0    0  0.12579756201E+02  0.17730951849E+02 -0.19955995806E+04  0.19996287964E+04  0.12500000000E+03 0.  0.
          2    1    1    2  502    0 -0.10920245116E+01 -0.46468001375E+02 -0.46851953001E+03  0.47081951709E+03  0.00000000000E+00 0.  1.
         -1    1    1    2    0  501 -0.11487731690E+02  0.28737049526E+02  0.53888776545E+01  0.31413786738E+02  0.00000000000E+00 0.  1.
<mgrwt>
<rscale>  0 0.33567275E+02</rscale>
<asrwt>0</asrwt>
<pdfrwt beam="2">  1        2 0.38158373E+00 0.36408093E+02</pdfrwt>
<pdfrwt beam="1">  1       -1 0.33178385E-02 0.30948118E+02</pdfrwt>
<totfact> 0.15525150E+03</totfact>
</mgrwt>
</event>
<event>
 5    1  0.7156190E-003  0.7337007E+02  0.7546771E-02  0.1481797E+00
          2   -1    0    0  501    0  0.00000000000E+00  0.00000000000E+00  0.97905053445E+03  0.97905053445E+03  0.00000000000E+00 0. -1.
          1   -1    0    0  502    0 -0.00000000000E+00 -0.00000000000E+00 -0.17498943378E+03  0.17498943378E+03  0.00000000000E+00 0. -1.
         25    1    1    2    0    0  0.19779009641E+02  0.50082522957E+02  0.38768769659E+03  0.41088467776E+03  0.12500000000E+03 0.  0.
          2    1    1    2  501    0 -0.16777841086E+02 -0.76090226920E+02  0.57607572485E+03  0.58132130474E+03  0.00000000000E+00 0. -1.
          1    1    1    2  502    0 -0.30011685548E+01  0.26007703963E+02 -0.15970232077E+03  0.16183398573E+03  0.00000000000E+00 0. -1.
<mgrwt>
<rscale>  0 0.43827501E+02</rscale>
<asrwt>0</asrwt>
<pdfrwt beam="1">  1        2 0.15062316E+00 0.73370069E+02</pdfrwt>
<pdfrwt beam="2">  1        1 0.26921452E-01 0.26180292E+02</pdfrwt>
<totfact> 0.64357772E+02</totfact>
</mgrwt>
</event>
<event>
 5    1  0.7156190E-003  0.8871687E+02  0.7546771E-02  0.1345213E+00
          2   -1    0    0  502    0  0.00000000000E+00  0.00000000000E+00  0.13523034898E+04  0.13523034898E+04  0.00000000000E+00 0. -1.
         -2   -1    0    0    0  501 -0.00000000000E+00 -0.00000000000E+00 -0.25670812661E+02  0.25670812661E+02  0.00000000000E+00 0.  1.
         25    1    1    2    0    0  0.10476553346E+03 -0.56903517003E+02  0.35434523003E+03  0.39420726693E+03  0.12500000000E+03 0.  0.
          2    1    1    2  502    0 -0.44429067777E+02  0.73869478976E+02  0.61719062710E+03  0.62318128355E+03  0.00000000000E+00 0. -1.
         -2    1    1    2    0  501 -0.60336465685E+02 -0.16965961974E+02  0.35509682003E+03  0.36058575201E+03  0.00000000000E+00 0.  1.
<mgrwt>
<rscale>  0 0.74568461E+02</rscale>
<asrwt>0</asrwt>
<pdfrwt beam="1">  1        2 0.20804663E+00 0.88716870E+02</pdfrwt>
<pdfrwt beam="2">  1       -2 0.39493569E-02 0.62676415E+02</pdfrwt>
<totfact> 0.43028963E+03</totfact>
</mgrwt>
</event>
<event>
 5    1  0.7156190E-003  0.7140187E+02  0.7546771E-02  0.1511149E+00
          2   -1    0    0  501    0  0.00000000000E+00  0.00000000000E+00  0.82103210221E+03  0.82103210221E+03  0.00000000000E+00 0. -1.
          2   -1    0    0  502    0 -0.00000000000E+00 -0.00000000000E+00 -0.64422252383E+02  0.64422252383E+02  0.00000000000E+00 0. -1.
         25    1    1    2    0    0  0.36127667330E+02  0.35506112650E+02  0.97973737729E+02  0.16670256647E+03  0.12500000000E+03 0.  0.
          2    1    1    2  501    0 -0.53063502462E+02 -0.49495499195E+02  0.68248287738E+03  0.68632967126E+03  0.00000000000E+00 0. -1.
          2    1    1    2  502    0  0.16935835132E+02  0.13989386545E+02 -0.23846765283E+02  0.32422116865E+02  0.00000000000E+00 0. -1.
<mgrwt>
<rscale>  0 0.39603618E+02</rscale>
<asrwt>0</asrwt>
<pdfrwt beam="1">  1        2 0.12631262E+00 0.71401874E+02</pdfrwt>
<pdfrwt beam="2">  1        2 0.99111164E-02 0.21966462E+02</pdfrwt>
<totfact> 0.30271711E+03</totfact>
</mgrwt>
</event>
<event>
 5    1  0.7156190E-003  0.5569771E+02  0.7546771E-02  0.1477037E+00
          2   -1    0    0  502    0  0.00000000000E+00  0.00000000000E+00  0.11135202955E+04  0.11135202955E+04  0.00000000000E+00 0. -1.
         -3   -1    0    0    0  501 -0.00000000000E+00 -0.00000000000E+00 -0.82704721155E+02  0.82704721155E+02  0.00000000000E+00 0.  1.
         25    1    1    2    0    0  0.64634038937E+02 -0.48734364386E+02  0.17259058551E+03  0.22795856525E+03  0.12500000000E+03 0.  0.
          2    1    1    2  502    0 -0.12530713659E+02  0.33393609523E+02  0.89940110513E+03  0.90010804898E+03  0.00000000000E+00 0. -1.
         -3    1    1    2    0  501 -0.52103325278E+02  0.15340754863E+02 -0.41176116310E+02  0.68158402411E+02  0.00000000000E+00 0.  1.
<mgrwt>
<rscale>  0 0.44571107E+02</rscale>
<asrwt>0</asrwt>
<pdfrwt beam="1">  1        2 0.17131080E+00 0.35667239E+02</pdfrwt>
<pdfrwt beam="2">  1       -3 0.12723804E-01 0.55697711E+02</pdfrwt>
<totfact> 0.66893727E+02</totfact>
</mgrwt>
</event>
<event>
 5    1  0.7156190E-003  0.7314111E+02  0.7546771E-02  0.1457540E+00
          2   -1    0    0  501    0  0.00000000000E+00  0.00000000000E+00  0.10229944392E+04  0.10229944392E+04  0.00000000000E+00 0. -1.
          1   -1    0    0  502    0 -0.00000000000E+00 -0.00000000000E+00 -0.10451946720E+03  0.10451946720E+03  0.00000000000E+00 0. -1.
         25    1    1    2    0    0  0.71560936813E+02 -0.54559974198E+01  0.67312270150E+03  0.68838209366E+03  0.12500000000E+03 0.  0.
          2    1    1    2  501    0 -0.28950068488E+01  0.31113985225E+02  0.32752658921E+03  0.32901387172E+03  0.00000000000E+00 0. -1.
          1    1    1    2  502    0 -0.68665929964E+02 -0.25657987805E+02 -0.82174318724E+02  0.11011794102E+03  0.00000000000E+00 0. -1.
<mgrwt>
<rscale>  0 0.47807334E+02</rscale>
<asrwt>0</asrwt>
<pdfrwt beam="1">  1        2 0.15738375E+00 0.31248378E+02</pdfrwt>
<pdfrwt beam="2">  1        1 0.16079919E-01 0.73141113E+02</pdfrwt>
<totfact> 0.12479236E+03</totfact>
</mgrwt>
</event>
<event>
 5    1  0.7156190E-003  0.7056556E+02  0.7546771E-02  0.1501536E+00
          2   -1    0    0  502    0  0.00000000000E+00  0.00000000000E+00  0.27081718240E+03  0.27081718240E+03  0.00000000000E+00 0. -1.
         -1   -1    0    0    0  501 -0.00000000000E+00 -0.00000000000E+00 -0.64850636598E+02  0.64850636598E+02  0.00000000000E+00 0.  1.
         25    1    1    2    0    0 -0.42843925963E+02  0.34402567542E+02  0.38724649029E+02  0.14192863378E+03  0.12500000000E+03 0.  0.
          2    1    1    2  502    0  0.66435239877E+02 -0.31831513489E+02  0.13369034284E+03  0.15264335596E+03  0.00000000000E+00 0. -1.
         -1    1    1    2    0  501 -0.23591313915E+02 -0.25710540530E+01  0.33551553932E+02  0.41095829258E+02  0.00000000000E+00 0.  1.
<mgrwt>
<rscale>  0 0.40921771E+02</rscale>
<asrwt>0</asrwt>
<pdfrwt beam="1">  1        2 0.41664181E-01 0.70565558E+02</pdfrwt>
<pdfrwt beam="2">  1       -1 0.99770211E-02 0.23731001E+02</pdfrwt>
<totfact> 0.70033003E+03</totfact>
</mgrwt>
</event>
<event>
 5    1  0.7156190E-003  0.5676831E+02  0.7546771E-02  0.1479392E+00
          1   -1    0    0  501    0  0.00000000000E+00  0.00000000000E+00  0.18492575261E+04  0.18492575261E+04  0.00000000000E+00 0. -1.
          1   -1    0    0  502    0 -0.00000000000E+00 -0.00000000000E+00 -0.84904972299E+02  0.84904972299E+02  0.00000000000E+00 0. -1.
         25    1    1    2    0    0 -0.39630436392E+01 -0.77598137015E+02  0.20530609542E+03  0.25261189481E+03  0.12500000000E+03 0.  0.
          1    1    1    2  501    0  0.23461938883E+02  0.25179076329E+02  0.16073090420E+04  0.16076774568E+04  0.00000000000E+00 0. -1.
          1    1    1    2  502    0 -0.19498895244E+02  0.52419060685E+02 -0.48262583647E+02  0.73873146807E+02  0.00000000000E+00 0. -1.
<mgrwt>
<rscale>  0 0.44200994E+02</rscale>
<asrwt>0</asrwt>
<pdfrwt beam="1">  1        1 0.28450113E+00 0.34415817E+02</pdfrwt>
<pdfrwt beam="2">  1        1 0.13062305E-01 0.56768314E+02</pdfrwt>
<totfact> 0.26623170E+02</totfact>
</mgrwt>
</event>
<event>
 5    1  0.7156190E-003  0.1052109E+03  0.7546771E-02  0.1366200E+00
          1   -1    0    0  502    0  0.00000000000E+00  0.00000000000E+00  0.33091081421E+03  0.33091081421E+03  0.00000000000E+00 0. -1.
         -2   -1    0    0    0  501 -0.00000000000E+00 -0.00000000000E+00 -0.90445560180E+03  0.90445560180E+03  0.00000000000E+00 0. -1.
         25    1    1    2    0    0  0.55116758606E+02 -0.40825941643E+02 -0.12169022592E+03  0.18745166223E+03  0.12500000000E+03 0.  0.
          1    1    1    2  502    0  0.43666638781E+02 -0.71871369737E+01  0.29233405241E+03  0.29566472309E+03  0.00000000000E+00 0. -1.
         -2    1    1    2    0  501 -0.98783397388E+02  0.48013078617E+02 -0.74418861409E+03  0.75225003069E+03  0.00000000000E+00 0. -1.
<mgrwt>
<rscale>  0 0.68235029E+02</rscale>
<asrwt>0</asrwt>
<pdfrwt beam="1">  1        1 0.50909356E-01 0.44254156E+02</pdfrwt>
<pdfrwt beam="2">  1       -2 0.13914702E+00 0.10521089E+03</pdfrwt>
<totfact> 0.27763262E+01</totfact>
</mgrwt>
</event>
<event>
 5    1  0.7156190E-003  0.8394308E+02  0.7546771E-02  0.1340198E+00
          1   -1    0    0  502    0 -0.00000000000E+00  0.00000000000E+00  0.13286113661E+03  0.13286113661E+03  0.00000000000E+00 0. -1.
          2   -1    0    0  501    0  0.00000000000E+00 -0.00000000000E+00 -0.85918952341E+03  0.85918952341E+03  0.00000000000E+00 0. -1.
         25    1    1    2    0    0  0.19772505915E+01 -0.14474847061E+03 -0.35413778893E+03  0.40248553118E+03  0.12500000000E+03 0.  0.
          2    1    1    2  501    0  0.56975502761E+01  0.76006293726E+02 -0.46645748658E+03  0.47264363483E+03  0.00000000000E+00 0. -1.
          1    1    1    2  502    0 -0.76748008676E+01  0.68742176884E+02  0.94266888710E+02  0.11692149400E+03  0.00000000000E+00 0. -1.
<mgrwt>
<rscale>  0 0.76198966E+02</rscale>
<asrwt>0</asrwt>
<pdfrwt beam="2">  1        2 0.13218300E+00 0.83943080E+02</pdfrwt>
<pdfrwt beam="1">  1        1 0.20440175E-01 0.69169281E+02</pdfrwt>
<totfact> 0.10962421E+03</totfact>
</mgrwt>
</event>
<event>
 5    1  0.7156190E-003  0.8803638E+02  0.7546771E-02  0.1487707E+00
          2   -1    0    0  502    0  0.00000000000E+00  0.00000000000E+00  0.38180013316E+03  0.38180013316E+03  0.00000000000E+00 0. -1.
         -1   -1    0    0    0  501 -0.00000000000E+00 -0.00000000000E+00 -0.47868126656E+02  0.47868126656E+02  0.00000000000E+00 0.  1.
         25    1    1    2    0    0 -0.67641482103E+02 -0.49261371078E+02  0.23025779258E+03  0.27503764074E+03  0.12500000000E+03 0.  0.
          2    1    1    2  502    0  0.85195918625E+02  0.37859183674E+02  0.78388949053E+02  0.12180512991E+03  0.00000000000E+00 0. -1.
         -1    1    1    2    0  501 -0.17554436521E+02  0.11402187404E+02  0.25285264875E+02  0.32825489166E+02  0.00000000000E+00 0.  1.
<mgrwt>
<rscale>  0 0.42928062E+02</rscale>
<asrwt>0</asrwt>
<pdfrwt beam="1">  1        2 0.58738480E-01 0.88036378E+02</pdfrwt>
<pdfrwt beam="2">  1       -1 0.73643274E-02 0.20932466E+02</pdfrwt>
<totfact> 0.74620946E+03</totfact>
</mgrwt>
</event>
<event>
 5    1  0.7156190E-003  0.3579193E+02  0.7546771E-02  0.1558658E+00
         -2   -1    0    0    0  501 -0.00000000000E+00  0.00000000000E+00  0.12741166450E+02  0.12741166450E+02  0.00000000000E+00 0.  1.
          1   -1    0    0  502    0  0.00000000000E+00 -0.00000000000E+00 -0.89572447962E+03  0.89572447962E+03  0.00000000000E+00 0. -1.
         25    1    1    2    0    0 -0.14526553101E+02  0.98001810877E+00 -0.63077061265E+03  0.64320179334E+03  0.12500000000E+03 0.  0.
          1    1    1    2  502    0  0.41112308648E+02 -0.18959179987E+02 -0.18928907590E+03  0.19462791856E+03  0.00000000000E+00 0. -1.
         -2    1    1    2    0  501 -0.26585755548E+02  0.17979161878E+02 -0.62923624625E+02  0.70635934168E+02  0.00000000000E+00 0.  1.
<mgrwt>
<rscale>  0 0.33892797E+02</rscale>
<asrwt>0</asrwt>
<pdfrwt beam="2">  1        1 0.13780376E+00 0.35791929E+02</pdfrwt>
<pdfrwt beam="1">  1       -2 0.19601795E-02 0.32094433E+02</pdfrwt>
<totfact> 0.11272298E+04</totfact>
</mgrwt>
</event>
<event>
 5    1  0.7156190E-003  0.9322591E+02  0.7546771E-02  0.1327345E+00
          2   -1    0    0  502    0  0.00000000000E+00  0.00000000000E+00  0.55926918817E+03  0.55926918817E+03  0.00000000000E+00 0. -1.
         -2   -1    0    0    0  501 -0.00000000000E+00 -0.00000000000E+00 -0.44065331106E+03  0.44065331106E+03  0.00000000000E+00 0.  1.
         25    1    1    2    0    0 -0.63797687676E+02  0.65718776819E+02  0.67369524217E+02  0.16897560585E+03  0.12500000000E+03 0.  0.
          2    1    1    2  502    0 -0.30659019291E+02 -0.62585682741E+02  0.43253833461E+03  0.43811682695E+03  0.00000000000E+00 0. -1.
         -2    1    1    2    0  501  0.94456706967E+02 -0.31330940786E+01 -0.38129198172E+03  0.39283006643E+03  0.00000000000E+00 0.  1.
<mgrwt>
<rscale>  0 0.80604460E+02</rscale>
<asrwt>0</asrwt>
<pdfrwt beam="1">  1        2 0.86041413E-01 0.69691772E+02</pdfrwt>
<pdfrwt beam="2">  1       -2 0.67792818E-01 0.93225911E+02</pdfrwt>
<totfact> 0.11790493E+02</totfact>
</mgrwt>
</event>
<event>
 5    1  0.7156190E-003  0.1519070E+03  0.7546771E-02  0.1316853E+00
          1   -1    0    0  501    0  0.00000000000E+00  0.00000000000E+00  0.86870975143E+02  0.86870975143E+02  0.00000000000E+00 0. -1.
          1   -1    0    0  502    0 -0.00000000000E+00 -0.00000000000E+00 -0.17640014479E+04  0.17640014479E+04  0.00000000000E+00 0. -1.
         25    1    1    2    0    0  0.16191852236E+03 -0.13821477026E+02 -0.12819410430E+03  0.24180026776E+03  0.12500000000E+03 0.  0.
          1    1    1    2  501    0 -0.14194268012E+03 -0.28676642428E+02 -0.14699102894E+03  0.20634058459E+03  0.00000000000E+00 0. -1.
          1    1    1    2  502    0 -0.19975842248E+02  0.42498119454E+02 -0.14019453395E+04  0.14027315707E+04  0.00000000000E+00 0. -1.
<mgrwt>
<rscale>  0 0.84459231E+02</rscale>
<asrwt>0</asrwt>
<pdfrwt beam="1">  1        1 0.13364767E-01 0.15190697E+03</pdfrwt>
<pdfrwt beam="2">  1        1 0.27138480E+00 0.46958752E+02</pdfrwt>
<totfact> 0.29448743E+02</totfact>
</mgrwt>
</event>
<event>
 5    1  0.7156190E-003  0.4152904E+02  0.7546771E-02  0.1589710E+00
         -2   -1    0    0    0  501 -0.00000000000E+00  0.00000000000E+00  0.69624986233E+02  0.69624986233E+02  0.00000000000E+00 0.  1.
          1   -1    0    0  502    0  0.00000000000E+00 -0.00000000000E+00 -0.14816184852E+03  0.14816184852E+03  0.00000000000E+00 0. -1.
         25    1    1    2    0    0  0.20041975654E+02 -0.16156617418E+02 -0.32890968439E+02  0.13179352366E+03  0.12500000000E+03 0.  0.
          1    1    1    2  502    0 -0.22325945245E+02  0.38843092293E+02 -0.44525726020E+02  0.63164657267E+02  0.00000000000E+00 0. -1.
         -2    1    1    2    0  501  0.22839695902E+01 -0.22686474875E+02 -0.11201678259E+01  0.22828653822E+02  0.00000000000E+00 0.  1.
<mgrwt>
<rscale>  0 0.30771904E+02</rscale>
<asrwt>0</asrwt>
<pdfrwt beam="2">  1        1 0.22794131E-01 0.41529041E+02</pdfrwt>
<pdfrwt beam="1">  1       -2 0.10711536E-01 0.22801155E+02</pdfrwt>
<totfact> 0.88502657E+03</totfact>
</mgrwt>
</event>
<event>
 5    1  0.7156190E-003  0.5796036E+02  0.7546771E-02  0.1484685E+00
          1   -1    0    0  502    0 -0.00000000000E+00  0.00000000000E+00  0.43184573829E+03  0.43184573829E+03  0.00000000000E+00 0.  1.
          2   -1    0    0  501    0  0.00000000000E+00 -0.00000000000E+00 -0.33101069419E+03  0.33101069419E+03  0.00000000000E+00 0. -1.
         25    1    1    2    0    0 -0.77669343566E+02 -0.42856370608E+02  0.15784708998E+02  0.15408878113E+03  0.12500000000E+03 0.  0.
          2    1    1    2  501    0  0.47144594667E+02  0.31773295076E+02 -0.25799697796E+03  0.26418666833E+03  0.00000000000E+00 0. -1.
          1    1    1    2  502    0  0.30524748899E+02  0.11083075533E+02  0.34304731307E+03  0.34458098302E+03  0.00000000000E+00 0.  1.
<mgrwt>
<rscale>  0 0.43384735E+02</rscale>
<asrwt>0</asrwt>
<pdfrwt beam="2">  1        2 0.50924722E-01 0.57960359E+02</pdfrwt>
<pdfrwt beam="1">  1        1 0.66437806E-01 0.32474526E+02</pdfrwt>
<totfact> 0.75517077E+02</totfact>
</mgrwt>
</event>
<event>
 5    1  0.7156190E-003  0.1207581E+03  0.7546771E-02  0.1350107E+00
         -2   -1    0    0    0  501 -0.00000000000E+00  0.00000000000E+00  0.72787044714E+02  0.72787044714E+02  0.00000000000E+00 0.  1.
          2   -1    0    0  502    0  0.00000000000E+00 -0.00000000000E+00 -0.10625037024E+04  0.10625037024E+04  0.00000000000E+00 0. -1.
         25    1    1    2    0    0  0.63841086273E+02  0.11978591594E+03 -0.55089025957E+03  0.58097282901E+03  0.12500000000E+03 0.  0.
          2    1    1    2  502    0 -0.44126310822E+02 -0.16332216492E+01 -0.43209221425E+03  0.43434258407E+03  0.00000000000E+00 0. -1.
         -2    1    1    2    0  501 -0.19714775451E+02 -0.11815269429E+03 -0.67341838400E+01  0.11997533401E+03  0.00000000000E+00 0.  1.
<mgrwt>
<rscale>  0 0.73022309E+02</rscale>
<asrwt>0</asrwt>
<pdfrwt beam="2">  1        2 0.16346210E+00 0.44156525E+02</pdfrwt>
<pdfrwt beam="1">  1       -2 0.11198007E-01 0.12075809E+03</pdfrwt>
<totfact> 0.14091153E+03</totfact>
</mgrwt>
</event>
<event>
 5    1  0.7156190E-003  0.2378535E+03  0.7546771E-02  0.1126583E+00
          3   -1    0    0  502    0 -0.00000000000E+00  0.00000000000E+00  0.24663217999E+04  0.24663217999E+04  0.00000000000E+00 0. -1.
          2   -1    0    0  501    0  0.00000000000E+00 -0.00000000000E+00 -0.13985574574E+03  0.13985574574E+03  0.00000000000E+00 0.  1.
         25    1    1    2    0    0  0.64737017181E+02  0.20307938659E+03  0.95794334955E+03  0.98929903447E+03  0.12500000000E+03 0.  0.
          2    1    1    2  501    0  0.21186092089E+03 -0.68181456968E+02  0.87676497537E+01  0.22273444403E+03  0.00000000000E+00 0.  1.
          3    1    1    2  502    0 -0.27659793807E+03 -0.13489792963E+03  0.13597550548E+04  0.13941440671E+04  0.00000000000E+00 0. -1.
<mgrwt>
<rscale>  0 0.23008063E+03</rscale>
<asrwt>0</asrwt>
<pdfrwt beam="2">  1        2 0.21516270E-01 0.22256181E+03</pdfrwt>
<pdfrwt beam="1">  1        3 0.37943409E+00 0.23785345E+03</pdfrwt>
<totfact> 0.26643349E+00</totfact>
</mgrwt>
</event>
<event>
 5    1  0.7156190E-003  0.4937174E+02  0.7546771E-02  0.1498987E+00
         -3   -1    0    0    0  501 -0.00000000000E+00  0.00000000000E+00  0.50010667915E+03  0.50010667915E+03  0.00000000000E+00 0.  1.
          2   -1    0    0  502    0  0.00000000000E+00 -0.00000000000E+00 -0.27585775400E+03  0.27585775400E+03  0.00000000000E+00 0. -1.
         25    1    1    2    0    0 -0.13949442883E+02 -0.29144522063E+02 -0.14460365020E+03  0.19385356787E+03  0.12500000000E+03 0.  0.
          2    1    1    2  502    0  0.48446887893E+02  0.27984056372E+02 -0.98609770754E+02  0.11337590240E+03  0.00000000000E+00 0. -1.
         -3    1    1    2    0  501 -0.34497445010E+02  0.11604656917E+01  0.46746234611E+03  0.46873496288E+03  0.00000000000E+00 0.  1.
<mgrwt>
<rscale>  0 0.41281500E+02</rscale>
<asrwt>0</asrwt>
<pdfrwt beam="2">  1        2 0.42439654E-01 0.49371738E+02</pdfrwt>
<pdfrwt beam="1">  1       -3 0.76939489E-01 0.34516958E+02</pdfrwt>
<totfact> 0.11023886E+02</totfact>
</mgrwt>
</event>
<event>
 5    1  0.7156190E-003  0.3778726E+02  0.7546771E-02  0.1535876E+00
          2   -1    0    0  502    0  0.00000000000E+00  0.00000000000E+00  0.99693039261E+02  0.99693039261E+02  0.00000000000E+00 0. -1.
         -1   -1    0    0    0  501 -0.00000000000E+00 -0.00000000000E+00 -0.11187847253E+03  0.11187847253E+03  0.00000000000E+00 0.  1.
         25    1    1    2    0    0 -0.30062505885E+02  0.10932437171E+02 -0.15630557790E+02  0.12997148449E+03  0.12500000000E+03 0.  0.
          2    1    1    2  502    0 -0.54899310488E+01 -0.34778397178E+02  0.13358896501E+02  0.37658151427E+02  0.00000000000E+00 0. -1.
         -1    1    1    2    0  501  0.35552436934E+02  0.23845960007E+02 -0.99137719783E+01  0.43941875875E+02  0.00000000000E+00 0.  1.
<mgrwt>
<rscale>  0 0.36475378E+02</rscale>
<asrwt>0</asrwt>
<pdfrwt beam="1">  1        2 0.15337391E-01 0.35209037E+02</pdfrwt>
<pdfrwt beam="2">  1       -1 0.17212073E-01 0.37787264E+02</pdfrwt>
<totfact> 0.91832250E+03</totfact>
</mgrwt>
</event>
<event>
 5    1  0.7156190E-003  0.2113167E+03  0.7546771E-02  0.1248757E+00
          2   -1    0    0  501    0  0.00000000000E+00  0.00000000000E+00  0.13680167463E+04  0.13680167463E+04  0.00000000000E+00 0. -1.
          2   -1    0    0  502    0 -0.00000000000E+00 -0.00000000000E+00 -0.30803249103E+04  0.30803249103E+04  0.00000000000E+00 0. -1.
         25    1    1    2    0    0  0.16882491762E+02 -0.24530713942E+03  0.11901077285E+03  0.30041500501E+03  0.12500000000E+03 0.  0.
          2    1    1    2  501    0 -0.52334394760E+02  0.37485395226E+02  0.11536886913E+04  0.11554832929E+04  0.00000000000E+00 0. -1.
          2    1    1    2  502    0  0.35451902998E+02  0.20782174420E+03 -0.29850076281E+04  0.29924433587E+04  0.00000000000E+00 0. -1.
<mgrwt>
<rscale>  0 0.11663341E+03</rscale>
<asrwt>0</asrwt>
<pdfrwt beam="1">  1        2 0.21046412E+00 0.64374247E+02</pdfrwt>
<pdfrwt beam="2">  1        2 0.47389613E+00 0.21131668E+03</pdfrwt>
<totfact> 0.54290116E+00</totfact>
</mgrwt>
</event>
<event>
 5    1  0.7156190E-003  0.7840739E+02  0.7546771E-02  0.1442856E+00
          2   -1    0    0  501    0  0.00000000000E+00  0.00000000000E+00  0.15295760998E+03  0.15295760998E+03  0.00000000000E+00 0. -1.
          1   -1    0    0  502    0 -0.00000000000E+00 -0.00000000000E+00 -0.35406544780E+03  0.35406544780E+03  0.00000000000E+00 0. -1.
         25    1    1    2    0    0  0.39453303091E+02 -0.31862185731E+02 -0.14916133045E+03  0.20111157228E+03  0.12500000000E+03 0.  0.
          2    1    1    2  501    0 -0.51219269805E+02  0.62135154984E+02  0.11246615746E+03  0.13832146492E+03  0.00000000000E+00 0. -1.
          1    1    1    2  502    0  0.11765966714E+02 -0.30272969254E+02 -0.16441266483E+03  0.16759002057E+03  0.00000000000E+00 0. -1.
<mgrwt>
<rscale>  0 0.50463847E+02</rscale>
<asrwt>0</asrwt>
<pdfrwt beam="1">  1        2 0.23531940E-01 0.78407390E+02</pdfrwt>
<pdfrwt beam="2">  1        1 0.54471607E-01 0.32479080E+02</pdfrwt>
<totfact> 0.21645141E+03</totfact>
</mgrwt>
</event>
<event>
 5    1  0.7156190E-003  0.3164628E+03  0.7546771E-02  0.1203848E+00
          3   -1    0    0  502    0 -0.00000000000E+00  0.00000000000E+00  0.17510831333E+03  0.17510831333E+03  0.00000000000E+00 0. -1.
          2   -1    0    0  501    0  0.00000000000E+00 -0.00000000000E+00 -0.15371138176E+04  0.15371138176E+04  0.00000000000E+00 0. -1.
         25    1    1    2    0    0 -0.24765263953E+03 -0.25063212568E+03 -0.85556855293E+03  0.93368669320E+03  0.12500000000E+03 0.  0.
          2    1    1    2  501    0  0.68507672566E+02 -0.23795636243E+01 -0.45998176252E+03  0.46506148558E+03  0.00000000000E+00 0. -1.
          3    1    1    2  502    0  0.17914496696E+03  0.25301168930E+03 -0.46455188820E+02  0.31347395215E+03  0.00000000000E+00 0. -1.
<mgrwt>
<rscale>  0 0.14728612E+03</rscale>
<asrwt>0</asrwt>
<pdfrwt beam="2">  1        2 0.23647905E+00 0.68548986E+02</pdfrwt>
<pdfrwt beam="1">  1        3 0.26939740E-01 0.31646277E+03</pdfrwt>
<totfact> 0.12120499E+02</totfact>
</mgrwt>
</event>
<event>
 5    1  0.7156190E-003  0.2157035E+03  0.7546771E-02  0.1151071E+00
          1   -1    0    0  502    0 -0.00000000000E+00  0.00000000000E+00  0.18869436986E+04  0.18869436986E+04  0.00000000000E+00 0. -1.
          2   -1    0    0  501    0  0.00000000000E+00 -0.00000000000E+00 -0.17965965116E+03  0.17965965116E+03  0.00000000000E+00 0. -1.
         25    1    1    2    0    0 -0.85929716826E+02  0.23718540470E+03  0.11574367485E+03  0.30440504382E+03  0.12500000000E+03 0.  0.
          2    1    1    2  501    0  0.17823164665E+03 -0.39417159222E+02  0.29405859569E+02  0.18489168961E+03  0.00000000000E+00 0. -1.
          1    1    1    2  502    0 -0.92301929828E+02 -0.19776824547E+03  0.15621345131E+04  0.15773066164E+04  0.00000000000E+00 0. -1.
<mgrwt>
<rscale>  0 0.19842919E+03</rscale>
<asrwt>0</asrwt>
<pdfrwt beam="2">  1        2 0.27639948E-01 0.18253830E+03</pdfrwt>
<pdfrwt beam="1">  1        1 0.29029902E+00 0.21570346E+03</pdfrwt>
<totfact> 0.10646651E+02</totfact>
</mgrwt>
</event>
<event>
 5    1  0.7156190E-003  0.7065765E+02  0.7546771E-02  0.1424813E+00
          2   -1    0    0  502    0  0.00000000000E+00  0.00000000000E+00  0.63780056850E+03  0.63780056850E+03  0.00000000000E+00 0. -1.
         -1   -1    0    0    0  501 -0.00000000000E+00 -0.00000000000E+00 -0.52197034197E+02  0.52197034197E+02  0.00000000000E+00 0.  1.
         25    1    1    2    0    0  0.15985118191E+02  0.69161920819E+02  0.23441461477E+03  0.27498019367E+03  0.12500000000E+03 0.  0.
          2    1    1    2  502    0  0.36463406726E+02 -0.19378461730E+02  0.33921525966E+03  0.34171932517E+03  0.00000000000E+00 0. -1.
         -1    1    1    2    0  501 -0.52448524917E+02 -0.49783459089E+02  0.11973659867E+02  0.73298083846E+02  0.00000000000E+00 0.  1.
<mgrwt>
<rscale>  0 0.54015373E+02</rscale>
<asrwt>0</asrwt>
<pdfrwt beam="1">  1        2 0.98123159E-01 0.41292915E+02</pdfrwt>
<pdfrwt beam="2">  1       -1 0.80303134E-02 0.70657655E+02</pdfrwt>
<totfact> 0.43560422E+03</totfact>
</mgrwt>
</event>
<event>
 5    1  0.7156190E-003  0.8760018E+02  0.7546771E-02  0.1318125E+00
          2   -1    0    0  501    0  0.00000000000E+00  0.00000000000E+00  0.16141954404E+04  0.16141954404E+04  0.00000000000E+00 0. -1.
          1   -1    0    0  502    0 -0.00000000000E+00 -0.00000000000E+00 -0.16721987138E+04  0.16721987138E+04  0.00000000000E+00 0. -1.
         25    1    1    2    0    0 -0.74047311911E+02 -0.97561493685E+01 -0.48660933039E+03  0.50792895889E+03  0.12500000000E+03 0.  0.
          2    1    1    2  501    0  0.30193012453E+02 -0.74630581995E+02  0.16005978370E+04  0.16026212209E+04  0.00000000000E+00 0. -1.
          1    1    1    2  502    0  0.43854299458E+02  0.84386731363E+02 -0.11719917799E+04  0.11758439744E+04  0.00000000000E+00 0. -1.
<mgrwt>
<rscale>  0 0.83978619E+02</rscale>
<asrwt>0</asrwt>
<pdfrwt beam="1">  1        2 0.24833776E+00 0.80506781E+02</pdfrwt>
<pdfrwt beam="2">  1        1 0.25726134E+00 0.87600180E+02</pdfrwt>
<totfact> 0.11208882E+01</totfact>
</mgrwt>
</event>
<event>
 5    1  0.7156190E-003  0.1599231E+03  0.7546771E-02  0.1196818E+00
         -2   -1    0    0    0  501 -0.00000000000E+00  0.00000000000E+00  0.55325564385E+03  0.55325564385E+03  0.00000000000E+00 0.  1.
          2   -1    0    0  502    0  0.00000000000E+00 -0.00000000000E+00 -0.12900283880E+04  0.12900283880E+04  0.00000000000E+00 0. -1.
         25    1    1    2    0    0 -0.62097958279E+02  0.50760799654E+02 -0.57000419166E+02  0.15908130936E+03  0.12500000000E+03 0.  0.
          2    1    1    2  502    0 -0.69490263208E+02 -0.14403649354E+03 -0.11634243853E+04  0.11743643848E+04  0.00000000000E+00 0. -1.
         -2    1    1    2    0  501  0.13158822149E+03  0.93275693885E+02  0.48365206029E+03  0.50983833763E+03  0.00000000000E+00 0.  1.
<mgrwt>
<rscale>  0 0.15301326E+03</rscale>
<asrwt>0</asrwt>
<pdfrwt beam="2">  1        2 0.19846591E+00 0.15992313E+03</pdfrwt>
<pdfrwt beam="1">  1       -2 0.85116252E-01 0.14640194E+03</pdfrwt>
<totfact> 0.23544885E+01</totfact>
</mgrwt>
</event>
<event>
 5    1  0.7156190E-003  0.7463451E+02  0.7546771E-02  0.1419220E+00
          1   -1    0    0  502    0 -0.00000000000E+00  0.00000000000E+00  0.70059405218E+03  0.70059405218E+03  0.00000000000E+00 0. -1.
          2   -1    0    0  501    0  0.00000000000E+00 -0.00000000000E+00 -0.12092696654E+04  0.12092696654E+04  0.00000000000E+00 0. -1.
         25    1    1    2    0    0 -0.76697250641E+01 -0.66196603255E+02 -0.24899366713E+03  0.28646755704E+03  0.12500000000E+03 0.  0.
          2    1    1    2  501    0 -0.39908918184E+02  0.85086588983E+01 -0.93904448192E+03  0.93993066662E+03  0.00000000000E+00 0. -1.
          1    1    1    2  502    0  0.47578643248E+02  0.57687944356E+02  0.67936253586E+03  0.68346549390E+03  0.00000000000E+00 0. -1.
<mgrwt>
<rscale>  0 0.55186284E+02</rscale>
<asrwt>0</asrwt>
<pdfrwt beam="2">  1        2 0.18604148E+00 0.40805870E+02</pdfrwt>
<pdfrwt beam="1">  1        1 0.10778370E+00 0.74634507E+02</pdfrwt>
<totfact> 0.90953564E+01</totfact>
</mgrwt>
</event>
<event>
 5    1  0.7156190E-003  0.3375127E+02  0.7546771E-02  0.1653488E+00
          2   -1    0    0  502    0  0.00000000000E+00  0.00000000000E+00  0.10676665388E+04  0.10676665388E+04  0.00000000000E+00 0. -1.
         -1   -1    0    0    0  501 -0.00000000000E+00 -0.00000000000E+00 -0.12357244841E+02  0.12357244841E+02  0.00000000000E+00 0.  1.
         25    1    1    2    0    0  0.24517432404E+01 -0.37258675323E+01  0.91104379736E+03  0.91958995962E+03  0.12500000000E+03 0.  0.
          2    1    1    2  502    0  0.11610034094E+02  0.34408346070E+02  0.70012129349E+02  0.78869673683E+02  0.00000000000E+00 0. -1.
         -1    1    1    2    0  501 -0.14061777335E+02 -0.30682478537E+02  0.74253367203E+02  0.81564150287E+02  0.00000000000E+00 0.  1.
<mgrwt>
<rscale>  0 0.25531177E+02</rscale>
<asrwt>0</asrwt>
<pdfrwt beam="1">  1        2 0.16425632E+00 0.19313082E+02</pdfrwt>
<pdfrwt beam="2">  1       -1 0.19011154E-02 0.33751268E+02</pdfrwt>
<totfact> 0.17498638E+04</totfact>
</mgrwt>
</event>
<event>
 5    1  0.7156190E-003  0.6434815E+02  0.7546771E-02  0.1411896E+00
          1   -1    0    0  502    0  0.00000000000E+00  0.00000000000E+00  0.50561133604E+02  0.50561133604E+02  0.00000000000E+00 0. -1.
          1   -1    0    0  501    0 -0.00000000000E+00 -0.00000000000E+00 -0.23004438412E+04  0.23004438412E+04  0.00000000000E+00 0. -1.
         25    1    1    2    0    0 -0.34165872088E+02 -0.65351830378E+02 -0.12733127231E+03  0.19307102697E+03  0.12500000000E+03 0.  0.
          1    1    1    2  501    0 -0.27398149736E+02  0.41932025580E+02 -0.20775663539E+04  0.20781700864E+04  0.00000000000E+00 0. -1.
          1    1    1    2  502    0  0.61564021824E+02  0.23419804798E+02 -0.44985081473E+02  0.79763861460E+02  0.00000000000E+00 0. -1.
<mgrwt>
<rscale>  0 0.56772915E+02</rscale>
<asrwt>0</asrwt>
<pdfrwt beam="1">  1        1 0.77786371E-02 0.64348153E+02</pdfrwt>
<pdfrwt beam="2">  1        1 0.35391438E+00 0.50089454E+02</pdfrwt>
<totfact> 0.26395496E+02</totfact>
</mgrwt>
</event>
<event>
 5    1  0.7156190E-003  0.6485072E+02  0.7546771E-02  0.1411957E+00
         -1   -1    0    0    0  501 -0.00000000000E+00  0.00000000000E+00  0.55021418152E+03  0.55021418152E+03  0.00000000000E+00 0.  1.
          2   -1    0    0  502    0  0.00000000000E+00 -0.00000000000E+00 -0.77701348165E+03  0.77701348165E+03  0.00000000000E+00 0.  1.
         25    1    1    2    0    0  0.25004492640E+02 -0.56405446487E+02  0.15937376992E+03  0.21173520630E+03  0.12500000000E+03 0.  0.
          2    1    1    2  502    0 -0.49284007905E+02 -0.62427317318E+01 -0.74690575565E+03  0.74855600522E+03  0.00000000000E+00 0.  1.
         -1    1    1    2    0  501  0.24279515265E+02  0.62648178218E+02  0.36073268559E+03  0.36693645165E+03  0.00000000000E+00 0.  1.
<mgrwt>
<rscale>  0 0.56759511E+02</rscale>
<asrwt>0</asrwt>
<pdfrwt beam="2">  1        2 0.11954054E+00 0.49677813E+02</pdfrwt>
<pdfrwt beam="1">  1       -1 0.84648336E-01 0.64850723E+02</pdfrwt>
<totfact> 0.68595783E+01</totfact>
</mgrwt>
</event>
<event>
 5    1  0.7156190E-003  0.1511625E+03  0.7546771E-02  0.1225658E+00
          1   -1    0    0  501    0  0.00000000000E+00  0.00000000000E+00  0.15596914373E+04  0.15596914373E+04  0.00000000000E+00 0. -1.
          1   -1    0    0  502    0 -0.00000000000E+00 -0.00000000000E+00 -0.78558363619E+03  0.78558363619E+03  0.00000000000E+00 0. -1.
         25    1    1    2    0    0  0.28602262123E+02 -0.24714317581E+03  0.50881145332E+03  0.58001028765E+03  0.12500000000E+03 0.  0.
          1    1    1    2  501    0 -0.36681552540E+02  0.13352370532E+03  0.10061863599E+04  0.10156697824E+04  0.00000000000E+00 0. -1.
          1    1    1    2  502    0  0.80792904175E+01  0.11361947049E+03 -0.74089001211E+03  0.74959500336E+03  0.00000000000E+00 0. -1.
<mgrwt>
<rscale>  0 0.13121877E+03</rscale>
<asrwt>0</asrwt>
<pdfrwt beam="1">  1        1 0.23995253E+00 0.15116245E+03</pdfrwt>
<pdfrwt beam="2">  1        1 0.12085902E+00 0.11390636E+03</pdfrwt>
<totfact> 0.20622604E+01</totfact>
</mgrwt>
</event>
<event>
 5    1  0.7156190E-003  0.1358498E+03  0.7546771E-02  0.1300754E+00
          2   -1    0    0  501    0  0.00000000000E+00  0.00000000000E+00  0.14975616162E+04  0.14975616162E+04  0.00000000000E+00 0. -1.
          1   -1    0    0  502    0 -0.00000000000E+00 -0.00000000000E+00 -0.49549965750E+03  0.49549965750E+03  0.00000000000E+00 0. -1.
         25    1    1    2    0    0 -0.91836203423E+02  0.15620969389E+03  0.21175690572E+03  0.30545268675E+03  0.12500000000E+03 0.  0.
          2    1    1    2  501    0 -0.25965791400E+01 -0.60730224767E+02  0.12281393523E+04  0.12296427006E+04  0.00000000000E+00 0. -1.
          1    1    1    2  502    0  0.94432782563E+02 -0.95479469118E+02 -0.43783429931E+03  0.45796588639E+03  0.00000000000E+00 0. -1.
<mgrwt>
<rscale>  0 0.90872042E+02</rscale>
<asrwt>0</asrwt>
<pdfrwt beam="1">  1        2 0.23039409E+00 0.60785709E+02</pdfrwt>
<pdfrwt beam="2">  1        1 0.76230717E-01 0.13584983E+03</pdfrwt>
<totfact> 0.98326236E+01</totfact>
</mgrwt>
</event>
<event>
 5    1  0.7156190E-003  0.1147933E+03  0.7546771E-02  0.1306868E+00
         -2   -1    0    0    0  501 -0.00000000000E+00  0.00000000000E+00  0.14855879932E+04  0.14855879932E+04  0.00000000000E+00 0.  1.
          2   -1    0    0  502    0  0.00000000000E+00 -0.00000000000E+00 -0.78459694480E+02  0.78459694480E+02  0.00000000000E+00 0. -1.
         25    1    1    2    0    0  0.83635815453E+02  0.95323904133E+02  0.22272915141E+03  0.28515762521E+03  0.12500000000E+03 0.  0.
          2    1    1    2  502    0 -0.11084971441E+03 -0.32988950951E+02  0.26057825698E+02  0.11855353369E+03  0.00000000000E+00 0. -1.
         -2    1    1    2    0  501  0.27213898956E+02 -0.62334953183E+02  0.11583413216E+04  0.11603365288E+04  0.00000000000E+00 0.  1.
<mgrwt>
<rscale>  0 0.88361985E+02</rscale>
<asrwt>0</asrwt>
<pdfrwt beam="2">  1        2 0.12070723E-01 0.11479335E+03</pdfrwt>
<pdfrwt beam="1">  1       -2 0.22855198E+00 0.68016488E+02</pdfrwt>
<totfact> 0.52397198E+01</totfact>
</mgrwt>
</event>
<event>
 5    1  0.7156190E-003  0.5980364E+03  0.7546771E-02  0.9909488E-01
         -1   -1    0    0    0  501 -0.00000000000E+00  0.00000000000E+00  0.23095486155E+02  0.23095486155E+02  0.00000000000E+00 0.  1.
          2   -1    0    0  502    0  0.00000000000E+00 -0.00000000000E+00 -0.38714009109E+04  0.38714009109E+04  0.00000000000E+00 0. -1.
         25    1    1    2    0    0  0.13228522641E+03  0.24510152167E+03 -0.19402334560E+04  0.19641041217E+04  0.12500000000E+03 0.  0.
          2    1    1    2  502    0 -0.11034816727E+03 -0.18678475125E+03 -0.16804848668E+04  0.16944304793E+04  0.00000000000E+00 0. -1.
         -1    1    1    2    0  501 -0.21937059140E+02 -0.58316770416E+02 -0.22758710193E+03  0.23596179615E+03  0.00000000000E+00 0.  1.
<mgrwt>
<rscale>  0 0.59803641E+03</rscale>
<asrwt>0</asrwt>
<pdfrwt beam="2">  1        2 0.59560025E+00 0.59803641E+03</pdfrwt>
<pdfrwt beam="1">  1       -1 0.35531511E-02 0.59803641E+03</pdfrwt>
<totfact> 0.17228859E+02</totfact>
</mgrwt>
</event>
<event>
 5    1  0.7156190E-003  0.1014504E+03  0.7546771E-02  0.1395503E+00
          2   -1    0    0  502    0  0.00000000000E+00  0.00000000000E+00  0.81336393597E+02  0.81336393597E+02  0.00000000000E+00 0. -1.
         -2   -1    0    0    0  501 -0.00000000000E+00 -0.00000000000E+00 -0.35064426909E+03  0.35064426909E+03  0.00000000000E+00 0.  1.
         25    1    1    2    0    0 -0.73031393238E+02 -0.10195522334E+03 -0.17989366091E+03  0.25241866254E+03  0.12500000000E+03 0.  0.
          2    1    1    2  502    0  0.69265634068E+02  0.66002871393E+02 -0.15018319960E+02  0.96848629466E+02  0.00000000000E+00 0. -1.
         -2    1    1    2    0  501  0.37657591701E+01  0.35952351944E+02 -0.74395894631E+02  0.82713370686E+02  0.00000000000E+00 0.  1.
<mgrwt>
<rscale>  0 0.60558522E+02</rscale>
<asrwt>0</asrwt>
<pdfrwt beam="1">  1        2 0.12513291E-01 0.10145042E+03</pdfrwt>
<pdfrwt beam="2">  1       -2 0.53945272E-01 0.36149033E+02</pdfrwt>
<totfact> 0.15279377E+03</totfact>
</mgrwt>
</event>
<event>
 5    1  0.7156190E-003  0.5032947E+02  0.7546771E-02  0.1539425E+00
          2   -1    0    0  501    0  0.00000000000E+00  0.00000000000E+00  0.43089105618E+03  0.43089105618E+03  0.00000000000E+00 0. -1.
          1   -1    0    0  502    0 -0.00000000000E+00 -0.00000000000E+00 -0.67722954278E+02  0.67722954278E+02  0.00000000000E+00 0. -1.
         25    1    1    2    0    0 -0.33157571012E+02 -0.10910370924E+02  0.22034380605E+03  0.25572417479E+03  0.12500000000E+03 0.  0.
          2    1    1    2  501    0  0.54074436282E+02 -0.42433704284E+01  0.18535611838E+03  0.19312933872E+03  0.00000000000E+00 0. -1.
          1    1    1    2  502    0 -0.20916865269E+02  0.15153741352E+02 -0.42531822524E+02  0.49760496952E+02  0.00000000000E+00 0. -1.
<mgrwt>
<rscale>  0 0.36055143E+02</rscale>
<asrwt>0</asrwt>
<pdfrwt beam="1">  1        2 0.66290930E-01 0.50329468E+02</pdfrwt>
<pdfrwt beam="2">  1        1 0.10418916E-01 0.25829269E+02</pdfrwt>
<totfact> 0.52257430E+03</totfact>
</mgrwt>
</event>
<event>
 5    1  0.7156190E-003  0.1008762E+03  0.7546771E-02  0.1293902E+00
          1   -1    0    0  502    0 -0.00000000000E+00  0.00000000000E+00  0.17697252835E+04  0.17697252835E+04  0.00000000000E+00 0. -1.
          2   -1    0    0  501    0  0.00000000000E+00 -0.00000000000E+00 -0.34981484560E+02  0.34981484560E+02  0.00000000000E+00 0. -1.
         25    1    1    2    0    0  0.12154589022E+02 -0.49627934754E+02  0.76122008224E+03  0.77310521894E+03  0.12500000000E+03 0.  0.
          2    1    1    2  501    0 -0.99373448195E+02  0.49122069280E+02  0.87311536971E+02  0.14110763404E+03  0.00000000000E+00 0. -1.
          1    1    1    2  502    0  0.87218859173E+02  0.50586547421E+00  0.88621217977E+03  0.89049391512E+03  0.00000000000E+00 0. -1.
<mgrwt>
<rscale>  0 0.93800085E+02</rscale>
<asrwt>0</asrwt>
<pdfrwt beam="2">  1        2 0.53817682E-02 0.10087621E+03</pdfrwt>
<pdfrwt beam="1">  1        1 0.27226536E+00 0.87220326E+02</pdfrwt>
<totfact> 0.96100923E+02</totfact>
</mgrwt>
</event>
<event>
 5    1  0.7156190E-003  0.6113782E+02  0.7546771E-02  0.1477141E+00
         -2   -1    0    0    0  501 -0.00000000000E+00  0.00000000000E+00  0.33434915978E+02  0.33434915978E+02  0.00000000000E+00 0.  1.
          1   -1    0    0  502    0  0.00000000000E+00 -0.00000000000E+00 -0.44964224531E+03  0.44964224531E+03  0.00000000000E+00 0. -1.
         25    1    1    2    0    0 -0.53814911854E+02  0.33879952013E+02 -0.26309482304E+03  0.29814054034E+03  0.12500000000E+03 0.  0.
          1    1    1    2  502    0  0.29378615542E+02 -0.55260779450E+02 -0.13233602804E+03  0.14638880119E+03  0.00000000000E+00 0. -1.
         -2    1    1    2    0  501  0.24436296311E+02  0.21380827437E+02 -0.20776478256E+02  0.38547819757E+02  0.00000000000E+00 0.  1.
<mgrwt>
<rscale>  0 0.44554666E+02</rscale>
<asrwt>0</asrwt>
<pdfrwt beam="2">  1        1 0.69175724E-01 0.61137823E+02</pdfrwt>
<pdfrwt beam="1">  1       -2 0.51438337E-02 0.32469561E+02</pdfrwt>
<totfact> 0.71294956E+03</totfact>
</mgrwt>
</event>
<event>
 5    1  0.7156190E-003  0.9498217E+02  0.7546771E-02  0.1386697E+00
          2   -1    0    0  501    0  0.00000000000E+00  0.00000000000E+00  0.29334383308E+03  0.29334383308E+03  0.00000000000E+00 0. -1.
          2   -1    0    0  502    0 -0.00000000000E+00 -0.00000000000E+00 -0.13818731835E+04  0.13818731835E+04  0.00000000000E+00 0.  1.
         25    1    1    2    0    0  0.13300325626E+02  0.53223778670E+02  0.18130261830E+03  0.22694781048E+03  0.12500000000E+03 0.  0.
          2    1    1    2  501    0  0.21076559436E+02  0.35676360850E+02  0.82637897650E+02  0.92444827920E+02  0.00000000000E+00 0. -1.
          2    1    1    2  502    0 -0.34376885062E+02 -0.88900139520E+02 -0.13524698664E+04  0.13558243782E+04  0.00000000000E+00 0.  1.
<mgrwt>
<rscale>  0 0.62735757E+02</rscale>
<asrwt>0</asrwt>
<pdfrwt beam="1">  1        2 0.45129821E-01 0.41436989E+02</pdfrwt>
<pdfrwt beam="2">  1        2 0.21259587E+00 0.94982170E+02</pdfrwt>
<totfact> 0.29282027E+02</totfact>
</mgrwt>
</event>
<event>
 5    1  0.7156190E-003  0.7485836E+02  0.7546771E-02  0.1415485E+00
          1   -1    0    0  502    0  0.00000000000E+00  0.00000000000E+00  0.13167323228E+04  0.13167323228E+04  0.00000000000E+00 0. -1.
         -2   -1    0    0    0  501 -0.00000000000E+00 -0.00000000000E+00 -0.82683738928E+02  0.82683738928E+02  0.00000000000E+00 0.  1.
         25    1    1    2    0    0 -0.10657260376E+01  0.43336754324E+02  0.14807489069E+03  0.19857085209E+03  0.12500000000E+03 0.  0.
          1    1    1    2  502    0 -0.31171513438E+02 -0.70061377947E+02  0.11343067381E+04  0.11368957894E+04  0.00000000000E+00 0. -1.
         -2    1    1    2    0  501  0.32237239476E+02  0.26724623623E+02 -0.48333044904E+02  0.63949420220E+02  0.00000000000E+00 0.  1.
<mgrwt>
<rscale>  0 0.55987773E+02</rscale>
<asrwt>0</asrwt>
<pdfrwt beam="1">  1        1 0.20257419E+00 0.74858358E+02</pdfrwt>
<pdfrwt beam="2">  1       -2 0.12720576E-01 0.41874158E+02</pdfrwt>
<totfact> 0.37675657E+02</totfact>
</mgrwt>
</event>
<event>
 5    1  0.7156190E-003  0.3953359E+02  0.7546771E-02  0.1576103E+00
         -1   -1    0    0    0  501 -0.00000000000E+00  0.00000000000E+00  0.46947372625E+03  0.46947372625E+03  0.00000000000E+00 0.  1.
          2   -1    0    0  502    0  0.00000000000E+00 -0.00000000000E+00 -0.99192974831E+03  0.99192974831E+03  0.00000000000E+00 0. -1.
         25    1    1    2    0    0  0.26737024846E+01  0.52624925057E+02 -0.29328427912E+03  0.32313650336E+03  0.12500000000E+03 0.  0.
          2    1    1    2  502    0 -0.19740964901E+02 -0.16986240458E+02 -0.68261180993E+03  0.68310842559E+03  0.00000000000E+00 0. -1.
         -1    1    1    2    0  501  0.17067262416E+02 -0.35638684599E+02  0.45344006699E+03  0.45515854560E+03  0.00000000000E+00 0.  1.
<mgrwt>
<rscale>  0 0.32086969E+02</rscale>
<asrwt>0</asrwt>
<pdfrwt beam="2">  1        2 0.15260458E+00 0.26043004E+02</pdfrwt>
<pdfrwt beam="1">  1       -1 0.72226727E-01 0.39533595E+02</pdfrwt>
<totfact> 0.72899607E+01</totfact>
</mgrwt>
</event>
<event>
 5    1  0.7156190E-003  0.9200710E+02  0.7546771E-02  0.1429563E+00
          1   -1    0    0  502    0 -0.00000000000E+00  0.00000000000E+00  0.39254985971E+03  0.39254985971E+03  0.00000000000E+00 0. -1.
          2   -1    0    0  501    0  0.00000000000E+00 -0.00000000000E+00 -0.31473377401E+03  0.31473377401E+03  0.00000000000E+00 0. -1.
         25    1    1    2    0    0  0.57981224000E+02  0.10036183086E+03  0.70937327746E+02  0.18463863057E+03  0.12500000000E+03 0.  0.
          2    1    1    2  501    0 -0.29352723179E+01 -0.30444164894E+02 -0.24944557019E+03  0.25131365957E+03  0.00000000000E+00 0. -1.
          1    1    1    2  502    0 -0.55045951682E+02 -0.69917665966E+02  0.25632432814E+03  0.27133134358E+03  0.00000000000E+00 0. -1.
<mgrwt>
<rscale>  0 0.53047793E+02</rscale>
<asrwt>0</asrwt>
<pdfrwt beam="2">  1        2 0.48420580E-01 0.30585340E+02</pdfrwt>
<pdfrwt beam="1">  1        1 0.60392286E-01 0.92007099E+02</pdfrwt>
<totfact> 0.87642885E+02</totfact>
</mgrwt>
</event>
<event>
 5    1  0.7156190E-003  0.5633468E+02  0.7546771E-02  0.1504287E+00
          1   -1    0    0  501    0  0.00000000000E+00  0.00000000000E+00  0.16981117214E+04  0.16981117214E+04  0.00000000000E+00 0. -1.
          1   -1    0    0  502    0 -0.00000000000E+00 -0.00000000000E+00 -0.59809069956E+02  0.59809069956E+02  0.00000000000E+00 0. -1.
         25    1    1    2    0    0 -0.54270675424E+02  0.17088447330E+02  0.86739530287E+02  0.16243788769E+03  0.12500000000E+03 0.  0.
          1    1    1    2  501    0  0.55121129270E+02  0.12070370373E+02  0.15630963522E+04  0.15641145224E+04  0.00000000000E+00 0. -1.
          1    1    1    2  502    0 -0.85045384563E+00 -0.29158817702E+02 -0.11533231126E+02  0.31368381242E+02  0.00000000000E+00 0. -1.
<mgrwt>
<rscale>  0 0.40538268E+02</rscale>
<asrwt>0</asrwt>
<pdfrwt beam="1">  1        1 0.26124792E+00 0.56334679E+02</pdfrwt>
<pdfrwt beam="2">  1        1 0.92013966E-02 0.29171217E+02</pdfrwt>
<totfact> 0.45865190E+02</totfact>
</mgrwt>
</event>
<event>
 5    1  0.7156190E-003  0.3184884E+02  0.7546771E-02  0.1639447E+00
          1   -1    0    0  502    0  0.00000000000E+00  0.00000000000E+00  0.17739786304E+03  0.17739786304E+03  0.00000000000E+00 0. -1.
         -1   -1    0    0    0  501 -0.00000000000E+00 -0.00000000000E+00 -0.71069662310E+02  0.71069662310E+02  0.00000000000E+00 0.  1.
         25    1    1    2    0    0  0.22790673079E+01  0.27245962217E+02  0.50079178798E+02  0.13740618892E+03  0.12500000000E+03 0.  0.
          1    1    1    2  502    0  0.21709874551E+02 -0.44594859799E+01  0.71334654725E+02  0.74698317471E+02  0.00000000000E+00 0. -1.
         -1    1    1    2    0  501 -0.23988941859E+02 -0.22786476238E+02 -0.15085632794E+02  0.36363018956E+02  0.00000000000E+00 0.  1.
<mgrwt>
<rscale>  0 0.26568231E+02</rscale>
<asrwt>0</asrwt>
<pdfrwt beam="1">  1        1 0.27291979E-01 0.22163160E+02</pdfrwt>
<pdfrwt beam="2">  1       -1 0.10933794E-01 0.31848838E+02</pdfrwt>
<totfact> 0.73363597E+03</totfact>
</mgrwt>
</event>
<event>
 5    1  0.7156190E-003  0.1357887E+03  0.7546771E-02  0.1339168E+00
          2   -1    0    0  501    0  0.00000000000E+00  0.00000000000E+00  0.11373480710E+04  0.11373480710E+04  0.00000000000E+00 0. -1.
          1   -1    0    0  502    0 -0.00000000000E+00 -0.00000000000E+00 -0.25490884272E+04  0.25490884272E+04  0.00000000000E+00 0. -1.
         25    1    1    2    0    0 -0.16550919999E+03 -0.53111434298E+02  0.47636742060E+03  0.52226912521E+03  0.12500000000E+03 0.  0.
          2    1    1    2  501    0  0.32031604129E+02  0.28901629212E+02  0.63547665821E+03  0.63693948768E+03  0.00000000000E+00 0. -1.
          1    1    1    2  502    0  0.13347759586E+03  0.24209805086E+02 -0.25235844350E+04  0.25272278852E+04  0.00000000000E+00 0. -1.
<mgrwt>
<rscale>  0 0.76539846E+02</rscale>
<asrwt>0</asrwt>
<pdfrwt beam="1">  1        2 0.17497663E+00 0.43143109E+02</pdfrwt>
<pdfrwt beam="2">  1        1 0.39216745E+00 0.13578873E+03</pdfrwt>
<totfact> 0.54071494E+00</totfact>
</mgrwt>
</event>
<event>
 5    1  0.7156190E-003  0.3871591E+02  0.7546771E-02  0.1530723E+00
          2   -1    0    0  502    0  0.00000000000E+00  0.00000000000E+00  0.12597700557E+04  0.12597700557E+04  0.00000000000E+00 0. -1.
         -2   -1    0    0    0  501 -0.00000000000E+00 -0.00000000000E+00 -0.13800246765E+03  0.13800246765E+03  0.00000000000E+00 0.  1.
         25    1    1    2    0    0 -0.71040948908E-01  0.73853996450E+02  0.25858221568E+03  0.29655384014E+03  0.12500000000E+03 0.  0.
          2    1    1    2  502    0  0.84316967827E+00 -0.35537309737E+02  0.97878578974E+03  0.97943107645E+03  0.00000000000E+00 0. -1.
         -2    1    1    2    0  501 -0.77212872936E+00 -0.38316686713E+02 -0.11560041737E+03  0.12178760676E+03  0.00000000000E+00 0.  1.
<mgrwt>
<rscale>  0 0.37097798E+02</rscale>
<asrwt>0</asrwt>
<pdfrwt beam="1">  1        2 0.19381077E+00 0.35547311E+02</pdfrwt>
<pdfrwt beam="2">  1       -2 0.21231150E-01 0.38715913E+02</pdfrwt>
<totfact> 0.37665626E+02</totfact>
</mgrwt>
</event>
<event>
 5    1  0.7156190E-003  0.1891527E+03  0.7546771E-02  0.1345907E+00
          1   -1    0    0  502    0 -0.00000000000E+00  0.00000000000E+00  0.22616091084E+03  0.22616091084E+03  0.00000000000E+00 0. -1.
          2   -1    0    0  501    0  0.00000000000E+00 -0.00000000000E+00 -0.69755612955E+03  0.69755612955E+03  0.00000000000E+00 0. -1.
         25    1    1    2    0    0  0.15519970987E+03 -0.73512711880E+02 -0.92836651642E+02  0.23180749047E+03  0.12500000000E+03 0.  0.
          2    1    1    2  501    0 -0.16542066013E+03  0.10088884738E+03 -0.51611321038E+03  0.55128522587E+03  0.00000000000E+00 0. -1.
          1    1    1    2  502    0  0.10220950264E+02 -0.27376135502E+02  0.13755464331E+03  0.14062432405E+03  0.00000000000E+00 0. -1.
<mgrwt>
<rscale>  0 0.74346520E+02</rscale>
<asrwt>0</asrwt>
<pdfrwt beam="2">  1        2 0.10731633E+00 0.18915270E+03</pdfrwt>
<pdfrwt beam="1">  1        1 0.34793987E-01 0.29221920E+02</pdfrwt>
<totfact> 0.70497005E+02</totfact>
</mgrwt>
</event>
<event>
 5    1  0.7156190E-003  0.4036761E+02  0.7546771E-02  0.1551576E+00
          2   -1    0    0  502    0  0.00000000000E+00  0.00000000000E+00  0.14788993905E+03  0.14788993905E+03  0.00000000000E+00 0. -1.
         -1   -1    0    0    0  501 -0.00000000000E+00 -0.00000000000E+00 -0.79352581428E+02  0.79352581428E+02  0.00000000000E+00 0.  1.
         25    1    1    2    0    0 -0.15806173733E+02 -0.67199120710E+01  0.71876889665E+02  0.14521115527E+03  0.12500000000E+03 0.  0.
          2    1    1    2  502    0 -0.11093408363E+02 -0.27627666575E+02  0.16574000228E+02  0.34074171348E+02  0.00000000000E+00 0. -1.
         -1    1    1    2    0  501  0.26899582096E+02  0.34347578646E+02 -0.19913532270E+02  0.47957193864E+02  0.00000000000E+00 0.  1.
<mgrwt>
<rscale>  0 0.34667143E+02</rscale>
<asrwt>0</asrwt>
<pdfrwt beam="1">  1        2 0.22752298E-01 0.29771659E+02</pdfrwt>
<pdfrwt beam="2">  1       -1 0.12208089E-01 0.40367612E+02</pdfrwt>
<totfact> 0.99981674E+03</totfact>
</mgrwt>
</event>
<event>
 5    1  0.7156190E-003  0.8165082E+02  0.7546771E-02  0.1436583E+00
          1   -1    0    0  502    0 -0.00000000000E+00  0.00000000000E+00  0.28237934000E+03  0.28237934000E+03  0.00000000000E+00 0. -1.
          2   -1    0    0  501    0  0.00000000000E+00 -0.00000000000E+00 -0.32359574712E+04  0.32359574712E+04  0.00000000000E+00 0.  1.
         25    1    1    2    0    0  0.14233020702E+02 -0.49044372186E+02 -0.29246215639E+03  0.32212892177E+03  0.12500000000E+03 0.  0.
          2    1    1    2  501    0 -0.32148821909E+02  0.76383396379E+02 -0.29270749351E+04  0.29282478799E+04  0.00000000000E+00 0.  1.
          1    1    1    2  502    0  0.17915801208E+02 -0.27339024194E+02  0.26595896030E+03  0.26796000959E+03  0.00000000000E+00 0. -1.
<mgrwt>
<rscale>  0 0.51661088E+02</rscale>
<asrwt>0</asrwt>
<pdfrwt beam="2">  1        2 0.49783960E+00 0.81650817E+02</pdfrwt>
<pdfrwt beam="1">  1        1 0.43442976E-01 0.32686361E+02</pdfrwt>
<totfact> 0.23499155E+01</totfact>
</mgrwt>
</event>
<event>
 5    1  0.7156190E-003  0.5548646E+02  0.7546771E-02  0.1430040E+00
          2   -1    0    0  502    0  0.00000000000E+00  0.00000000000E+00  0.24668406709E+04  0.24668406709E+04  0.00000000000E+00 0. -1.
         -1   -1    0    0    0  501 -0.00000000000E+00 -0.00000000000E+00 -0.16812602485E+03  0.16812602485E+03  0.00000000000E+00 0.  1.
         25    1    1    2    0    0  0.12788832779E+02  0.25916013013E+02  0.12129125737E+04  0.12196790993E+04  0.12500000000E+03 0.  0.
          2    1    1    2  502    0  0.25366474553E+02 -0.59048608156E+02  0.12458218678E+04  0.12474783856E+04  0.00000000000E+00 0. -1.
         -1    1    1    2    0  501 -0.38155307332E+02  0.33132595143E+02 -0.16001979540E+03  0.16780921089E+03  0.00000000000E+00 0.  1.
<mgrwt>
<rscale>  0 0.52951903E+02</rscale>
<asrwt>0</asrwt>
<pdfrwt beam="1">  1        2 0.37951392E+00 0.55486461E+02</pdfrwt>
<pdfrwt beam="2">  1       -1 0.25865544E-01 0.50533121E+02</pdfrwt>
<totfact> 0.74755261E+01</totfact>
</mgrwt>
</event>
<event>
 5    1  0.7156190E-003  0.1675105E+03  0.7546771E-02  0.1232329E+00
          2   -1    0    0  501    0  0.00000000000E+00  0.00000000000E+00  0.36465945180E+03  0.36465945180E+03  0.00000000000E+00 0. -1.
          2   -1    0    0  502    0 -0.00000000000E+00 -0.00000000000E+00 -0.10876000884E+04  0.10876000884E+04  0.00000000000E+00 0. -1.
         25    1    1    2    0    0 -0.16631832593E+03 -0.19420406132E+03 -0.18455107714E+03  0.33920657872E+03  0.12500000000E+03 0.  0.
          2    1    1    2  501    0  0.10768272589E+03  0.11827096152E+03  0.26198326354E+03  0.30695084324E+03  0.00000000000E+00 0. -1.
          2    1    1    2  502    0  0.58635600036E+02  0.75933099794E+02 -0.80037282302E+03  0.80610211826E+03  0.00000000000E+00 0. -1.
<mgrwt>
<rscale>  0 0.12676949E+03</rscale>
<asrwt>0</asrwt>
<pdfrwt beam="1">  1        2 0.56101455E-01 0.16751046E+03</pdfrwt>
<pdfrwt beam="2">  1        2 0.16732309E+00 0.95937319E+02</pdfrwt>
<totfact> 0.33863349E+02</totfact>
</mgrwt>
</event>
<event>
 5    1  0.7156190E-003  0.4387105E+02  0.7546771E-02  0.1536058E+00
         -3   -1    0    0    0  501 -0.00000000000E+00  0.00000000000E+00  0.18010443228E+03  0.18010443228E+03  0.00000000000E+00 0.  1.
          3   -1    0    0  502    0  0.00000000000E+00 -0.00000000000E+00 -0.37212584010E+03  0.37212584010E+03  0.00000000000E+00 0. -1.
         25    1    1    2    0    0 -0.56025385663E+02  0.32382604416E+02 -0.65398534146E+01  0.14090864626E+03  0.12500000000E+03 0.  0.
          3    1    1    2  502    0  0.13366506633E+02 -0.27181717728E+02 -0.29350493104E+03  0.29506381314E+03  0.00000000000E+00 0. -1.
         -3    1    1    2    0  501  0.42658879030E+02 -0.52008866883E+01  0.10802337663E+03  0.11625781299E+03  0.00000000000E+00 0.  1.
<mgrwt>
<rscale>  0 0.36453702E+02</rscale>
<asrwt>0</asrwt>
<pdfrwt beam="2">  1        3 0.57250129E-01 0.30290416E+02</pdfrwt>
<pdfrwt beam="1">  1       -3 0.27708374E-01 0.43871051E+02</pdfrwt>
<totfact> 0.73876454E+01</totfact>
</mgrwt>
</event>
<event>
 5    1  0.7156190E-003  0.1173341E+03  0.7546771E-02  0.1270745E+00
         -1   -1    0    0    0  501 -0.00000000000E+00  0.00000000000E+00  0.56852720505E+02  0.56852720505E+02  0.00000000000E+00 0.  1.
          1   -1    0    0  502    0  0.00000000000E+00 -0.00000000000E+00 -0.71349079393E+03  0.71349079393E+03  0.00000000000E+00 0. -1.
         25    1    1    2    0    0 -0.68706867799E+02 -0.34517321515E+02 -0.24543000170E+03  0.28595972602E+03  0.12500000000E+03 0.  0.
          1    1    1    2  502    0 -0.26714545054E+02  0.11425245152E+03 -0.28010773444E+03  0.30369002699E+03  0.00000000000E+00 0. -1.
         -1    1    1    2    0  501  0.95421412853E+02 -0.79735130000E+02 -0.13110033728E+03  0.18069376144E+03  0.00000000000E+00 0.  1.
<mgrwt>
<rscale>  0 0.10468307E+03</rscale>
<asrwt>0</asrwt>
<pdfrwt beam="2">  1        1 0.10976782E+00 0.11733409E+03</pdfrwt>
<pdfrwt beam="1">  1       -1 0.87465722E-02 0.93396087E+02</pdfrwt>
<totfact> 0.19893482E+03</totfact>
</mgrwt>
</event>
<event>
 5    1  0.7156190E-003  0.5411008E+02  0.7546771E-02  0.1488807E+00
         -3   -1    0    0    0  501 -0.00000000000E+00  0.00000000000E+00  0.14775267414E+03  0.14775267414E+03  0.00000000000E+00 0.  1.
          1   -1    0    0  502    0  0.00000000000E+00 -0.00000000000E+00 -0.60844204501E+03  0.60844204501E+03  0.00000000000E+00 0. -1.
         25    1    1    2    0    0  0.85191561574E+02  0.13924723078E+01 -0.37404037146E+03  0.40347334562E+03  0.12500000000E+03 0.  0.
          1    1    1    2  502    0 -0.32224925863E+02 -0.10185563447E+02 -0.21288005666E+03  0.21554607413E+03  0.00000000000E+00 0. -1.
         -3    1    1    2    0  501 -0.52966635711E+02  0.87930911387E+01  0.12623105726E+03  0.13717529940E+03  0.00000000000E+00 0.  1.
<mgrwt>
<rscale>  0 0.42763557E+02</rscale>
<asrwt>0</asrwt>
<pdfrwt beam="2">  1        1 0.93606468E-01 0.33796324E+02</pdfrwt>
<pdfrwt beam="1">  1       -3 0.22731181E-01 0.54110079E+02</pdfrwt>
<totfact> 0.32042841E+02</totfact>
</mgrwt>
</event>
<event>
 5    1  0.7156190E-003  0.5056533E+02  0.7546771E-02  0.1448118E+00
          2   -1    0    0  502    0  0.00000000000E+00  0.00000000000E+00  0.18470032354E+04  0.18470032354E+04  0.00000000000E+00 0. -1.
         -2   -1    0    0    0  501 -0.00000000000E+00 -0.00000000000E+00 -0.63641179444E+02  0.63641179444E+02  0.00000000000E+00 0. -1.
         25    1    1    2    0    0 -0.22853456470E+02  0.11425858373E+02  0.20639130422E+03  0.24264212571E+03  0.12500000000E+03 0.  0.
          2    1    1    2  502    0 -0.46582400465E+01 -0.51289050989E+02  0.16090713847E+04  0.16098953342E+04  0.00000000000E+00 0. -1.
         -2    1    1    2    0  501  0.27511696516E+02  0.39863192615E+02 -0.32100633001E+02  0.58106954917E+02  0.00000000000E+00 0. -1.
<mgrwt>
<rscale>  0 0.49488799E+02</rscale>
<asrwt>0</asrwt>
<pdfrwt beam="1">  1        2 0.28415430E+00 0.50565328E+02</pdfrwt>
<pdfrwt beam="2">  1       -2 0.97909521E-02 0.48435189E+02</pdfrwt>
<totfact> 0.64843276E+02</totfact>
</mgrwt>
</event>
<event>
 5    1  0.7156190E-003  0.5569845E+02  0.7546771E-02  0.1517571E+00
         -2   -1    0    0    0  501 -0.00000000000E+00  0.00000000000E+00  0.10964007638E+03  0.10964007638E+03  0.00000000000E+00 0.  1.
          1   -1    0    0  502    0  0.00000000000E+00 -0.00000000000E+00 -0.12367401110E+03  0.12367401110E+03  0.00000000000E+00 0. -1.
         25    1    1    2    0    0 -0.46427531065E+02  0.26235663275E+02 -0.97749637334E+01  0.13625114893E+03  0.12500000000E+03 0.  0.
          1    1    1    2  502    0  0.15141388319E+02  0.22315054224E+02 -0.23923224427E+02  0.36049187956E+02  0.00000000000E+00 0. -1.
         -2    1    1    2    0  501  0.31286142746E+02 -0.48550717500E+02  0.19664253446E+02  0.61013750591E+02  0.00000000000E+00 0.  1.
<mgrwt>
<rscale>  0 0.38755961E+02</rscale>
<asrwt>0</asrwt>
<pdfrwt beam="2">  1        1 0.19026771E-01 0.26967078E+02</pdfrwt>
<pdfrwt beam="1">  1       -2 0.16867704E-01 0.55698452E+02</pdfrwt>
<totfact> 0.56955302E+03</totfact>
</mgrwt>
</event>
<event>
 5    1  0.7156190E-003  0.1990377E+03  0.7546771E-02  0.1267688E+00
         -3   -1    0    0    0  501 -0.00000000000E+00  0.00000000000E+00  0.49742547633E+02  0.49742547633E+02  0.00000000000E+00 0.  1.
          2   -1    0    0  502    0  0.00000000000E+00 -0.00000000000E+00 -0.15722874240E+04  0.15722874240E+04  0.00000000000E+00 0.  1.
         25    1    1    2    0    0  0.18080290736E+03  0.36906182838E+02 -0.49098246538E+03  0.53920361548E+03  0.12500000000E+03 0.  0.
          2    1    1    2  502    0 -0.20714095399E+03  0.13318680791E+02 -0.99247703818E+03  0.10139504097E+04  0.00000000000E+00 0.  1.
         -3    1    1    2    0  501  0.26338046631E+02 -0.50224863629E+02 -0.39085372798E+02  0.68875946409E+02  0.00000000000E+00 0.  1.
<mgrwt>
<rscale>  0 0.10624400E+03</rscale>
<asrwt>0</asrwt>
<pdfrwt beam="2">  1        2 0.24189037E+00 0.19903769E+03</pdfrwt>
<pdfrwt beam="1">  1       -3 0.76526999E-02 0.56711812E+02</pdfrwt>
<totfact> 0.77413782E+02</totfact>
</mgrwt>
</event>
<event>
 5    1  0.7156190E-003  0.1193883E+03  0.7546771E-02  0.1395284E+00
          1   -1    0    0  502    0  0.00000000000E+00  0.00000000000E+00  0.21598915383E+04  0.21598915383E+04  0.00000000000E+00 0. -1.
         -1   -1    0    0    0  501 -0.00000000000E+00 -0.00000000000E+00 -0.15261220234E+02  0.15261220234E+02  0.00000000000E+00 0.  1.
         25    1    1    2    0    0  0.98604010573E+02  0.97047272657E+02  0.85901075112E+03  0.87901387621E+03  0.12500000000E+03 0.  0.
          1    1    1    2  502    0 -0.68253207542E+02 -0.91976990974E+02  0.11941908074E+04  0.11996707681E+04  0.00000000000E+00 0. -1.
         -1    1    1    2    0  501 -0.30350803031E+02 -0.50702816831E+01  0.91428759509E+02  0.96468114246E+02  0.00000000000E+00 0.  1.
<mgrwt>
<rscale>  0 0.60611425E+02</rscale>
<asrwt>0</asrwt>
<pdfrwt beam="1">  1        1 0.33229076E+00 0.11938830E+03</pdfrwt>
<pdfrwt beam="2">  1       -1 0.23478817E-02 0.30771399E+02</pdfrwt>
<totfact> 0.11992720E+03</totfact>
</mgrwt>
</event>
<event>
 5    1  0.7156190E-003  0.3819815E+02  0.7546771E-02  0.1554872E+00
         -1   -1    0    0    0  501 -0.00000000000E+00  0.00000000000E+00  0.39987516598E+01  0.39987516598E+01  0.00000000000E+00 0.  1.
          2   -1    0    0  502    0  0.00000000000E+00 -0.00000000000E+00 -0.31814078475E+04  0.31814078475E+04  0.00000000000E+00 0. -1.
         25    1    1    2    0    0 -0.10639453443E+02 -0.64923274459E+02 -0.18131260191E+04  0.18186201337E+04  0.12500000000E+03 0.  0.
          2    1    1    2  502    0  0.19508150278E+01  0.35367539117E+02 -0.11211604990E+04  0.11217198995E+04  0.00000000000E+00 0. -1.
         -1    1    1    2    0  501  0.86886384157E+01  0.29555735342E+02 -0.24312257777E+03  0.24506656596E+03  0.00000000000E+00 0.  1.
<mgrwt>
<rscale>  0 0.34303750E+02</rscale>
<asrwt>0</asrwt>
<pdfrwt beam="2">  1        2 0.48945017E+00 0.38198149E+02</pdfrwt>
<pdfrwt beam="1">  1       -1 0.61518904E-03 0.30806394E+02</pdfrwt>
<totfact> 0.65743877E+03</totfact>
</mgrwt>
</event>
<event>
 5    1  0.7156190E-003  0.3320828E+02  0.7546771E-02  0.1576481E+00
         -1   -1    0    0    0  501 -0.00000000000E+00  0.00000000000E+00  0.98075349822E+03  0.98075349822E+03  0.00000000000E+00 0.  1.
          1   -1    0    0  502    0  0.00000000000E+00 -0.00000000000E+00 -0.11255350265E+04  0.11255350265E+04  0.00000000000E+00 0. -1.
         25    1    1    2    0    0  0.17207977088E+02  0.32890032542E+02 -0.69306437422E+01  0.13057910453E+03  0.12500000000E+03 0.  0.
          1    1    1    2  502    0  0.15478640116E+02 -0.26779410661E+02 -0.10562528567E+04  0.10567056460E+04  0.00000000000E+00 0. -1.
         -1    1    1    2    0  501 -0.32686617204E+02 -0.61106218817E+01  0.91840197209E+03  0.91900377420E+03  0.00000000000E+00 0.  1.
<mgrwt>
<rscale>  0 0.32049405E+02</rscale>
<asrwt>0</asrwt>
<pdfrwt beam="2">  1        1 0.17315923E+00 0.30930974E+02</pdfrwt>
<pdfrwt beam="1">  1       -1 0.15088515E+00 0.33208278E+02</pdfrwt>
<totfact> 0.66236162E+00</totfact>
</mgrwt>
</event>
<event>
 5    1  0.7156190E-003  0.9295637E+02  0.7546771E-02  0.1333719E+00
          2   -1    0    0  501    0  0.00000000000E+00  0.00000000000E+00  0.49187088824E+03  0.49187088824E+03  0.00000000000E+00 0. -1.
          2   -1    0    0  502    0 -0.00000000000E+00 -0.00000000000E+00 -0.69331151690E+03  0.69331151690E+03  0.00000000000E+00 0. -1.
         25    1    1    2    0    0 -0.13758344660E+03 -0.39978495654E+02  0.54668198056E+02  0.19784108969E+03  0.12500000000E+03 0.  0.
          2    1    1    2  501    0  0.64278428019E+02 -0.15349447343E+02  0.35919365102E+03  0.36522239906E+03  0.00000000000E+00 0. -1.
          2    1    1    2  502    0  0.73305018580E+02  0.55327942997E+02 -0.61530247773E+03  0.62211891639E+03  0.00000000000E+00 0. -1.
<mgrwt>
<rscale>  0 0.78377857E+02</rscale>
<asrwt>0</asrwt>
<pdfrwt beam="1">  1        2 0.75672445E-01 0.66085716E+02</pdfrwt>
<pdfrwt beam="2">  1        2 0.10666331E+00 0.92956373E+02</pdfrwt>
<totfact> 0.44041764E+02</totfact>
</mgrwt>
</event>
<event>
 5    1  0.7156190E-003  0.3630607E+02  0.7546771E-02  0.1557085E+00
          2   -1    0    0  502    0  0.00000000000E+00  0.00000000000E+00  0.41700813269E+02  0.41700813269E+02  0.00000000000E+00 0. -1.
         -1   -1    0    0    0  501 -0.00000000000E+00 -0.00000000000E+00 -0.26974722580E+03  0.26974722580E+03  0.00000000000E+00 0.  1.
         25    1    1    2    0    0 -0.75314390577E+01 -0.98344399844E+01 -0.11381411146E+03  0.16950542986E+03  0.12500000000E+03 0.  0.
          2    1    1    2  502    0  0.33600531123E+02  0.28320009814E+02 -0.33940628290E+02  0.55524633239E+02  0.00000000000E+00 0. -1.
         -1    1    1    2    0  501 -0.26069092065E+02 -0.18485569829E+02 -0.80291672783E+02  0.86417975973E+02  0.00000000000E+00 0.  1.
<mgrwt>
<rscale>  0 0.34062730E+02</rscale>
<asrwt>0</asrwt>
<pdfrwt beam="1">  1        2 0.64155100E-02 0.36306074E+02</pdfrwt>
<pdfrwt beam="2">  1       -1 0.41499571E-01 0.31958001E+02</pdfrwt>
<totfact> 0.62364591E+03</totfact>
</mgrwt>
</event>
<event>
 5    1  0.7156190E-003  0.3612054E+02  0.7546771E-02  0.1564458E+00
         -1   -1    0    0    0  501 -0.00000000000E+00  0.00000000000E+00  0.14511511239E+02  0.14511511239E+02  0.00000000000E+00 0.  1.
          2   -1    0    0  502    0  0.00000000000E+00 -0.00000000000E+00 -0.70041904118E+03  0.70041904118E+03  0.00000000000E+00 0. -1.
         25    1    1    2    0    0 -0.19064758957E+02 -0.16417618158E+02 -0.40768938585E+03  0.42716347989E+03  0.12500000000E+03 0.  0.
          2    1    1    2  502    0 -0.12640730249E+02  0.33836448154E+02 -0.16510902474E+03  0.16901385545E+03  0.00000000000E+00 0. -1.
         -1    1    1    2    0  501  0.31705489205E+02 -0.17418829996E+02 -0.11310911935E+03  0.11875321707E+03  0.00000000000E+00 0.  1.
<mgrwt>
<rscale>  0 0.33276774E+02</rscale>
<asrwt>0</asrwt>
<pdfrwt beam="2">  1        2 0.10775678E+00 0.36120538E+02</pdfrwt>
<pdfrwt beam="1">  1       -1 0.22325402E-02 0.30656898E+02</pdfrwt>
<totfact> 0.22081361E+04</totfact>
</mgrwt>
</event>
<event>
 5    1  0.7156190E-003  0.9777517E+02  0.7546771E-02  0.1445823E+00
          2   -1    0    0  501    0  0.00000000000E+00  0.00000000000E+00  0.74245266879E+03  0.74245266879E+03  0.00000000000E+00 0. -1.
          1   -1    0    0  502    0 -0.00000000000E+00 -0.00000000000E+00 -0.10524153820E+03  0.10524153820E+03  0.00000000000E+00 0. -1.
         25    1    1    2    0    0  0.71492725727E+02 -0.46201843505E+02  0.40385747566E+02  0.15653060014E+03  0.12500000000E+03 0.  0.
          2    1    1    2  501    0 -0.68155202337E+02  0.71460009816E+02  0.63644428294E+03  0.64405977198E+03  0.00000000000E+00 0. -1.
          1    1    1    2  502    0 -0.33375233904E+01 -0.25258166311E+02 -0.39618899911E+02  0.47103834854E+02  0.00000000000E+00 0. -1.
<mgrwt>
<rscale>  0 0.49910802E+02</rscale>
<asrwt>0</asrwt>
<pdfrwt beam="1">  1        2 0.11422348E+00 0.97775174E+02</pdfrwt>
<pdfrwt beam="2">  1        1 0.16191006E-01 0.25477716E+02</pdfrwt>
<totfact> 0.16478745E+03</totfact>
</mgrwt>
</event>
<event>
 5    1  0.7156190E-003  0.2668264E+03  0.7546771E-02  0.1190409E+00
          1   -1    0    0  501    0  0.00000000000E+00  0.00000000000E+00  0.52840957337E+03  0.52840957337E+03  0.00000000000E+00 0. -1.
          3   -1    0    0  502    0 -0.00000000000E+00 -0.00000000000E+00 -0.47287019678E+03  0.47287019678E+03  0.00000000000E+00 0. -1.
         25    1    1    2    0    0 -0.31635175090E+03  0.98094937248E+01  0.19315286072E+03  0.39128976995E+03  0.12500000000E+03 0.  0.
          1    1    1    2  501    0  0.23485156275E+03  0.37314668646E+02  0.16737927295E+03  0.29079797460E+03  0.00000000000E+00 0. -1.
          3    1    1    2  502    0  0.81500188146E+02 -0.47124162371E+02 -0.30499275707E+03  0.31919202561E+03  0.00000000000E+00 0. -1.
<mgrwt>
<rscale>  0 0.15849268E+03</rscale>
<asrwt>0</asrwt>
<pdfrwt beam="1">  1        1 0.81293781E-01 0.26682644E+03</pdfrwt>
<pdfrwt beam="2">  1        3 0.72749261E-01 0.94143334E+02</pdfrwt>
<totfact> 0.40873886E+01</totfact>
</mgrwt>
</event>
<event>
 5    1  0.7156190E-003  0.8593914E+02  0.7546771E-02  0.1490262E+00
         -2   -1    0    0    0  501  0.00000000000E+00  0.00000000000E+00  0.35210633280E+03  0.35210633280E+03  0.00000000000E+00 0.  1.
         -3   -1    0    0    0  502 -0.00000000000E+00 -0.00000000000E+00 -0.28545206945E+04  0.28545206945E+04  0.00000000000E+00 0.  1.
         25    1    1    2    0    0  0.35758623246E+02  0.96371964011E+02  0.14592073541E+03  0.21790845694E+03  0.12500000000E+03 0.  0.
         -2    1    1    2    0  501  0.45896601034E+01 -0.20558373780E+02  0.16888307243E+03  0.17019166802E+03  0.00000000000E+00 0.  1.
         -3    1    1    2    0  502 -0.40348283349E+02 -0.75813590232E+02 -0.28172181696E+04  0.28185269024E+04  0.00000000000E+00 0.  1.
<mgrwt>
<rscale>  0 0.42547174E+02</rscale>
<asrwt>0</asrwt>
<pdfrwt beam="1">  1       -2 0.54170207E-01 0.21064466E+02</pdfrwt>
<pdfrwt beam="2">  1       -3 0.43915702E+00 0.85939138E+02</pdfrwt>
<totfact> 0.12004352E-01</totfact>
</mgrwt>
</event>
<event>
 5    1  0.7156190E-003  0.9448766E+02  0.7546771E-02  0.1340954E+00
          2   -1    0    0  502    0  0.00000000000E+00  0.00000000000E+00  0.19491449738E+04  0.19491449738E+04  0.00000000000E+00 0.  1.
         -1   -1    0    0    0  501 -0.00000000000E+00 -0.00000000000E+00 -0.92254461448E+03  0.92254461448E+03  0.00000000000E+00 0.  1.
         25    1    1    2    0    0  0.46393231942E+02  0.14726112932E+03  0.15002091346E+04  0.15133045363E+04  0.12500000000E+03 0.  0.
          2    1    1    2  502    0 -0.97745174968E+01 -0.60261773175E+02  0.43783291242E+03  0.44206863912E+03  0.00000000000E+00 0.  1.
         -1    1    1    2    0  501 -0.36618714446E+02 -0.86999356143E+02 -0.91144168773E+03  0.91631641279E+03  0.00000000000E+00 0.  1.
<mgrwt>
<rscale>  0 0.75950048E+02</rscale>
<asrwt>0</asrwt>
<pdfrwt beam="1">  1        2 0.29986846E+00 0.61049345E+02</pdfrwt>
<pdfrwt beam="2">  1       -1 0.14192994E+00 0.94487662E+02</pdfrwt>
<totfact> 0.49818886E+00</totfact>
</mgrwt>
</event>
<event>
 5    1  0.7156190E-003  0.9212847E+02  0.7546771E-02  0.1318911E+00
          1   -1    0    0  502    0  0.00000000000E+00  0.00000000000E+00  0.76214498588E+03  0.76214498588E+03  0.00000000000E+00 0. -1.
          1   -1    0    0  501    0 -0.00000000000E+00 -0.00000000000E+00 -0.67298164718E+02  0.67298164718E+02  0.00000000000E+00 0. -1.
         25    1    1    2    0    0  0.94104119424E+02  0.80082342071E+02  0.24188463469E+03  0.29900157743E+03  0.12500000000E+03 0.  0.
          1    1    1    2  501    0 -0.36438880962E+01 -0.75925684251E+02  0.80853568342E+01  0.76441876250E+02  0.00000000000E+00 0. -1.
          1    1    1    2  502    0 -0.90460231328E+02 -0.41566578200E+01  0.44487682964E+03  0.45399969692E+03  0.00000000000E+00 0. -1.
<mgrwt>
<rscale>  0 0.83683741E+02</rscale>
<asrwt>0</asrwt>
<pdfrwt beam="1">  1        1 0.11725307E+00 0.92128474E+02</pdfrwt>
<pdfrwt beam="2">  1        1 0.10353564E-01 0.76013074E+02</pdfrwt>
<totfact> 0.17689857E+03</totfact>
</mgrwt>
</event>
<event>
 5    1  0.7156190E-003  0.2387859E+03  0.7546771E-02  0.1317812E+00
         -2   -1    0    0    0  501 -0.00000000000E+00  0.00000000000E+00  0.71892972693E+02  0.71892972693E+02  0.00000000000E+00 0.  1.
          2   -1    0    0  502    0  0.00000000000E+00 -0.00000000000E+00 -0.26077372051E+04  0.26077372051E+04  0.00000000000E+00 0. -1.
         25    1    1    2    0    0  0.15283977581E+03  0.18114164924E+03 -0.44632855208E+03  0.52058281816E+03  0.12500000000E+03 0.  0.
          2    1    1    2  502    0 -0.13055949254E+03 -0.20065523311E+03 -0.21096790679E+04  0.21232178582E+04  0.00000000000E+00 0. -1.
         -2    1    1    2    0  501 -0.22280283270E+02  0.19513583867E+02  0.20163387571E+02  0.35829501479E+02  0.00000000000E+00 0.  1.
<mgrwt>
<rscale>  0 0.84096491E+02</rscale>
<asrwt>0</asrwt>
<pdfrwt beam="2">  1        2 0.40119030E+00 0.23878590E+03</pdfrwt>
<pdfrwt beam="1">  1       -2 0.11060458E-01 0.29617410E+02</pdfrwt>
<totfact> 0.17374901E+02</totfact>
</mgrwt>
</event>
<event>
 5    1  0.7156190E-003  0.1329762E+03  0.7546771E-02  0.1385597E+00
          1   -1    0    0  502    0  0.00000000000E+00  0.00000000000E+00  0.18817804406E+04  0.18817804406E+04  0.00000000000E+00 0. -1.
         -1   -1    0    0    0  501 -0.00000000000E+00 -0.00000000000E+00 -0.43145636802E+02  0.43145636802E+02  0.00000000000E+00 0.  1.
         25    1    1    2    0    0 -0.10240130221E+03 -0.11408956133E+03  0.39510717443E+03  0.44185646311E+03  0.12500000000E+03 0.  0.
          1    1    1    2  502    0  0.21379634536E+02  0.20847924012E+02  0.12684519813E+04  0.12688034338E+04  0.00000000000E+00 0. -1.
         -1    1    1    2    0  501  0.81021667678E+02  0.93241637317E+02  0.17507564800E+03  0.21426618045E+03  0.00000000000E+00 0.  1.
<mgrwt>
<rscale>  0 0.63015103E+02</rscale>
<asrwt>0</asrwt>
<pdfrwt beam="1">  1        1 0.28950462E+00 0.29861760E+02</pdfrwt>
<pdfrwt beam="2">  1       -1 0.66377917E-02 0.13297619E+03</pdfrwt>
<totfact> 0.57130580E+02</totfact>
</mgrwt>
</event>
<event>
 5    1  0.7156190E-003  0.5940809E+02  0.7546771E-02  0.1457964E+00
          2   -1    0    0  501    0  0.00000000000E+00  0.00000000000E+00  0.36682048997E+03  0.36682048997E+03  0.00000000000E+00 0. -1.
          2   -1    0    0  502    0 -0.00000000000E+00 -0.00000000000E+00 -0.30938929408E+03  0.30938929408E+03  0.00000000000E+00 0. -1.
         25    1    1    2    0    0  0.34065322279E+02 -0.23756224279E+02 -0.59496201194E+02  0.14453235738E+03  0.12500000000E+03 0.  0.
          2    1    1    2  501    0 -0.14726255480E+02 -0.35413395020E+02  0.31845418931E+03  0.32075542370E+03  0.00000000000E+00 0. -1.
          2    1    1    2  502    0 -0.19339066798E+02  0.59169619299E+02 -0.20152679222E+03  0.21092200296E+03  0.00000000000E+00 0. -1.
<mgrwt>
<rscale>  0 0.47733560E+02</rscale>
<asrwt>0</asrwt>
<pdfrwt beam="1">  1        2 0.56433922E-01 0.38353242E+02</pdfrwt>
<pdfrwt beam="2">  1        2 0.47598353E-01 0.59408088E+02</pdfrwt>
<totfact> 0.14256808E+03</totfact>
</mgrwt>
</event>
<event>
 5    1  0.7156190E-003  0.3506488E+03  0.7546771E-02  0.1217663E+00
          2   -1    0    0  501    0  0.00000000000E+00  0.00000000000E+00  0.16043539263E+04  0.16043539263E+04  0.00000000000E+00 0. -1.
          2   -1    0    0  502    0 -0.00000000000E+00 -0.00000000000E+00 -0.31271223371E+04  0.31271223371E+04  0.00000000000E+00 0.  1.
         25    1    1    2    0    0 -0.30791312153E+03 -0.16976695300E+03  0.29185273640E+02  0.37431015073E+03  0.12500000000E+03 0.  0.
          2    1    1    2  501    0  0.32949348689E+03  0.12093109558E+03  0.13804020046E+04  0.14243243950E+04  0.00000000000E+00 0. -1.
          2    1    1    2  502    0 -0.21580365361E+02  0.48835857423E+02 -0.29323556891E+04  0.29328417176E+04  0.00000000000E+00 0.  1.
<mgrwt>
<rscale>  0 0.13682715E+03</rscale>
<asrwt>0</asrwt>
<pdfrwt beam="1">  1        2 0.24682368E+00 0.35064880E+03</pdfrwt>
<pdfrwt beam="2">  1        2 0.48109574E+00 0.53391508E+02</pdfrwt>
<totfact> 0.42257376E+00</totfact>
</mgrwt>
</event>
<event>
 5    1  0.7156190E-003  0.5096297E+02  0.7546771E-02  0.1527777E+00
         -1   -1    0    0    0  501 -0.00000000000E+00  0.00000000000E+00  0.19553221611E+02  0.19553221611E+02  0.00000000000E+00 0.  1.
          2   -1    0    0  502    0  0.00000000000E+00 -0.00000000000E+00 -0.86584268494E+03  0.86584268494E+03  0.00000000000E+00 0. -1.
         25    1    1    2    0    0  0.18452561205E+02 -0.54574634510E+02 -0.29386604076E+03  0.32450136773E+03  0.12500000000E+03 0.  0.
          2    1    1    2  502    0 -0.26970314252E+02  0.55502851927E+01 -0.39118275530E+03  0.39215067457E+03  0.00000000000E+00 0. -1.
         -1    1    1    2    0  501  0.85177530463E+01  0.49024349318E+02 -0.16124066726E+03  0.16874386425E+03  0.00000000000E+00 0.  1.
<mgrwt>
<rscale>  0 0.37460522E+02</rscale>
<asrwt>0</asrwt>
<pdfrwt beam="2">  1        2 0.13320655E+00 0.27535496E+02</pdfrwt>
<pdfrwt beam="1">  1       -1 0.30081883E-02 0.50962974E+02</pdfrwt>
<totfact> 0.12466283E+04</totfact>
</mgrwt>
</event>
<event>
 5    1  0.7156190E-003  0.6740407E+02  0.7546771E-02  0.1468281E+00
         -1   -1    0    0    0  501 -0.00000000000E+00  0.00000000000E+00  0.10723383096E+02  0.10723383096E+02  0.00000000000E+00 0.  1.
          2   -1    0    0  502    0  0.00000000000E+00 -0.00000000000E+00 -0.19748891681E+04  0.19748891681E+04  0.00000000000E+00 0. -1.
         25    1    1    2    0    0  0.21772635904E+02  0.83404030857E+02 -0.14820079754E+04  0.14897660619E+04  0.12500000000E+03 0.  0.
          2    1    1    2  502    0  0.13700086470E+02 -0.28223707794E+02 -0.31050838064E+03  0.31208928931E+03  0.00000000000E+00 0. -1.
         -1    1    1    2    0  501 -0.35472722374E+02 -0.55180323063E+02 -0.17164942898E+03  0.18375720001E+03  0.00000000000E+00 0.  1.
<mgrwt>
<rscale>  0 0.45985574E+02</rscale>
<asrwt>0</asrwt>
<pdfrwt beam="2">  1        2 0.30382924E+00 0.31373078E+02</pdfrwt>
<pdfrwt beam="1">  1       -1 0.16497505E-02 0.67404065E+02</pdfrwt>
<totfact> 0.83596479E+03</totfact>
</mgrwt>
</event>
<event>
 5    1  0.7156190E-003  0.1569723E+03  0.7546771E-02  0.1311139E+00
         -3   -1    0    0    0  501 -0.00000000000E+00  0.00000000000E+00  0.26001491251E+02  0.26001491251E+02  0.00000000000E+00 0.  1.
          1   -1    0    0  502    0  0.00000000000E+00 -0.00000000000E+00 -0.23386709826E+04  0.23386709826E+04  0.00000000000E+00 0. -1.
         25    1    1    2    0    0 -0.87562053845E+02 -0.12945663349E+03 -0.10925900280E+04  0.11107673486E+04  0.12500000000E+03 0.  0.
          1    1    1    2  502    0  0.12512447184E+03  0.99819725465E+02 -0.11819094875E+04  0.11926986827E+04  0.00000000000E+00 0. -1.
         -3    1    1    2    0  501 -0.37562417994E+02  0.29636908024E+02 -0.38169975775E+02  0.61206442581E+02  0.00000000000E+00 0.  1.
<mgrwt>
<rscale>  0 0.86663515E+02</rscale>
<asrwt>0</asrwt>
<pdfrwt beam="2">  1        1 0.35979558E+00 0.15697229E+03</pdfrwt>
<pdfrwt beam="1">  1       -3 0.40002289E-02 0.47846437E+02</pdfrwt>
<totfact> 0.30768849E+02</totfact>
</mgrwt>
</event>
<event>
 5    1  0.7156190E-003  0.1185003E+03  0.7546771E-02  0.1360172E+00
          2   -1    0    0  501    0  0.00000000000E+00  0.00000000000E+00  0.27932555967E+04  0.27932555967E+04  0.00000000000E+00 0. -1.
          2   -1    0    0  502    0 -0.00000000000E+00 -0.00000000000E+00 -0.59103861002E+02  0.59103861002E+02  0.00000000000E+00 0. -1.
         25    1    1    2    0    0  0.29449099680E+02 -0.11064550393E+03  0.12658547979E+04  0.12771542767E+04  0.12500000000E+03 0.  0.
          2    1    1    2  501    0 -0.40560572412E+02 -0.78991097104E+01  0.14547905832E+04  0.14553773384E+04  0.00000000000E+00 0. -1.
          2    1    1    2  502    0  0.11111472733E+02  0.11854461364E+03  0.13506354477E+02  0.11982784259E+03  0.00000000000E+00 0. -1.
<mgrwt>
<rscale>  0 0.69976700E+02</rscale>
<asrwt>0</asrwt>
<pdfrwt beam="1">  1        2 0.42973153E+00 0.41322584E+02</pdfrwt>
<pdfrwt beam="2">  1        2 0.90929038E-02 0.11850030E+03</pdfrwt>
<totfact> 0.38786538E+02</totfact>
</mgrwt>
</event>
<event>
 5    1  0.7156190E-003  0.8810550E+02  0.7546771E-02  0.1384536E+00
          1   -1    0    0  502    0  0.00000000000E+00  0.00000000000E+00  0.64482180617E+03  0.64482180617E+03  0.00000000000E+00 0. -1.
          1   -1    0    0  501    0 -0.00000000000E+00 -0.00000000000E+00 -0.10970619748E+04  0.10970619748E+04  0.00000000000E+00 0. -1.
         25    1    1    2    0    0  0.74093868701E+02  0.10325270469E+03  0.15367121764E+03  0.23535264081E+03  0.12500000000E+03 0.  0.
          1    1    1    2  501    0 -0.15022415993E+02 -0.42904708097E+02 -0.10517668604E+04  0.10527487903E+04  0.00000000000E+00 0. -1.
          1    1    1    2  502    0 -0.59071452708E+02 -0.60347996588E+02  0.44585547412E+03  0.45378234983E+03  0.00000000000E+00 0. -1.
<mgrwt>
<rscale>  0 0.63286297E+02</rscale>
<asrwt>0</asrwt>
<pdfrwt beam="1">  1        1 0.99203356E-01 0.88105504E+02</pdfrwt>
<pdfrwt beam="2">  1        1 0.16877876E+00 0.45458629E+02</pdfrwt>
<totfact> 0.61488930E+01</totfact>
</mgrwt>
</event>
<event>
 5    1  0.7156190E-003  0.8022507E+02  0.7546771E-02  0.1425827E+00
         -1   -1    0    0    0  501 -0.00000000000E+00  0.00000000000E+00  0.49257550403E+02  0.49257550403E+02  0.00000000000E+00 0.  1.
          1   -1    0    0  502    0  0.00000000000E+00 -0.00000000000E+00 -0.22803495325E+04  0.22803495325E+04  0.00000000000E+00 0. -1.
         25    1    1    2    0    0 -0.83810122127E+02 -0.17299656942E+02 -0.14232882772E+03  0.20786031343E+03  0.12500000000E+03 0.  0.
          1    1    1    2  502    0  0.64506881942E+02  0.47791277622E+02 -0.20837687258E+04  0.20853146637E+04  0.00000000000E+00 0. -1.
         -1    1    1    2    0  501  0.19303240185E+02 -0.30491620680E+02 -0.49944285740E+01  0.36432105760E+02  0.00000000000E+00 0.  1.
<mgrwt>
<rscale>  0 0.53806819E+02</rscale>
<asrwt>0</asrwt>
<pdfrwt beam="2">  1        1 0.35082299E+00 0.80225070E+02</pdfrwt>
<pdfrwt beam="1">  1       -1 0.75780849E-02 0.36088142E+02</pdfrwt>
<totfact> 0.20774733E+02</totfact>
</mgrwt>
</event>
<event>
 5    1  0.7156190E-003  0.9315896E+02  0.7546771E-02  0.1381144E+00
         -2   -1    0    0    0  501 -0.00000000000E+00  0.00000000000E+00  0.27520478562E+03  0.27520478562E+03  0.00000000000E+00 0.  1.
          2   -1    0    0  502    0  0.00000000000E+00 -0.00000000000E+00 -0.12662852653E+04  0.12662852653E+04  0.00000000000E+00 0. -1.
         25    1    1    2    0    0 -0.55370234373E+02 -0.49750372308E+02 -0.27227025793E+02  0.14801105814E+03  0.12500000000E+03 0.  0.
          2    1    1    2  502    0  0.33153680954E+02  0.87953773840E+02 -0.11744955838E+04  0.11782507836E+04  0.00000000000E+00 0. -1.
         -2    1    1    2    0  501  0.22216553419E+02 -0.38203401531E+02  0.21064212987E+03  0.21522820914E+03  0.00000000000E+00 0.  1.
<mgrwt>
<rscale>  0 0.64164094E+02</rscale>
<asrwt>0</asrwt>
<pdfrwt beam="2">  1        2 0.19481312E+00 0.93158965E+02</pdfrwt>
<pdfrwt beam="1">  1       -2 0.42339198E-01 0.44193610E+02</pdfrwt>
<totfact> 0.10476042E+02</totfact>
</mgrwt>
</event>
<event>
 5    1  0.7156190E-003  0.1073978E+03  0.7546771E-02  0.1277696E+00
         -2   -1    0    0    0  501 -0.00000000000E+00  0.00000000000E+00  0.14183725346E+03  0.14183725346E+03  0.00000000000E+00 0.  1.
          2   -1    0    0  502    0  0.00000000000E+00 -0.00000000000E+00 -0.20229794678E+04  0.20229794678E+04  0.00000000000E+00 0. -1.
         25    1    1    2    0    0 -0.11942637971E+03  0.96125523561E+02 -0.76771314932E+03  0.79278701811E+03  0.12500000000E+03 0.  0.
          2    1    1    2  502    0  0.95107598280E+02  0.80536835517E+01 -0.12184106870E+04  0.12221435755E+04  0.00000000000E+00 0. -1.
         -2    1    1    2    0  501  0.24318781426E+02 -0.10417920711E+03  0.10498162192E+03  0.14988612766E+03  0.00000000000E+00 0.  1.
<mgrwt>
<rscale>  0 0.10124675E+03</rscale>
<asrwt>0</asrwt>
<pdfrwt beam="2">  1        2 0.31122762E+00 0.95447981E+02</pdfrwt>
<pdfrwt beam="1">  1       -2 0.21821115E-01 0.10739781E+03</pdfrwt>
<totfact> 0.14292498E+02</totfact>
</mgrwt>
</event>
<event>
 5    1  0.7156190E-003  0.9615645E+02  0.7546771E-02  0.1401872E+00
         -1   -1    0    0    0  501 -0.00000000000E+00  0.00000000000E+00  0.18275485110E+03  0.18275485110E+03  0.00000000000E+00 0.  1.
          2   -1    0    0  502    0  0.00000000000E+00 -0.00000000000E+00 -0.14755843970E+03  0.14755843970E+03  0.00000000000E+00 0. -1.
         25    1    1    2    0    0 -0.87089559141E+02  0.64599769236E+02  0.85831176091E+02  0.18641274711E+03  0.12500000000E+03 0.  0.
          2    1    1    2  502    0  0.53430074237E+02 -0.78083755620E+02 -0.51315602957E+02  0.10763427350E+03  0.00000000000E+00 0. -1.
         -1    1    1    2    0  501  0.33659484903E+02  0.13483986383E+02  0.68083827496E+00  0.36266270190E+02  0.00000000000E+00 0.  1.
<mgrwt>
<rscale>  0 0.59047619E+02</rscale>
<asrwt>0</asrwt>
<pdfrwt beam="2">  1        2 0.22701298E-01 0.96156452E+02</pdfrwt>
<pdfrwt beam="1">  1       -1 0.28116131E-01 0.36259879E+02</pdfrwt>
<totfact> 0.28910352E+03</totfact>
</mgrwt>
</event>
<event>
 5    1  0.7156190E-003  0.1395548E+03  0.7546771E-02  0.1407475E+00
         -2   -1    0    0    0  501 -0.00000000000E+00  0.00000000000E+00  0.13847898408E+03  0.13847898408E+03  0.00000000000E+00 0.  1.
          2   -1    0    0  502    0  0.00000000000E+00 -0.00000000000E+00 -0.64083407524E+03  0.64083407524E+03  0.00000000000E+00 0. -1.
         25    1    1    2    0    0 -0.15598653311E+03  0.19351353495E+02 -0.18063302114E+03  0.27011027696E+03  0.12500000000E+03 0.  0.
          2    1    1    2  502    0  0.20394401603E+02 -0.12474546171E+02 -0.36570816586E+03  0.36648875630E+03  0.00000000000E+00 0. -1.
         -2    1    1    2    0  501  0.13559213151E+03 -0.68768073242E+01  0.43986095839E+02  0.14271402606E+03  0.00000000000E+00 0.  1.
<mgrwt>
<rscale>  0 0.57761054E+02</rscale>
<asrwt>0</asrwt>
<pdfrwt beam="2">  1        2 0.98589859E-01 0.23907027E+02</pdfrwt>
<pdfrwt beam="1">  1       -2 0.21304459E-01 0.13955476E+03</pdfrwt>
<totfact> 0.92006650E+02</totfact>
</mgrwt>
</event>
<event>
 5    1  0.7156190E-003  0.7384560E+02  0.7546771E-02  0.1350145E+00
          1   -1    0    0  502    0 -0.00000000000E+00  0.00000000000E+00  0.15731116867E+03  0.15731116867E+03  0.00000000000E+00 0. -1.
          2   -1    0    0  501    0  0.00000000000E+00 -0.00000000000E+00 -0.12335891490E+04  0.12335891490E+04  0.00000000000E+00 0. -1.
         25    1    1    2    0    0  0.80651656442E+02 -0.22525976063E+02 -0.27556794604E+03  0.31396624368E+03  0.12500000000E+03 0.  0.
          2    1    1    2  501    0 -0.22022401345E+02  0.68743128299E+02 -0.92722719283E+03  0.93003272576E+03  0.00000000000E+00 0. -1.
          1    1    1    2  502    0 -0.58629255097E+02 -0.46217152236E+02  0.12651715853E+03  0.14690134824E+03  0.00000000000E+00 0. -1.
<mgrwt>
<rscale>  0 0.73010334E+02</rscale>
<asrwt>0</asrwt>
<pdfrwt beam="2">  1        2 0.18978294E+00 0.72184513E+02</pdfrwt>
<pdfrwt beam="1">  1        1 0.24201719E-01 0.73845604E+02</pdfrwt>
<totfact> 0.54808081E+02</totfact>
</mgrwt>
</event>
<event>
 5    1  0.7156190E-003  0.5211433E+02  0.7546771E-02  0.1491737E+00
          1   -1    0    0  502    0  0.00000000000E+00  0.00000000000E+00  0.12575446716E+04  0.12575446716E+04  0.00000000000E+00 0. -1.
         -3   -1    0    0    0  501 -0.00000000000E+00 -0.00000000000E+00 -0.22687036917E+02  0.22687036917E+02  0.00000000000E+00 0.  1.
         25    1    1    2    0    0 -0.33262840095E+02 -0.12463361396E+02  0.49508051650E+03  0.51185102299E+03  0.12500000000E+03 0.  0.
          1    1    1    2  502    0  0.46270487908E+01 -0.34069045550E+02  0.69988674992E+03  0.70073074156E+03  0.00000000000E+00 0. -1.
         -3    1    1    2    0  501  0.28635791304E+02  0.46532406947E+02  0.39890368250E+02  0.67649943969E+02  0.00000000000E+00 0.  1.
<mgrwt>
<rscale>  0 0.42329485E+02</rscale>
<asrwt>0</asrwt>
<pdfrwt beam="1">  1        1 0.19346836E+00 0.34381819E+02</pdfrwt>
<pdfrwt beam="2">  1       -3 0.34903143E-02 0.52114327E+02</pdfrwt>
<totfact> 0.21878995E+03</totfact>
</mgrwt>
</event>
<event>
 5    1  0.7156190E-003  0.2605083E+03  0.7546771E-02  0.1189674E+00
         -1   -1    0    0    0  501 -0.00000000000E+00  0.00000000000E+00  0.64798973330E+03  0.64798973330E+03  0.00000000000E+00 0.  1.
          2   -1    0    0  502    0  0.00000000000E+00 -0.00000000000E+00 -0.68413019884E+03  0.68413019884E+03  0.00000000000E+00 0. -1.
         25    1    1    2    0    0  0.31765132910E+03 -0.60099547035E+02 -0.13612845555E+03  0.37238458460E+03  0.12500000000E+03 0.  0.
          2    1    1    2  502    0 -0.64110460295E+02  0.73076045332E+02 -0.39320116743E+03  0.40504001974E+03  0.00000000000E+00 0. -1.
         -1    1    1    2    0  501 -0.25354086881E+03 -0.12976498297E+02  0.49318915744E+03  0.55469532780E+03  0.00000000000E+00 0.  1.
<mgrwt>
<rscale>  0 0.15913719E+03</rscale>
<asrwt>0</asrwt>
<pdfrwt beam="2">  1        2 0.10525080E+00 0.97212445E+02</pdfrwt>
<pdfrwt beam="1">  1       -1 0.99690728E-01 0.26050827E+03</pdfrwt>
<totfact> 0.52175156E+01</totfact>
</mgrwt>
</event>
<event>
 5    1  0.7156190E-003  0.1033691E+03  0.7546771E-02  0.1295976E+00
          2   -1    0    0  501    0  0.00000000000E+00  0.00000000000E+00  0.87382742009E+02  0.87382742009E+02  0.00000000000E+00 0. -1.
          2   -1    0    0  502    0 -0.00000000000E+00 -0.00000000000E+00 -0.28416176388E+04  0.28416176388E+04  0.00000000000E+00 0. -1.
         25    1    1    2    0    0  0.64740858446E+02  0.68110939461E+02 -0.35643658065E+03  0.38923323966E+03  0.12500000000E+03 0.  0.
          2    1    1    2  501    0  0.90081051196E+01 -0.10725177121E+03  0.29051701019E+02  0.11148134246E+03  0.00000000000E+00 0. -1.
          2    1    1    2  502    0 -0.73748963566E+02  0.39140831747E+02 -0.24268500172E+04  0.24282857987E+04  0.00000000000E+00 0. -1.
<mgrwt>
<rscale>  0 0.92900450E+02</rscale>
<asrwt>0</asrwt>
<pdfrwt beam="1">  1        2 0.13443500E-01 0.10336911E+03</pdfrwt>
<pdfrwt beam="2">  1        2 0.43717190E+00 0.83492002E+02</pdfrwt>
<totfact> 0.20170026E+02</totfact>
</mgrwt>
</event>
<event>
 5    1  0.7156190E-003  0.7184698E+02  0.7546771E-02  0.1443040E+00
          3   -1    0    0  502    0 -0.00000000000E+00  0.00000000000E+00  0.67498325506E+02  0.67498325506E+02  0.00000000000E+00 0. -1.
          2   -1    0    0  501    0  0.00000000000E+00 -0.00000000000E+00 -0.69945010898E+03  0.69945010898E+03  0.00000000000E+00 0. -1.
         25    1    1    2    0    0  0.22335285279E+02 -0.45269568592E+02 -0.41604248607E+03  0.43733802605E+03  0.12500000000E+03 0.  0.
          2    1    1    2  501    0 -0.33855793806E+02  0.78738362791E+02 -0.25959894216E+03  0.27338170260E+03  0.00000000000E+00 0. -1.
          3    1    1    2  502    0  0.11520508528E+02 -0.33468794198E+02  0.43689644753E+02  0.56228705840E+02  0.00000000000E+00 0. -1.
<mgrwt>
<rscale>  0 0.50429172E+02</rscale>
<asrwt>0</asrwt>
<pdfrwt beam="2">  1        2 0.10760771E+00 0.71846984E+02</pdfrwt>
<pdfrwt beam="1">  1        3 0.10384358E-01 0.35396077E+02</pdfrwt>
<totfact> 0.14990241E+03</totfact>
</mgrwt>
</event>
<event>
 5    1  0.7156190E-003  0.1062951E+03  0.7546771E-02  0.1289589E+00
          2   -1    0    0  502    0  0.00000000000E+00  0.00000000000E+00  0.76734346477E+03  0.76734346477E+03  0.00000000000E+00 0. -1.
         -3   -1    0    0    0  501 -0.00000000000E+00 -0.00000000000E+00 -0.15253610946E+03  0.15253610946E+03  0.00000000000E+00 0.  1.
         25    1    1    2    0    0  0.39585125008E+02  0.55053313307E+02 -0.31533805307E+02  0.14566135488E+03  0.12500000000E+03 0.  0.
          2    1    1    2  502    0  0.30550774730E+02 -0.10512496145E+03  0.67467900957E+03  0.68350301631E+03  0.00000000000E+00 0. -1.
         -3    1    1    2    0  501 -0.70135899739E+02  0.50071648140E+02 -0.28337848946E+02  0.90715203040E+02  0.00000000000E+00 0.  1.
<mgrwt>
<rscale>  0 0.95708058E+02</rscale>
<asrwt>0</asrwt>
<pdfrwt beam="1">  1        2 0.11805284E+00 0.10629511E+03</pdfrwt>
<pdfrwt beam="2">  1       -3 0.23467094E-01 0.86175486E+02</pdfrwt>
<totfact> 0.37712215E+02</totfact>
</mgrwt>
</event>
<event>
 5    1  0.7156190E-003  0.1181971E+03  0.7546771E-02  0.1396436E+00
          1   -1    0    0  502    0 -0.00000000000E+00  0.00000000000E+00  0.75578144940E+03  0.75578144940E+03  0.00000000000E+00 0. -1.
          2   -1    0    0  501    0  0.00000000000E+00 -0.00000000000E+00 -0.72023381859E+03  0.72023381859E+03  0.00000000000E+00 0. -1.
         25    1    1    2    0    0 -0.78603550798E+02  0.40303909987E+02 -0.12101714983E+03  0.19512322750E+03  0.12500000000E+03 0.  0.
          2    1    1    2  501    0 -0.27252039714E+02  0.14346109755E+02 -0.55679865873E+03  0.55764973854E+03  0.00000000000E+00 0. -1.
          1    1    1    2  502    0  0.10585559051E+03 -0.54650019741E+02  0.71336343937E+03  0.72324230195E+03  0.00000000000E+00 0. -1.
<mgrwt>
<rscale>  0 0.60333849E+02</rscale>
<asrwt>0</asrwt>
<pdfrwt beam="2">  1        2 0.11080520E+00 0.30797476E+02</pdfrwt>
<pdfrwt beam="1">  1        1 0.11627407E+00 0.11819713E+03</pdfrwt>
<totfact> 0.15527375E+02</totfact>
</mgrwt>
</event>
<event>
 5    1  0.7156190E-003  0.7472972E+02  0.7546771E-02  0.1512392E+00
         -1   -1    0    0    0  501 -0.00000000000E+00  0.00000000000E+00  0.32725736740E+03  0.32725736740E+03  0.00000000000E+00 0.  1.
          2   -1    0    0  502    0  0.00000000000E+00 -0.00000000000E+00 -0.58134194197E+02  0.58134194197E+02  0.00000000000E+00 0. -1.
         25    1    1    2    0    0  0.24058834726E+02  0.86480167181E+02  0.13083501866E+03  0.20199121009E+03  0.12500000000E+03 0.  0.
          2    1    1    2  502    0  0.32203087650E+01 -0.20561983824E+02 -0.66560357588E+01  0.21851049846E+02  0.00000000000E+00 0. -1.
         -1    1    1    2    0  501 -0.27279143491E+02 -0.65918183357E+02  0.14494419030E+03  0.16154930166E+03  0.00000000000E+00 0.  1.
<mgrwt>
<rscale>  0 0.39437570E+02</rscale>
<asrwt>0</asrwt>
<pdfrwt beam="2">  1        2 0.89437224E-02 0.20812630E+02</pdfrwt>
<pdfrwt beam="1">  1       -1 0.50347286E-01 0.74729715E+02</pdfrwt>
<totfact> 0.28376742E+03</totfact>
</mgrwt>
</event>
<event>
 5    1  0.7156190E-003  0.6482616E+02  0.7546771E-02  0.1446108E+00
         -1   -1    0    0    0  501 -0.00000000000E+00  0.00000000000E+00  0.66313786968E+03  0.66313786968E+03  0.00000000000E+00 0.  1.
          2   -1    0    0  502    0  0.00000000000E+00 -0.00000000000E+00 -0.11038356800E+04  0.11038356800E+04  0.00000000000E+00 0. -1.
         25    1    1    2    0    0  0.26664943019E+02  0.64486060912E+02  0.11542659570E+03  0.18389608542E+03  0.12500000000E+03 0.  0.
          2    1    1    2  502    0 -0.53329035265E+02 -0.36927836712E+02 -0.10678995190E+04  0.10698677646E+04  0.00000000000E+00 0. -1.
         -1    1    1    2    0  501  0.26664092247E+02 -0.27558224201E+02  0.51177511298E+03  0.51320969963E+03  0.00000000000E+00 0.  1.
<mgrwt>
<rscale>  0 0.49858156E+02</rscale>
<asrwt>0</asrwt>
<pdfrwt beam="2">  1        2 0.16982087E+00 0.64826163E+02</pdfrwt>
<pdfrwt beam="1">  1       -1 0.10202121E+00 0.38346180E+02</pdfrwt>
<totfact> 0.29885483E+01</totfact>
</mgrwt>
</event>
<event>
 5    1  0.7156190E-003  0.1137407E+03  0.7546771E-02  0.1374663E+00
         -1   -1    0    0    0  501  0.00000000000E+00  0.00000000000E+00  0.10767800404E+04  0.10767800404E+04  0.00000000000E+00 0.  1.
         -1   -1    0    0    0  502 -0.00000000000E+00 -0.00000000000E+00 -0.30049232584E+03  0.30049232584E+03  0.00000000000E+00 0.  1.
         25    1    1    2    0    0  0.13788549338E+02  0.96281338770E+02  0.11874126024E+03  0.19795127474E+03  0.12500000000E+03 0.  0.
         -1    1    1    2    0  501 -0.33980624847E+02  0.17380080904E+02  0.90524143434E+03  0.90604569671E+03  0.00000000000E+00 0.  1.
         -1    1    1    2    0  502  0.20192075510E+02 -0.11366141967E+03 -0.24769498005E+03  0.27327539476E+03  0.00000000000E+00 0.  1.
<mgrwt>
<rscale>  0 0.65887668E+02</rscale>
<asrwt>0</asrwt>
<pdfrwt beam="1">  1       -1 0.16565847E+00 0.38167395E+02</pdfrwt>
<pdfrwt beam="2">  1       -1 0.46229589E-01 0.11374066E+03</pdfrwt>
<totfact> 0.13576746E+01</totfact>
</mgrwt>
</event>
<event>
 5    1  0.7156190E-003  0.1626584E+03  0.7546771E-02  0.1375204E+00
          2   -1    0    0  502    0  0.00000000000E+00  0.00000000000E+00  0.29947809583E+03  0.29947809583E+03  0.00000000000E+00 0. -1.
          2   -1    0    0  501    0 -0.00000000000E+00 -0.00000000000E+00 -0.99039262504E+03  0.99039262504E+03  0.00000000000E+00 0.  1.
         25    1    1    2    0    0  0.42231453077E+02  0.14467893261E+03 -0.45683980470E+02  0.20106594749E+03  0.12500000000E+03 0.  0.
          2    1    1    2  501    0 -0.68442505704E+02 -0.14903496321E+03 -0.85843035010E+03  0.87395564122E+03  0.00000000000E+00 0.  1.
          2    1    1    2  502    0  0.26211052627E+02  0.43560305976E+01  0.21319980137E+03  0.21484913215E+03  0.00000000000E+00 0. -1.
<mgrwt>
<rscale>  0 0.65741335E+02</rscale>
<asrwt>0</asrwt>
<pdfrwt beam="1">  1        2 0.46073553E-01 0.26570553E+02</pdfrwt>
<pdfrwt beam="2">  1        2 0.15236810E+00 0.16265838E+03</pdfrwt>
<totfact> 0.45500609E+02</totfact>
</mgrwt>
</event>
<event>
 5    1  0.7156190E-003  0.5985553E+02  0.7546771E-02  0.1461384E+00
          2   -1    0    0  501    0  0.00000000000E+00  0.00000000000E+00  0.33483312576E+03  0.33483312576E+03  0.00000000000E+00 0. -1.
          1   -1    0    0  502    0 -0.00000000000E+00 -0.00000000000E+00 -0.77464441092E+02  0.77464441092E+02  0.00000000000E+00 0. -1.
         25    1    1    2    0    0  0.69161522300E+01  0.61511758587E+02  0.19150664906E+03  0.23692050616E+03  0.12500000000E+03 0.  0.
          2    1    1    2  501    0 -0.36152594156E+02 -0.84722781441E+01  0.99426891389E+02  0.10613433136E+03  0.00000000000E+00 0. -1.
          1    1    1    2  502    0  0.29236441926E+02 -0.53039480443E+02 -0.33564855779E+02  0.69242729334E+02  0.00000000000E+00 0. -1.
<mgrwt>
<rscale>  0 0.47144025E+02</rscale>
<asrwt>0</asrwt>
<pdfrwt beam="1">  1        2 0.51512788E-01 0.37132056E+02</pdfrwt>
<pdfrwt beam="2">  1        1 0.11917606E-01 0.59855535E+02</pdfrwt>
<totfact> 0.60758296E+03</totfact>
</mgrwt>
</event>
<event>
 5    1  0.7156190E-003  0.1612471E+03  0.7546771E-02  0.1208076E+00
         -1   -1    0    0    0  501 -0.00000000000E+00  0.00000000000E+00  0.19417500630E+03  0.19417500630E+03  0.00000000000E+00 0.  1.
          2   -1    0    0  502    0  0.00000000000E+00 -0.00000000000E+00 -0.31044114095E+04  0.31044114095E+04  0.00000000000E+00 0. -1.
         25    1    1    2    0    0  0.16920062761E+03  0.19030810057E+03 -0.19212460644E+04  0.19420755561E+04  0.12500000000E+03 0.  0.
          2    1    1    2  502    0 -0.69703636658E+02 -0.10890258597E+03 -0.11461780550E+04  0.11534480933E+04  0.00000000000E+00 0. -1.
         -1    1    1    2    0  501 -0.99496990956E+02 -0.81405514596E+02  0.15718771615E+03  0.20306276646E+03  0.00000000000E+00 0.  1.
<mgrwt>
<rscale>  0 0.14397637E+03</rscale>
<asrwt>0</asrwt>
<pdfrwt beam="2">  1        2 0.47760179E+00 0.16124708E+03</pdfrwt>
<pdfrwt beam="1">  1       -1 0.29873076E-01 0.12855547E+03</pdfrwt>
<totfact> 0.22919709E+01</totfact>
</mgrwt>
</event>
<event>
 5    1  0.7156190E-003  0.1447840E+03  0.7546771E-02  0.1291024E+00
          2   -1    0    0  501    0  0.00000000000E+00  0.00000000000E+00  0.55824310720E+03  0.55824310720E+03  0.00000000000E+00 0. -1.
          2   -1    0    0  502    0 -0.00000000000E+00 -0.00000000000E+00 -0.13698306033E+04  0.13698306033E+04  0.00000000000E+00 0. -1.
         25    1    1    2    0    0 -0.18339550179E+03  0.78167491764E+02  0.51232230993E+02  0.24081903649E+03  0.12500000000E+03 0.  0.
          2    1    1    2  501    0  0.44149175461E+02 -0.44130401794E+02  0.40579441414E+03  0.41056759322E+03  0.00000000000E+00 0. -1.
          2    1    1    2  502    0  0.13924632633E+03 -0.34037089969E+02 -0.12686141412E+04  0.12766870808E+04  0.00000000000E+00 0. -1.
<mgrwt>
<rscale>  0 0.95067693E+02</rscale>
<asrwt>0</asrwt>
<pdfrwt beam="1">  1        2 0.85883557E-01 0.62423089E+02</pdfrwt>
<pdfrwt beam="2">  1        2 0.21074317E+00 0.14478403E+03</pdfrwt>
<totfact> 0.14788911E+02</totfact>
</mgrwt>
</event>
<event>
 5    1  0.7156190E-003  0.9023905E+02  0.7546771E-02  0.1392986E+00
          2   -1    0    0  501    0  0.00000000000E+00  0.00000000000E+00  0.14664368901E+04  0.14664368901E+04  0.00000000000E+00 0. -1.
          1   -1    0    0  502    0 -0.00000000000E+00 -0.00000000000E+00 -0.47944648245E+02  0.47944648245E+02  0.00000000000E+00 0.  1.
         25    1    1    2    0    0 -0.69770368085E+02 -0.38391975563E+02  0.64326313012E+03  0.66011688558E+03  0.12500000000E+03 0.  0.
          2    1    1    2  501    0 -0.21956892974E+02  0.35174513074E+02  0.76011468305E+03  0.76124482455E+03  0.00000000000E+00 0. -1.
          1    1    1    2  502    0  0.91727261059E+02  0.32174624888E+01  0.15114428681E+02  0.93019828213E+02  0.00000000000E+00 0.  1.
<mgrwt>
<rscale>  0 0.61169993E+02</rscale>
<asrwt>0</asrwt>
<pdfrwt beam="1">  1        2 0.22560564E+00 0.41465064E+02</pdfrwt>
<pdfrwt beam="2">  1        1 0.73761009E-02 0.90239051E+02</pdfrwt>
<totfact> 0.20180983E+03</totfact>
</mgrwt>
</event>
<event>
 5    1  0.7156190E-003  0.1281787E+03  0.7546771E-02  0.1356359E+00
         -3   -1    0    0    0  501  0.00000000000E+00  0.00000000000E+00  0.18764944371E+03  0.18764944371E+03  0.00000000000E+00 0.  1.
         -3   -1    0    0    0  502 -0.00000000000E+00 -0.00000000000E+00 -0.17322008872E+03  0.17322008872E+03  0.00000000000E+00 0.  1.
         25    1    1    2    0    0 -0.20386657576E+02 -0.12678488689E+03 -0.33133732084E+01  0.17923727791E+03  0.12500000000E+03 0.  0.
         -3    1    1    2    0  501  0.58413534857E+02  0.11628494509E+03  0.40248640320E+02  0.13621410557E+03  0.00000000000E+00 0.  1.
         -3    1    1    2    0  502 -0.38026877281E+02  0.10499941804E+02 -0.22505912116E+02  0.45418148947E+02  0.00000000000E+00 0.  1.
<mgrwt>
<rscale>  0 0.71109995E+02</rscale>
<asrwt>0</asrwt>
<pdfrwt beam="1">  1       -3 0.28869145E-01 0.12817866E+03</pdfrwt>
<pdfrwt beam="2">  1       -3 0.26649245E-01 0.39449869E+02</pdfrwt>
<totfact> 0.31957842E+02</totfact>
</mgrwt>
</event>
<event>
 5    1  0.7156190E-003  0.1061363E+03  0.7546771E-02  0.1279829E+00
         -1   -1    0    0    0  501  0.00000000000E+00  0.00000000000E+00  0.10591340878E+04  0.10591340878E+04  0.00000000000E+00 0.  1.
         -1   -1    0    0    0  502 -0.00000000000E+00 -0.00000000000E+00 -0.35717240862E+03  0.35717240862E+03  0.00000000000E+00 0.  1.
         25    1    1    2    0    0  0.64103794725E+01 -0.17597952064E+03 -0.62173461700E+02  0.22472299390E+03  0.12500000000E+03 0.  0.
         -1    1    1    2    0  502  0.35743898335E+02  0.91248389402E+02 -0.20005040076E+03  0.22276457906E+03  0.00000000000E+00 0.  1.
         -1    1    1    2    0  501 -0.42154277808E+02  0.84731131235E+02  0.96418554167E+03  0.96881892349E+03  0.00000000000E+00 0.  1.
<mgrwt>
<rscale>  0 0.10022237E+03</rscale>
<asrwt>0</asrwt>
<pdfrwt beam="1">  1       -1 0.16294370E+00 0.94637983E+02</pdfrwt>
<pdfrwt beam="2">  1       -1 0.54949602E-01 0.10613627E+03</pdfrwt>
<totfact> 0.96906792E+00</totfact>
</mgrwt>
</event>
<event>
 5    1  0.7156190E-003  0.9406839E+02  0.7546771E-02  0.1398450E+00
          1   -1    0    0  502    0  0.00000000000E+00  0.00000000000E+00  0.21293535696E+04  0.21293535696E+04  0.00000000000E+00 0. -1.
         -1   -1    0    0    0  501 -0.00000000000E+00 -0.00000000000E+00 -0.51685497398E+02  0.51685497398E+02  0.00000000000E+00 0.  1.
         25    1    1    2    0    0  0.20712740877E+02 -0.66261255796E+02  0.22055261225E+03  0.26284601276E+03  0.12500000000E+03 0.  0.
          1    1    1    2  502    0  0.29298098535E+02 -0.24329299144E+02  0.17992137626E+04  0.17996167528E+04  0.00000000000E+00 0. -1.
         -1    1    1    2    0  501 -0.50010839411E+02  0.90590554940E+02  0.57901697297E+02  0.11857630140E+03  0.00000000000E+00 0.  1.
<mgrwt>
<rscale>  0 0.59852985E+02</rscale>
<asrwt>0</asrwt>
<pdfrwt beam="1">  1        1 0.32759279E+00 0.38082718E+02</pdfrwt>
<pdfrwt beam="2">  1       -1 0.79516166E-02 0.94068388E+02</pdfrwt>
<totfact> 0.29116791E+02</totfact>
</mgrwt>
</event>
<event>
 5    1  0.7156190E-003  0.6878218E+02  0.7546771E-02  0.1459173E+00
          2   -1    0    0  501    0  0.00000000000E+00  0.00000000000E+00  0.37822469754E+03  0.37822469754E+03  0.00000000000E+00 0. -1.
          2   -1    0    0  502    0 -0.00000000000E+00 -0.00000000000E+00 -0.70209675577E+03  0.70209675577E+03  0.00000000000E+00 0.  1.
         25    1    1    2    0    0 -0.41319464272E+02 -0.50903014522E+01 -0.99071154745E+02  0.16484326798E+03  0.12500000000E+03 0.  0.
          2    1    1    2  501    0  0.68177238554E+02 -0.13800580046E+02  0.34135531333E+03  0.34837055243E+03  0.00000000000E+00 0. -1.
          2    1    1    2  502    0 -0.26857774282E+02  0.18890881498E+02 -0.56615621681E+03  0.56710763289E+03  0.00000000000E+00 0.  1.
<mgrwt>
<rscale>  0 0.47524039E+02</rscale>
<asrwt>0</asrwt>
<pdfrwt beam="1">  1        2 0.58188416E-01 0.68782180E+02</pdfrwt>
<pdfrwt beam="2">  1        2 0.10801488E+00 0.32836039E+02</pdfrwt>
<totfact> 0.58960401E+02</totfact>
</mgrwt>
</event>
<event>
 5    1  0.7156190E-003  0.1074386E+03  0.7546771E-02  0.1312297E+00
          2   -1    0    0  501    0  0.00000000000E+00  0.00000000000E+00  0.13782505578E+04  0.13782505578E+04  0.00000000000E+00 0. -1.
          2   -1    0    0  502    0 -0.00000000000E+00 -0.00000000000E+00 -0.34778010354E+03  0.34778010354E+03  0.00000000000E+00 0. -1.
         25    1    1    2    0    0  0.75357495589E+02  0.27360744939E+01  0.20438864010E+03  0.25116917495E+03  0.12500000000E+03 0.  0.
          2    1    1    2  501    0 -0.92884493205E+02  0.64183576507E+02  0.11439728055E+04  0.11495307044E+04  0.00000000000E+00 0. -1.
          2    1    1    2  502    0  0.17526997616E+02 -0.66919651001E+02 -0.31789099135E+03  0.32533078200E+03  0.00000000000E+00 0. -1.
<mgrwt>
<rscale>  0 0.86210572E+02</rscale>
<asrwt>0</asrwt>
<pdfrwt beam="1">  1        2 0.21203854E+00 0.10743860E+03</pdfrwt>
<pdfrwt beam="2">  1        2 0.53504632E-01 0.69176841E+02</pdfrwt>
<totfact> 0.24587962E+02</totfact>
</mgrwt>
</event>
<event>
 5    1  0.7156190E-003  0.8810760E+02  0.7546771E-02  0.1311123E+00
          2   -1    0    0  502    0  0.00000000000E+00  0.00000000000E+00  0.26524525496E+04  0.26524525496E+04  0.00000000000E+00 0. -1.
          2   -1    0    0  501    0 -0.00000000000E+00 -0.00000000000E+00 -0.10166636614E+03  0.10166636614E+03  0.00000000000E+00 0. -1.
         25    1    1    2    0    0 -0.11350523204E+03 -0.42006958618E+02  0.15636199140E+03  0.23392754140E+03  0.12500000000E+03 0.  0.
          2    1    1    2  501    0  0.36892199945E+02  0.79408339903E+02 -0.31287559752E+02  0.92981881343E+02  0.00000000000E+00 0. -1.
          2    1    1    2  502    0  0.76613032097E+02 -0.37401381285E+02  0.24257117518E+04  0.24272094930E+04  0.00000000000E+00 0. -1.
<mgrwt>
<rscale>  0 0.86669579E+02</rscale>
<asrwt>0</asrwt>
<pdfrwt beam="1">  1        2 0.40806957E+00 0.85255029E+02</pdfrwt>
<pdfrwt beam="2">  1        2 0.15640981E-01 0.88107599E+02</pdfrwt>
<totfact> 0.21190998E+02</totfact>
</mgrwt>
</event>
<event>
 5    1  0.7156190E-003  0.7411711E+02  0.7546771E-02  0.1456999E+00
          3   -1    0    0  502    0 -0.00000000000E+00  0.00000000000E+00  0.65887748673E+02  0.65887748673E+02  0.00000000000E+00 0. -1.
          1   -1    0    0  501    0  0.00000000000E+00 -0.00000000000E+00 -0.17983176237E+04  0.17983176237E+04  0.00000000000E+00 0. -1.
         25    1    1    2    0    0 -0.94845296702E+02 -0.34408319497E+02 -0.77953049437E+03  0.79590976525E+03  0.12500000000E+03 0.  0.
          1    1    1    2  501    0  0.66864657184E+02  0.21159389989E+02 -0.10051328924E+04  0.10075766639E+04  0.00000000000E+00 0. -1.
          3    1    1    2  502    0  0.27980639519E+02  0.13248929508E+02  0.52233511753E+02  0.60718943263E+02  0.00000000000E+00 0. -1.
<mgrwt>
<rscale>  0 0.47901780E+02</rscale>
<asrwt>0</asrwt>
<pdfrwt beam="2">  1        1 0.27666419E+00 0.74117115E+02</pdfrwt>
<pdfrwt beam="1">  1        3 0.10136579E-01 0.30958849E+02</pdfrwt>
<totfact> 0.16130224E+02</totfact>
</mgrwt>
</event>
<event>
 5    1  0.7156190E-003  0.1785136E+03  0.7546771E-02  0.1323332E+00
          2   -1    0    0  501    0  0.00000000000E+00  0.00000000000E+00  0.55115676451E+02  0.55115676451E+02  0.00000000000E+00 0. -1.
          2   -1    0    0  502    0 -0.00000000000E+00 -0.00000000000E+00 -0.10659708960E+04  0.10659708960E+04  0.00000000000E+00 0. -1.
         25    1    1    2    0    0 -0.17758454607E+03  0.45951915108E+02 -0.64539329938E+03  0.68249934827E+03  0.12500000000E+03 0.  0.
          2    1    1    2  501    0  0.26465766541E+01 -0.37619788438E+02 -0.52769937429E+01  0.38080172178E+02  0.00000000000E+00 0. -1.
          2    1    1    2  502    0  0.17493796942E+03 -0.83321266699E+01 -0.36018492644E+03  0.40050705202E+03  0.00000000000E+00 0. -1.
<mgrwt>
<rscale>  0 0.82050251E+02</rscale>
<asrwt>0</asrwt>
<pdfrwt beam="1">  1        2 0.84793362E-02 0.37712768E+02</pdfrwt>
<pdfrwt beam="2">  1        2 0.16399550E+00 0.17851365E+03</pdfrwt>
<totfact> 0.25946183E+03</totfact>
</mgrwt>
</event>
<event>
 5    1  0.7156190E-003  0.8666751E+02  0.7546771E-02  0.1404088E+00
          2   -1    0    0  501    0  0.00000000000E+00  0.00000000000E+00  0.91702131065E+02  0.91702131065E+02  0.00000000000E+00 0.  1.
          1   -1    0    0  502    0 -0.00000000000E+00 -0.00000000000E+00 -0.11592636300E+04  0.11592636300E+04  0.00000000000E+00 0. -1.
         25    1    1    2    0    0 -0.19407875089E+01 -0.88532132028E+02 -0.54643689578E+03  0.56750329173E+03  0.12500000000E+03 0.  0.
          2    1    1    2  501    0  0.39840889945E+02  0.77286830742E+02  0.57012146040E+02  0.10397564866E+03  0.00000000000E+00 0.  1.
          1    1    1    2  502    0 -0.37900102436E+02  0.11245301286E+02 -0.57813674923E+03  0.57948682070E+03  0.00000000000E+00 0. -1.
<mgrwt>
<rscale>  0 0.58534133E+02</rscale>
<asrwt>0</asrwt>
<pdfrwt beam="1">  1        2 0.14108020E-01 0.86667511E+02</pdfrwt>
<pdfrwt beam="2">  1        1 0.17834825E+00 0.39533208E+02</pdfrwt>
<totfact> 0.76592989E+02</totfact>
</mgrwt>
</event>
<event>
 5    1  0.7156190E-003  0.5611495E+02  0.7546771E-02  0.1525103E+00
          2   -1    0    0  502    0  0.00000000000E+00  0.00000000000E+00  0.12873828415E+02  0.12873828415E+02  0.00000000000E+00 0. -1.
         -1   -1    0    0    0  501 -0.00000000000E+00 -0.00000000000E+00 -0.13423807518E+04  0.13423807518E+04  0.00000000000E+00 0.  1.
         25    1    1    2    0    0 -0.47674046799E+02  0.53216174345E+02 -0.97077877177E+03  0.98139757472E+03  0.12500000000E+03 0.  0.
          2    1    1    2  502    0  0.24219378071E+02 -0.78330935555E+01 -0.23132738221E+02  0.34395627723E+02  0.00000000000E+00 0. -1.
         -1    1    1    2    0  501  0.23454668728E+02 -0.45383080789E+02 -0.33559541342E+03  0.33946137779E+03  0.00000000000E+00 0.  1.
<mgrwt>
<rscale>  0 0.37793949E+02</rscale>
<asrwt>0</asrwt>
<pdfrwt beam="1">  1        2 0.19805892E-02 0.25454580E+02</pdfrwt>
<pdfrwt beam="2">  1       -1 0.20652009E+00 0.56114955E+02</pdfrwt>
<totfact> 0.79738862E+02</totfact>
</mgrwt>
</event>
<event>
 5    1  0.7156190E-003  0.5803301E+02  0.7546771E-02  0.1468223E+00
          2   -1    0    0  502    0  0.00000000000E+00  0.00000000000E+00  0.39661331793E+03  0.39661331793E+03  0.00000000000E+00 0. -1.
          2   -1    0    0  501    0 -0.00000000000E+00 -0.00000000000E+00 -0.10619049205E+04  0.10619049205E+04  0.00000000000E+00 0. -1.
         25    1    1    2    0    0  0.94059906802E+02 -0.29252768938E+01 -0.20377199830E+03  0.25691214569E+03  0.12500000000E+03 0.  0.
          2    1    1    2  501    0 -0.36454334497E+02 -0.19726266401E-01 -0.82891204301E+03  0.82971326008E+03  0.00000000000E+00 0. -1.
          2    1    1    2  502    0 -0.57605572305E+02  0.29450031602E+01  0.36739243870E+03  0.37189283270E+03  0.00000000000E+00 0. -1.
<mgrwt>
<rscale>  0 0.45995164E+02</rscale>
<asrwt>0</asrwt>
<pdfrwt beam="1">  1        2 0.61017435E-01 0.58033011E+02</pdfrwt>
<pdfrwt beam="2">  1        2 0.16336998E+00 0.36454340E+02</pdfrwt>
<totfact> 0.33961380E+02</totfact>
</mgrwt>
</event>
<event>
 5    1  0.7156190E-003  0.1605183E+03  0.7546771E-02  0.1254794E+00
          1   -1    0    0  502    0  0.00000000000E+00  0.00000000000E+00  0.13012438771E+04  0.13012438771E+04  0.00000000000E+00 0. -1.
         -1   -1    0    0    0  501 -0.00000000000E+00 -0.00000000000E+00 -0.12323581284E+03  0.12323581284E+03  0.00000000000E+00 0.  1.
         25    1    1    2    0    0 -0.20258435976E+03  0.28870644320E+02  0.39017729957E+03  0.45797080914E+03  0.12500000000E+03 0.  0.
          1    1    1    2  502    0  0.66099957097E+02  0.44708885438E+02  0.80640667677E+03  0.81034549243E+03  0.00000000000E+00 0. -1.
         -1    1    1    2    0  501  0.13648440266E+03 -0.73579529758E+02 -0.18575912055E+02  0.15616338840E+03  0.00000000000E+00 0.  1.
<mgrwt>
<rscale>  0 0.11317865E+03</rscale>
<asrwt>0</asrwt>
<pdfrwt beam="1">  1        1 0.20019136E+00 0.79800306E+02</pdfrwt>
<pdfrwt beam="2">  1       -1 0.18959357E-01 0.16051828E+03</pdfrwt>
<totfact> 0.23468513E+02</totfact>
</mgrwt>
</event>
<event>
 5    1  0.7156190E-003  0.6884466E+02  0.7546771E-02  0.1521404E+00
         -1   -1    0    0    0  501 -0.00000000000E+00  0.00000000000E+00  0.24583698439E+02  0.24583698439E+02  0.00000000000E+00 0.  1.
          2   -1    0    0  502    0  0.00000000000E+00 -0.00000000000E+00 -0.60595394887E+03  0.60595394887E+03  0.00000000000E+00 0. -1.
         25    1    1    2    0    0 -0.62692869117E+02  0.44669156273E+01 -0.29149403163E+03  0.32333283107E+03  0.12500000000E+03 0.  0.
          2    1    1    2  502    0 -0.60478455109E+01  0.20387011608E+02 -0.12577658206E+03  0.12756157444E+03  0.00000000000E+00 0. -1.
         -1    1    1    2    0  501  0.68740714627E+02 -0.24853927235E+02 -0.16409963674E+03  0.17964324180E+03  0.00000000000E+00 0.  1.
<mgrwt>
<rscale>  0 0.38262151E+02</rscale>
<asrwt>0</asrwt>
<pdfrwt beam="2">  1        2 0.93223686E-01 0.21265152E+02</pdfrwt>
<pdfrwt beam="1">  1       -1 0.37821074E-02 0.68844664E+02</pdfrwt>
<totfact> 0.13955561E+04</totfact>
</mgrwt>
</event>
<event>
 5    1  0.7156190E-003  0.6667822E+02  0.7546771E-02  0.1415901E+00
          1   -1    0    0  502    0 -0.00000000000E+00  0.00000000000E+00  0.10128044901E+03  0.10128044901E+03  0.00000000000E+00 0. -1.
          2   -1    0    0  501    0  0.00000000000E+00 -0.00000000000E+00 -0.33736837724E+04  0.33736837724E+04  0.00000000000E+00 0. -1.
         25    1    1    2    0    0  0.97993577918E+02  0.49432901754E+02 -0.44640741260E+03  0.47639367241E+03  0.12500000000E+03 0.  0.
          2    1    1    2  501    0 -0.63097240981E+02 -0.18158219998E+02 -0.29055228246E+04  0.29062645900E+04  0.00000000000E+00 0. -1.
          1    1    1    2  502    0 -0.34896336936E+02 -0.31274681756E+02  0.79526913807E+02  0.92305959018E+02  0.00000000000E+00 0. -1.
<mgrwt>
<rscale>  0 0.55897599E+02</rscale>
<asrwt>0</asrwt>
<pdfrwt beam="2">  1        2 0.51902826E+00 0.66678216E+02</pdfrwt>
<pdfrwt beam="1">  1        1 0.15581608E-01 0.46860005E+02</pdfrwt>
<totfact> 0.70014542E+01</totfact>
</mgrwt>
</event>
<event>
 5    1  0.7156190E-003  0.7892847E+02  0.7546771E-02  0.1337469E+00
         -1   -1    0    0    0  501 -0.00000000000E+00  0.00000000000E+00  0.11737711954E+04  0.11737711954E+04  0.00000000000E+00 0. -1.
          2   -1    0    0  502    0  0.00000000000E+00 -0.00000000000E+00 -0.57019428964E+03  0.57019428964E+03  0.00000000000E+00 0. -1.
         25    1    1    2    0    0 -0.78268411645E+02  0.71057720973E+02  0.40844595217E+03  0.44003208953E+03  0.12500000000E+03 0.  0.
          2    1    1    2  502    0  0.78842208071E+02  0.42667468028E+01 -0.54968058056E+03  0.55532246447E+03  0.00000000000E+00 0. -1.
         -1    1    1    2    0  501 -0.57379642594E+00 -0.75324467776E+02  0.74481153413E+03  0.74861093103E+03  0.00000000000E+00 0. -1.
<mgrwt>
<rscale>  0 0.77106532E+02</rscale>
<asrwt>0</asrwt>
<pdfrwt beam="2">  1        2 0.87722199E-01 0.78928467E+02</pdfrwt>
<pdfrwt beam="1">  1       -1 0.18058018E+00 0.75326653E+02</pdfrwt>
<totfact> 0.15864689E+01</totfact>
</mgrwt>
</event>
<event>
 5    1  0.7156190E-003  0.8772735E+02  0.7546771E-02  0.1342821E+00
          2   -1    0    0  502    0  0.00000000000E+00  0.00000000000E+00  0.13346005082E+03  0.13346005082E+03  0.00000000000E+00 0. -1.
         -3   -1    0    0    0  501 -0.00000000000E+00 -0.00000000000E+00 -0.62216977889E+03  0.62216977889E+03  0.00000000000E+00 0.  1.
         25    1    1    2    0    0 -0.84950996971E+01 -0.53132031546E+02 -0.46018853040E+02  0.14365902105E+03  0.12500000000E+03 0.  0.
          2    1    1    2  502    0 -0.64661583224E+02 -0.22815681638E+01  0.67552498321E+02  0.93539648961E+02  0.00000000000E+00 0. -1.
         -3    1    1    2    0  501  0.73156682921E+02  0.55413599710E+02 -0.51024337336E+03  0.51843115969E+03  0.00000000000E+00 0.  1.
<mgrwt>
<rscale>  0 0.75340025E+02</rscale>
<asrwt>0</asrwt>
<pdfrwt beam="1">  1        2 0.20532316E-01 0.64701823E+02</pdfrwt>
<pdfrwt beam="2">  1       -3 0.95718427E-01 0.87727348E+02</pdfrwt>
<totfact> 0.15524092E+02</totfact>
</mgrwt>
</event>
<event>
 5    1  0.7156190E-003  0.1581616E+03  0.7546771E-02  0.1340284E+00
          2   -1    0    0  501    0  0.00000000000E+00  0.00000000000E+00  0.19016306776E+03  0.19016306776E+03  0.00000000000E+00 0. -1.
          2   -1    0    0  502    0 -0.00000000000E+00 -0.00000000000E+00 -0.31607174428E+03  0.31607174428E+03  0.00000000000E+00 0. -1.
         25    1    1    2    0    0 -0.13743474523E+03 -0.35706903889E+02 -0.10773640593E+03  0.21770490427E+03  0.12500000000E+03 0.  0.
          2    1    1    2  501    0  0.16356685579E+03  0.99618831964E+01  0.80996026428E+02  0.18279417859E+03  0.00000000000E+00 0. -1.
          2    1    1    2  502    0 -0.26132110564E+02  0.25745020693E+02 -0.99168297016E+02  0.10573572918E+03  0.00000000000E+00 0. -1.
<mgrwt>
<rscale>  0 0.76170531E+02</rscale>
<asrwt>0</asrwt>
<pdfrwt beam="1">  1        2 0.29255857E-01 0.15816156E+03</pdfrwt>
<pdfrwt beam="2">  1        2 0.48626422E-01 0.36683692E+02</pdfrwt>
<totfact> 0.28084208E+03</totfact>
</mgrwt>
</event>
<event>
 5    1  0.7156190E-003  0.3103186E+02  0.7546771E-02  0.1620610E+00
         -1   -1    0    0    0  502 -0.00000000000E+00  0.00000000000E+00  0.12358606703E+03  0.12358606703E+03  0.00000000000E+00 0.  1.
         -2   -1    0    0    0  501  0.00000000000E+00 -0.00000000000E+00 -0.93665654347E+02  0.93665654347E+02  0.00000000000E+00 0. -1.
         25    1    1    2    0    0 -0.22008709263E+01  0.38920440569E+02  0.26805368062E+02  0.13365317910E+03  0.12500000000E+03 0.  0.
         -2    1    1    2    0  501 -0.18827554603E+02 -0.24730710964E+02 -0.29110988169E+02  0.42585613877E+02  0.00000000000E+00 0. -1.
         -1    1    1    2    0  502  0.21028425529E+02 -0.14189729605E+02  0.32226032794E+02  0.41012928403E+02  0.00000000000E+00 0.  1.
<mgrwt>
<rscale>  0 0.28057456E+02</rscale>
<asrwt>0</asrwt>
<pdfrwt beam="2">  1       -2 0.14410101E-01 0.31031857E+02</pdfrwt>
<pdfrwt beam="1">  1       -1 0.19013241E-01 0.25368151E+02</pdfrwt>
<totfact> 0.47197988E+03</totfact>
</mgrwt>
</event>
<event>
 5    1  0.7156190E-003  0.7039955E+02  0.7546771E-02  0.1399707E+00
         -3   -1    0    0    0  501 -0.00000000000E+00  0.00000000000E+00  0.16110708331E+03  0.16110708331E+03  0.00000000000E+00 0.  1.
          3   -1    0    0  502    0  0.00000000000E+00 -0.00000000000E+00 -0.12058862253E+03  0.12058862253E+03  0.00000000000E+00 0. -1.
         25    1    1    2    0    0 -0.47055997095E+02  0.64090780287E+02  0.58791811595E+02  0.15938435334E+03  0.12500000000E+03 0.  0.
          3    1    1    2  502    0  0.49981048080E+02  0.63420421435E+01 -0.56674613639E+01  0.50699573806E+02  0.00000000000E+00 0. -1.
         -3    1    1    2    0  501 -0.29250509857E+01 -0.70432822430E+02 -0.12605889447E+02  0.71611778693E+02  0.00000000000E+00 0.  1.
<mgrwt>
<rscale>  0 0.59555491E+02</rscale>
<asrwt>0</asrwt>
<pdfrwt beam="2">  1        3 0.18552096E-01 0.50381809E+02</pdfrwt>
<pdfrwt beam="1">  1       -3 0.24785705E-01 0.70399546E+02</pdfrwt>
<totfact> 0.77383191E+02</totfact>
</mgrwt>
</event>
<event>
 5    1  0.7156190E-003  0.7058011E+02  0.7546771E-02  0.1386797E+00
         -2   -1    0    0    0  501 -0.00000000000E+00  0.00000000000E+00  0.14339707249E+03  0.14339707249E+03  0.00000000000E+00 0.  1.
          1   -1    0    0  502    0  0.00000000000E+00 -0.00000000000E+00 -0.16945569833E+03  0.16945569833E+03  0.00000000000E+00 0. -1.
         25    1    1    2    0    0 -0.61450757659E+01 -0.93948632021E+02  0.51125550817E+02  0.16462967339E+03  0.12500000000E+03 0.  0.
          1    1    1    2  502    0  0.44227691824E+02  0.53276668294E+02 -0.54276815085E+02  0.87979911141E+02  0.00000000000E+00 0. -1.
         -2    1    1    2    0  501 -0.38082616059E+02  0.40671963727E+02 -0.22907361577E+02  0.60243186284E+02  0.00000000000E+00 0.  1.
<mgrwt>
<rscale>  0 0.62710302E+02</rscale>
<asrwt>0</asrwt>
<pdfrwt beam="2">  1        1 0.26070107E-01 0.70580114E+02</pdfrwt>
<pdfrwt beam="1">  1       -2 0.22061088E-01 0.55717989E+02</pdfrwt>
<totfact> 0.25975019E+03</totfact>
</mgrwt>
</event>
<event>
 5    1  0.7156190E-003  0.3198973E+03  0.7546771E-02  0.1268390E+00
          1   -1    0    0  502    0 -0.00000000000E+00  0.00000000000E+00  0.70777456275E+03  0.70777456275E+03  0.00000000000E+00 0. -1.
          2   -1    0    0  501    0  0.00000000000E+00 -0.00000000000E+00 -0.18863635742E+03  0.18863635742E+03  0.00000000000E+00 0. -1.
         25    1    1    2    0    0 -0.16175009692E+03  0.29532849070E+03  0.27401518706E+03  0.45176468876E+03  0.12500000000E+03 0.  0.
          2    1    1    2  501    0  0.29885591770E+02 -0.18304994715E+02 -0.18952476763E+02  0.39842412106E+02  0.00000000000E+00 0. -1.
          1    1    1    2  502    0  0.13186450515E+03 -0.27702349598E+03  0.26407549503E+03  0.40480381930E+03  0.00000000000E+00 0. -1.
<mgrwt>
<rscale>  0 0.10588256E+03</rscale>
<asrwt>0</asrwt>
<pdfrwt beam="2">  1        2 0.29020978E-01 0.35045990E+02</pdfrwt>
<pdfrwt beam="1">  1        1 0.10888839E+00 0.31989730E+03</pdfrwt>
<totfact> 0.64906429E+02</totfact>
</mgrwt>
</event>
<event>
 5    1  0.7156190E-003  0.9736477E+02  0.7546771E-02  0.1292091E+00
          1   -1    0    0  502    0 -0.00000000000E+00  0.00000000000E+00  0.19845885247E+03  0.19845885247E+03  0.00000000000E+00 0. -1.
          2   -1    0    0  501    0  0.00000000000E+00 -0.00000000000E+00 -0.90779074532E+03  0.90779074532E+03  0.00000000000E+00 0.  1.
         25    1    1    2    0    0 -0.49743759530E+02 -0.23369589949E+02 -0.47584476926E+03  0.49504931449E+03  0.12500000000E+03 0.  0.
          2    1    1    2  501    0  0.51609313730E+02 -0.76044987990E+02 -0.40372391213E+03  0.41405236225E+03  0.00000000000E+00 0.  1.
          1    1    1    2  502    0 -0.18655541994E+01  0.99414577939E+02  0.17023678854E+03  0.19714792105E+03  0.00000000000E+00 0. -1.
<mgrwt>
<rscale>  0 0.94595035E+02</rscale>
<asrwt>0</asrwt>
<pdfrwt beam="2">  1        2 0.13966011E+00 0.91904088E+02</pdfrwt>
<pdfrwt beam="1">  1        1 0.30532131E-01 0.97364772E+02</pdfrwt>
<totfact> 0.62597760E+02</totfact>
</mgrwt>
</event>
<event>
 5    1  0.7156190E-003  0.4500054E+02  0.7546771E-02  0.1520045E+00
          1   -1    0    0  502    0  0.00000000000E+00  0.00000000000E+00  0.28678977178E+04  0.28678977178E+04  0.00000000000E+00 0. -1.
          1   -1    0    0  501    0 -0.00000000000E+00 -0.00000000000E+00 -0.31843434226E+03  0.31843434226E+03  0.00000000000E+00 0. -1.
         25    1    1    2    0    0  0.40343027670E+02 -0.17924734403E+02 -0.18233938476E+03  0.22543625977E+03  0.12500000000E+03 0.  0.
          1    1    1    2  501    0  0.21541147723E+01  0.32758768840E+02 -0.11201248788E+03  0.11672435302E+03  0.00000000000E+00 0. -1.
          1    1    1    2  502    0 -0.42497142442E+02 -0.14834034436E+02  0.28438152482E+04  0.28441714473E+04  0.00000000000E+00 0. -1.
<mgrwt>
<rscale>  0 0.38436258E+02</rscale>
<asrwt>0</asrwt>
<pdfrwt beam="1">  1        1 0.44121501E+00 0.45000539E+02</pdfrwt>
<pdfrwt beam="2">  1        1 0.48989901E-01 0.32829516E+02</pdfrwt>
<totfact> 0.11785898E+01</totfact>
</mgrwt>
</event>
<event>
 5    1  0.7156190E-003  0.7431082E+02  0.7546771E-02  0.1376140E+00
          2   -1    0    0  501    0  0.00000000000E+00  0.00000000000E+00  0.21305861643E+04  0.21305861643E+04  0.00000000000E+00 0. -1.
          1   -1    0    0  502    0 -0.00000000000E+00 -0.00000000000E+00 -0.50934500509E+03  0.50934500509E+03  0.00000000000E+00 0. -1.
         25    1    1    2    0    0  0.99381473770E+02  0.40733458355E+01 -0.80489105752E+02  0.17887639760E+03  0.12500000000E+03 0.  0.
          2    1    1    2  501    0 -0.62420294138E+02  0.40254160170E+02  0.20785319249E+04  0.20798585658E+04  0.00000000000E+00 0. -1.
          1    1    1    2  502    0 -0.36961179632E+02 -0.44327506006E+02 -0.37680165994E+03  0.38119620607E+03  0.00000000000E+00 0. -1.
<mgrwt>
<rscale>  0 0.65489476E+02</rscale>
<asrwt>0</asrwt>
<pdfrwt beam="1">  1        2 0.32778248E+00 0.74310816E+02</pdfrwt>
<pdfrwt beam="2">  1        1 0.78360771E-01 0.57715306E+02</pdfrwt>
<totfact> 0.46016331E+01</totfact>
</mgrwt>
</event>
<event>
 5    1  0.7156190E-003  0.7793828E+02  0.7546771E-02  0.1412993E+00
          1   -1    0    0  502    0  0.00000000000E+00  0.00000000000E+00  0.79620975711E+03  0.79620975711E+03  0.00000000000E+00 0. -1.
         -1   -1    0    0    0  501 -0.00000000000E+00 -0.00000000000E+00 -0.31162153817E+03  0.31162153817E+03  0.00000000000E+00 0. -1.
         25    1    1    2    0    0 -0.64698733340E+02  0.75262595304E+01 -0.11421895880E+02  0.14141439242E+03  0.12500000000E+03 0.  0.
          1    1    1    2  502    0  0.71310758892E+02  0.32941201741E+02  0.72729534616E+03  0.73152502872E+03  0.00000000000E+00 0. -1.
         -1    1    1    2    0  501 -0.66120255517E+01 -0.40467461272E+02 -0.23128523134E+03  0.23489187414E+03  0.00000000000E+00 0. -1.
<mgrwt>
<rscale>  0 0.56531294E+02</rscale>
<asrwt>0</asrwt>
<pdfrwt beam="1">  1        1 0.12249381E+00 0.77938280E+02</pdfrwt>
<pdfrwt beam="2">  1       -1 0.47941775E-01 0.41004077E+02</pdfrwt>
<totfact> 0.11169559E+02</totfact>
</mgrwt>
</event>
<event>
 5    1  0.7156190E-003  0.1790169E+03  0.7546771E-02  0.1281230E+00
          1   -1    0    0  502    0 -0.00000000000E+00  0.00000000000E+00  0.17355988894E+04  0.17355988894E+04  0.00000000000E+00 0. -1.
          2   -1    0    0  501    0  0.00000000000E+00 -0.00000000000E+00 -0.98075261098E+03  0.98075261098E+03  0.00000000000E+00 0. -1.
         25    1    1    2    0    0 -0.13414707801E+03  0.85680078298E+02 -0.22678526835E+02  0.20365615614E+03  0.12500000000E+03 0.  0.
          2    1    1    2  501    0  0.18235461150E+02  0.52278000328E+02 -0.86176019332E+03  0.86353700104E+03  0.00000000000E+00 0. -1.
          1    1    1    2  502    0  0.11591161686E+03 -0.13795807863E+03  0.16392849986E+04  0.16491583432E+04  0.00000000000E+00 0. -1.
<mgrwt>
<rscale>  0 0.99557309E+02</rscale>
<asrwt>0</asrwt>
<pdfrwt beam="2">  1        2 0.15088502E+00 0.55367151E+02</pdfrwt>
<pdfrwt beam="1">  1        1 0.26701521E+00 0.17901694E+03</pdfrwt>
<totfact> 0.21004113E+01</totfact>
</mgrwt>
</event>
<event>
 5    1  0.7156190E-003  0.7280776E+02  0.7546771E-02  0.1491647E+00
         -1   -1    0    0    0  501 -0.00000000000E+00  0.00000000000E+00  0.88815249088E+01  0.88815249088E+01  0.00000000000E+00 0.  1.
          2   -1    0    0  502    0  0.00000000000E+00 -0.00000000000E+00 -0.25533500237E+04  0.25533500237E+04  0.00000000000E+00 0. -1.
         25    1    1    2    0    0 -0.46348988634E+02  0.28162774049E+02 -0.81130306594E+03  0.82266581027E+03  0.12500000000E+03 0.  0.
          2    1    1    2  502    0  0.56269502334E+02 -0.50701140440E+02 -0.16707822749E+04  0.16724982131E+04  0.00000000000E+00 0. -1.
         -1    1    1    2    0  501 -0.99205136999E+01  0.22538366391E+02 -0.62383157921E+02  0.67067525255E+02  0.00000000000E+00 0.  1.
<mgrwt>
<rscale>  0 0.42342612E+02</rscale>
<asrwt>0</asrwt>
<pdfrwt beam="2">  1        2 0.39282354E+00 0.72807757E+02</pdfrwt>
<pdfrwt beam="1">  1       -1 0.13663869E-02 0.24625080E+02</pdfrwt>
<totfact> 0.41737463E+03</totfact>
</mgrwt>
</event>
<event>
 5    1  0.7156190E-003  0.6633354E+02  0.7546771E-02  0.1417231E+00
          2   -1    0    0  502    0  0.00000000000E+00  0.00000000000E+00  0.12007769799E+04  0.12007769799E+04  0.00000000000E+00 0. -1.
          2   -1    0    0  501    0 -0.00000000000E+00 -0.00000000000E+00 -0.43092634493E+03  0.43092634493E+03  0.00000000000E+00 0. -1.
         25    1    1    2    0    0 -0.18626061975E+01 -0.21721411329E+02 -0.13503966215E+03  0.18529975544E+03  0.12500000000E+03 0.  0.
          2    1    1    2  501    0  0.18634443532E+02 -0.42735912562E+02 -0.26779770037E+03  0.27182569605E+03  0.00000000000E+00 0. -1.
          2    1    1    2  502    0 -0.16771837334E+02  0.64457323891E+02  0.11726879975E+04  0.11745778733E+04  0.00000000000E+00 0. -1.
<mgrwt>
<rscale>  0 0.55611104E+02</rscale>
<asrwt>0</asrwt>
<pdfrwt beam="1">  1        2 0.18473492E+00 0.66333535E+02</pdfrwt>
<pdfrwt beam="2">  1        2 0.66296361E-01 0.46621891E+02</pdfrwt>
<totfact> 0.25303315E+02</totfact>
</mgrwt>
</event>
<event>
 5    1  0.7156190E-003  0.4902673E+02  0.7546771E-02  0.1512337E+00
         -1   -1    0    0    0  501 -0.00000000000E+00  0.00000000000E+00  0.73497536997E+02  0.73497536997E+02  0.00000000000E+00 0.  1.
          2   -1    0    0  502    0  0.00000000000E+00 -0.00000000000E+00 -0.17458140781E+03  0.17458140781E+03  0.00000000000E+00 0. -1.
         25    1    1    2    0    0  0.37950843334E+02 -0.91167066441E+01 -0.23009173481E+02  0.13295789903E+03  0.12500000000E+03 0.  0.
          2    1    1    2  502    0 -0.47834978836E+02 -0.21040518199E+02 -0.55114246489E+02  0.75950436288E+02  0.00000000000E+00 0. -1.
         -1    1    1    2    0  501  0.98841355026E+01  0.30157224843E+02 -0.22960450841E+02  0.39170609488E+02  0.00000000000E+00 0.  1.
<mgrwt>
<rscale>  0 0.39444863E+02</rscale>
<asrwt>0</asrwt>
<pdfrwt beam="2">  1        2 0.26858678E-01 0.49026725E+02</pdfrwt>
<pdfrwt beam="1">  1       -1 0.11307314E-01 0.31735695E+02</pdfrwt>
<totfact> 0.94089154E+03</totfact>
</mgrwt>
</event>
<event>
 5    1  0.7156190E-003  0.7322892E+02  0.7546771E-02  0.1396889E+00
         -1   -1    0    0    0  501 -0.00000000000E+00  0.00000000000E+00  0.34996681474E+03  0.34996681474E+03  0.00000000000E+00 0.  1.
          2   -1    0    0  502    0  0.00000000000E+00 -0.00000000000E+00 -0.15404304259E+04  0.15404304259E+04  0.00000000000E+00 0. -1.
         25    1    1    2    0    0 -0.39329042095E+02  0.66290133747E+02 -0.23845543965E+03  0.28004848166E+03  0.12500000000E+03 0.  0.
          2    1    1    2  502    0 -0.97176489174E+01 -0.73198088299E+02 -0.12782436754E+04  0.12803746664E+04  0.00000000000E+00 0. -1.
         -1    1    1    2    0  501  0.49046691013E+02  0.69079545512E+01  0.32623550388E+03  0.32997409251E+03  0.00000000000E+00 0.  1.
<mgrwt>
<rscale>  0 0.60225285E+02</rscale>
<asrwt>0</asrwt>
<pdfrwt beam="2">  1        2 0.23698930E+00 0.73228916E+02</pdfrwt>
<pdfrwt beam="1">  1       -1 0.53841049E-01 0.49530776E+02</pdfrwt>
<totfact> 0.60659614E+01</totfact>
</mgrwt>
</event>
<event>
 5    1  0.7156190E-003  0.4892738E+02  0.7546771E-02  0.1528324E+00
         -1   -1    0    0    0  501 -0.00000000000E+00  0.00000000000E+00  0.10262131924E+03  0.10262131924E+03  0.00000000000E+00 0.  1.
          1   -1    0    0  502    0  0.00000000000E+00 -0.00000000000E+00 -0.57003099608E+03  0.57003099608E+03  0.00000000000E+00 0. -1.
         25    1    1    2    0    0  0.16176779414E+02 -0.58729490842E+02 -0.76955243726E+02  0.15892750179E+03  0.12500000000E+03 0.  0.
          1    1    1    2  502    0  0.10177832974E+02  0.47679240850E+02 -0.44738004465E+03  0.45002866869E+03  0.00000000000E+00 0. -1.
         -1    1    1    2    0  501 -0.26354612388E+02  0.11050249992E+02  0.56925611534E+02  0.63696144840E+02  0.00000000000E+00 0.  1.
<mgrwt>
<rscale>  0 0.37392812E+02</rscale>
<asrwt>0</asrwt>
<pdfrwt beam="2">  1        1 0.87697077E-01 0.48927383E+02</pdfrwt>
<pdfrwt beam="1">  1       -1 0.15787895E-01 0.28577502E+02</pdfrwt>
<totfact> 0.10544782E+03</totfact>
</mgrwt>
</event>
<event>
 5    1  0.7156190E-003  0.4025523E+02  0.7546771E-02  0.1585104E+00
          1   -1    0    0  502    0  0.00000000000E+00  0.00000000000E+00  0.33391431677E+03  0.33391431677E+03  0.00000000000E+00 0. -1.
         -2   -1    0    0    0  501 -0.00000000000E+00 -0.00000000000E+00 -0.37591071651E+02  0.37591071651E+02  0.00000000000E+00 0.  1.
         25    1    1    2    0    0 -0.87374882393E+01  0.42553966488E+02  0.21890266913E+03  0.25579398413E+03  0.12500000000E+03 0.  0.
          1    1    1    2  502    0 -0.19887076868E+02 -0.13779891944E+02  0.70503085698E+02  0.74539025626E+02  0.00000000000E+00 0. -1.
         -2    1    1    2    0  501  0.28624565107E+02 -0.28774074544E+02  0.69174902959E+01  0.41172378671E+02  0.00000000000E+00 0.  1.
<mgrwt>
<rscale>  0 0.31208355E+02</rscale>
<asrwt>0</asrwt>
<pdfrwt beam="1">  1        1 0.51371431E-01 0.24194653E+02</pdfrwt>
<pdfrwt beam="2">  1       -2 0.57832420E-02 0.40255232E+02</pdfrwt>
<totfact> 0.88692984E+03</totfact>
</mgrwt>
</event>
<event>
 5    1  0.7156190E-003  0.1735918E+03  0.7546771E-02  0.1331755E+00
          2   -1    0    0  502    0  0.00000000000E+00  0.00000000000E+00  0.10086073703E+04  0.10086073703E+04  0.00000000000E+00 0. -1.
         -2   -1    0    0    0  501 -0.00000000000E+00 -0.00000000000E+00 -0.67603992109E+02  0.67603992109E+02  0.00000000000E+00 0.  1.
         25    1    1    2    0    0 -0.14469780998E+03 -0.17932471423E+02  0.20841098518E+03  0.28340636635E+03  0.12500000000E+03 0.  0.
          2    1    1    2  502    0  0.18035714928E+03  0.22889254562E+02  0.73458457414E+03  0.75674772272E+03  0.00000000000E+00 0. -1.
         -2    1    1    2    0  501 -0.35659339307E+02 -0.49567831390E+01 -0.19921810829E+01  0.36057273390E+02  0.00000000000E+00 0.  1.
<mgrwt>
<rscale>  0 0.79054962E+02</rscale>
<asrwt>0</asrwt>
<pdfrwt beam="1">  1        2 0.15517035E+00 0.17359182E+03</pdfrwt>
<pdfrwt beam="2">  1       -2 0.10400615E-01 0.36002197E+02</pdfrwt>
<totfact> 0.14446560E+03</totfact>
</mgrwt>
</event>
<event>
 5    1  0.7156190E-003  0.5929011E+02  0.7546771E-02  0.1526685E+00
          2   -1    0    0  502    0  0.00000000000E+00  0.00000000000E+00  0.15067177193E+04  0.15067177193E+04  0.00000000000E+00 0. -1.
         -1   -1    0    0    0  501 -0.00000000000E+00 -0.00000000000E+00 -0.68168184559E+03  0.68168184559E+03  0.00000000000E+00 0.  1.
         25    1    1    2    0    0  0.68197157142E+02 -0.44359048103E+02  0.63824020809E+02  0.16222540807E+03  0.12500000000E+03 0.  0.
          2    1    1    2  502    0 -0.52976211925E+02  0.26010613152E+02  0.13928432495E+04  0.13940930201E+04  0.00000000000E+00 0. -1.
         -1    1    1    2    0  501 -0.15220945218E+02  0.18348434951E+02 -0.63163139659E+03  0.63208113672E+03  0.00000000000E+00 0.  1.
<mgrwt>
<rscale>  0 0.37596170E+02</rscale>
<asrwt>0</asrwt>
<pdfrwt beam="1">  1        2 0.23180273E+00 0.59290108E+02</pdfrwt>
<pdfrwt beam="2">  1       -1 0.10487413E+00 0.23839929E+02</pdfrwt>
<totfact> 0.17857664E+01</totfact>
</mgrwt>
</event>
<event>
 5    1  0.7156190E-003  0.8986061E+02  0.7546771E-02  0.1434689E+00
          2   -1    0    0  502    0  0.00000000000E+00  0.00000000000E+00  0.26347150277E+02  0.26347150277E+02  0.00000000000E+00 0. -1.
         -1   -1    0    0    0  501 -0.00000000000E+00 -0.00000000000E+00 -0.10233596824E+04  0.10233596824E+04  0.00000000000E+00 0.  1.
         25    1    1    2    0    0 -0.30093498241E+02 -0.97217718505E+02 -0.30255219106E+03  0.34281151051E+03  0.12500000000E+03 0.  0.
          2    1    1    2  502    0  0.51403398404E+01  0.80338193598E+02 -0.28003595203E+03  0.29137738909E+03  0.00000000000E+00 0. -1.
         -1    1    1    2    0  501  0.24953158401E+02  0.16879524907E+02 -0.41442438906E+03  0.41551793309E+03  0.00000000000E+00 0.  1.
<mgrwt>
<rscale>  0 0.52030227E+02</rscale>
<asrwt>0</asrwt>
<pdfrwt beam="1">  1        2 0.40534086E-02 0.89860606E+02</pdfrwt>
<pdfrwt beam="2">  1       -1 0.15743992E+00 0.30126043E+02</pdfrwt>
<totfact> 0.83280756E+02</totfact>
</mgrwt>
</event>
<event>
 5    1  0.7156190E-003  0.7495032E+02  0.7546771E-02  0.1391429E+00
          1   -1    0    0  502    0  0.00000000000E+00  0.00000000000E+00  0.22469366668E+04  0.22469366668E+04  0.00000000000E+00 0. -1.
         -1   -1    0    0    0  501 -0.00000000000E+00 -0.00000000000E+00 -0.33685220547E+02  0.33685220547E+02  0.00000000000E+00 0.  1.
         25    1    1    2    0    0  0.37607043041E+02  0.10374803588E+02  0.28408923275E+03  0.31281563005E+03  0.12500000000E+03 0.  0.
          1    1    1    2  502    0  0.38334628194E+02  0.32950909291E+02  0.18474305598E+04  0.18481220142E+04  0.00000000000E+00 0. -1.
         -1    1    1    2    0  501 -0.75941671235E+02 -0.43325712879E+02  0.81731653705E+02  0.11968424309E+03  0.00000000000E+00 0.  1.
<mgrwt>
<rscale>  0 0.61552752E+02</rscale>
<asrwt>0</asrwt>
<pdfrwt beam="1">  1        1 0.34568245E+00 0.50550036E+02</pdfrwt>
<pdfrwt beam="2">  1       -1 0.51823434E-02 0.74950319E+02</pdfrwt>
<totfact> 0.43574866E+02</totfact>
</mgrwt>
</event>
<event>
 5    1  0.7156190E-003  0.1086623E+03  0.7546771E-02  0.1360963E+00
          1   -1    0    0  502    0  0.00000000000E+00  0.00000000000E+00  0.22478060211E+04  0.22478060211E+04  0.00000000000E+00 0. -1.
          1   -1    0    0  501    0 -0.00000000000E+00 -0.00000000000E+00 -0.32086609189E+03  0.32086609189E+03  0.00000000000E+00 0. -1.
         25    1    1    2    0    0  0.69262588701E+02  0.12093838250E+03  0.31838471371E+03  0.36934702446E+03  0.12500000000E+03 0.  0.
          1    1    1    2  501    0 -0.27706220951E+02 -0.10429414811E+03 -0.28525589696E+03  0.30498496809E+03  0.00000000000E+00 0. -1.
          1    1    1    2  502    0 -0.41556367750E+02 -0.16644234383E+02  0.18938111124E+04  0.18943401204E+04  0.00000000000E+00 0. -1.
<mgrwt>
<rscale>  0 0.69744803E+02</rscale>
<asrwt>0</asrwt>
<pdfrwt beam="1">  1        1 0.34581630E+00 0.44765637E+02</pdfrwt>
<pdfrwt beam="2">  1        1 0.49364016E-01 0.10866231E+03</pdfrwt>
<totfact> 0.28837592E+01</totfact>
</mgrwt>
</event>
<event>
 5    1  0.7156190E-003  0.9369052E+02  0.7546771E-02  0.1332199E+00
          2   -1    0    0  502    0  0.00000000000E+00  0.00000000000E+00  0.24948913683E+04  0.24948913683E+04  0.00000000000E+00 0. -1.
          2   -1    0    0  501    0 -0.00000000000E+00 -0.00000000000E+00 -0.43153730471E+04  0.43153730471E+04  0.00000000000E+00 0. -1.
         25    1    1    2    0    0  0.47589443106E+02  0.10561329085E+03  0.32947634848E+03  0.37094283456E+03  0.12500000000E+03 0.  0.
          2    1    1    2  501    0 -0.65023880926E+02 -0.13675106394E+02 -0.42933618746E+04  0.42938760229E+04  0.00000000000E+00 0. -1.
          2    1    1    2  502    0  0.17434437819E+02 -0.91938184457E+02  0.21434038473E+04  0.21454455580E+04  0.00000000000E+00 0. -1.
<mgrwt>
<rscale>  0 0.78901143E+02</rscale>
<asrwt>0</asrwt>
<pdfrwt beam="1">  1        2 0.38382945E+00 0.93690519E+02</pdfrwt>
<pdfrwt beam="2">  1        2 0.66390353E+00 0.66446321E+02</pdfrwt>
<totfact> 0.24896655E-01</totfact>
</mgrwt>
</event>
<event>
 5    1  0.7156190E-003  0.2011375E+03  0.7546771E-02  0.1198807E+00
         -1   -1    0    0    0  502 -0.00000000000E+00  0.00000000000E+00  0.95795517736E+03  0.95795517736E+03  0.00000000000E+00 0.  1.
         -2   -1    0    0    0  501  0.00000000000E+00 -0.00000000000E+00 -0.21813533665E+03  0.21813533665E+03  0.00000000000E+00 0.  1.
         25    1    1    2    0    0  0.14637574606E+02 -0.10067381291E+03  0.43740013922E+03  0.46614735544E+03  0.12500000000E+03 0.  0.
         -2    1    1    2    0  501 -0.35072480030E+01  0.21403664499E+03 -0.13822489066E+03  0.25481386655E+03  0.00000000000E+00 0.  1.
         -1    1    1    2    0  502 -0.11130326603E+02 -0.11336283208E+03  0.44064459215E+03  0.45512929203E+03  0.00000000000E+00 0.  1.
<mgrwt>
<rscale>  0 0.15136430E+03</rscale>
<asrwt>0</asrwt>
<pdfrwt beam="2">  1       -2 0.33559283E-01 0.20113747E+03</pdfrwt>
<pdfrwt beam="1">  1       -1 0.14737772E+00 0.11390793E+03</pdfrwt>
<totfact> 0.25910069E+01</totfact>
</mgrwt>
</event>
<event>
 5    1  0.7156190E-003  0.8615823E+02  0.7546771E-02  0.1344231E+00
          2   -1    0    0  502    0  0.00000000000E+00  0.00000000000E+00  0.18872681635E+03  0.18872681635E+03  0.00000000000E+00 0. -1.
          2   -1    0    0  501    0 -0.00000000000E+00 -0.00000000000E+00 -0.79233520126E+03  0.79233520126E+03  0.00000000000E+00 0. -1.
         25    1    1    2    0    0  0.53599659720E+02 -0.63033173245E+02 -0.53339446155E+03  0.55405844102E+03  0.12500000000E+03 0.  0.
          2    1    1    2  501    0 -0.51493013573E+00  0.10068974770E+03 -0.23184192480E+03  0.25276346362E+03  0.00000000000E+00 0. -1.
          2    1    1    2  502    0 -0.53084729585E+02 -0.37656574459E+02  0.16162800144E+03  0.17424011296E+03  0.00000000000E+00 0. -1.
<mgrwt>
<rscale>  0 0.74883739E+02</rscale>
<asrwt>0</asrwt>
<pdfrwt beam="1">  1        2 0.29034895E-01 0.65084607E+02</pdfrwt>
<pdfrwt beam="2">  1        2 0.12189772E+00 0.86158228E+02</pdfrwt>
<totfact> 0.10219213E+03</totfact>
</mgrwt>
</event>
<event>
 5    1  0.7156190E-003  0.5679122E+02  0.7546771E-02  0.1505970E+00
          1   -1    0    0  502    0  0.00000000000E+00  0.00000000000E+00  0.11069681640E+04  0.11069681640E+04  0.00000000000E+00 0. -1.
         -1   -1    0    0    0  501 -0.00000000000E+00 -0.00000000000E+00 -0.57202284094E+03  0.57202284094E+03  0.00000000000E+00 0.  1.
         25    1    1    2    0    0 -0.31103918229E+02  0.47650951806E+02 -0.38478430158E+03  0.40856092041E+03  0.12500000000E+03 0.  0.
          1    1    1    2  502    0  0.50283088499E+02 -0.26426285113E+02  0.10931707903E+04  0.10946456570E+04  0.00000000000E+00 0. -1.
         -1    1    1    2    0  501 -0.19179170270E+02 -0.21224666693E+02 -0.17344116563E+03  0.17578442759E+03  0.00000000000E+00 0.  1.
<mgrwt>
<rscale>  0 0.40306244E+02</rscale>
<asrwt>0</asrwt>
<pdfrwt beam="1">  1        1 0.17030279E+00 0.56791222E+02</pdfrwt>
<pdfrwt beam="2">  1       -1 0.88003514E-01 0.28606416E+02</pdfrwt>
<totfact> 0.21827847E+01</totfact>
</mgrwt>
</event>
<event>
 5    1  0.7156190E-003  0.9233837E+02  0.7546771E-02  0.1442565E+00
         -3   -1    0    0    0  502 -0.00000000000E+00  0.00000000000E+00  0.62065002365E+03  0.62065002365E+03  0.00000000000E+00 0.  1.
         -1   -1    0    0    0  501  0.00000000000E+00 -0.00000000000E+00 -0.41660636628E+03  0.41660636628E+03  0.00000000000E+00 0.  1.
         25    1    1    2    0    0  0.56471750936E+02 -0.64126584086E+02  0.28449047840E+02  0.15406370683E+03  0.12500000000E+03 0.  0.
         -1    1    1    2    0  501 -0.79337965311E+02  0.48601429170E+02 -0.34731086007E+03  0.35955729054E+03  0.00000000000E+00 0.  1.
         -3    1    1    2    0  502  0.22866214375E+02  0.15525154916E+02  0.52290546960E+03  0.52363539255E+03  0.00000000000E+00 0.  1.
<mgrwt>
<rscale>  0 0.50518380E+02</rscale>
<asrwt>0</asrwt>
<pdfrwt beam="2">  1       -1 0.64093287E-01 0.92338373E+02</pdfrwt>
<pdfrwt beam="1">  1       -3 0.95484619E-01 0.27638636E+02</pdfrwt>
<totfact> 0.11330684E+01</totfact>
</mgrwt>
</event>
<event>
 5    1  0.7156190E-003  0.5486377E+02  0.7546771E-02  0.1459918E+00
          1   -1    0    0  502    0  0.00000000000E+00  0.00000000000E+00  0.10974794636E+04  0.10974794636E+04  0.00000000000E+00 0. -1.
         -3   -1    0    0    0  501 -0.00000000000E+00 -0.00000000000E+00 -0.98413499075E+03  0.98413499075E+03  0.00000000000E+00 0.  1.
         25    1    1    2    0    0 -0.26950036620E+02  0.36339896317E+02 -0.23484322221E+03  0.26985779877E+03  0.12500000000E+03 0.  0.
          1    1    1    2  502    0 -0.99817101924E+01 -0.54015693735E+02  0.10787000776E+04  0.10800977674E+04  0.00000000000E+00 0. -1.
         -3    1    1    2    0  501  0.36931746813E+02  0.17675797418E+02 -0.73051238249E+03  0.73165888822E+03  0.00000000000E+00 0.  1.
<mgrwt>
<rscale>  0 0.47395425E+02</rscale>
<asrwt>0</asrwt>
<pdfrwt beam="1">  1        1 0.16884300E+00 0.54863766E+02</pdfrwt>
<pdfrwt beam="2">  1       -3 0.15140538E+00 0.40943714E+02</pdfrwt>
<totfact> 0.27905637E+00</totfact>
</mgrwt>
</event>
<event>
 5    1  0.7156190E-003  0.1017762E+03  0.7546771E-02  0.1329337E+00
          1   -1    0    0  502    0  0.00000000000E+00  0.00000000000E+00  0.59506201693E+03  0.59506201693E+03  0.00000000000E+00 0. -1.
          1   -1    0    0  501    0 -0.00000000000E+00 -0.00000000000E+00 -0.12787887722E+03  0.12787887722E+03  0.00000000000E+00 0. -1.
         25    1    1    2    0    0 -0.48065717958E+02  0.63050368735E+02  0.71891079812E+02  0.16455694940E+03  0.12500000000E+03 0.  0.
          1    1    1    2  501    0  0.45215923220E+02  0.43473950791E+02 -0.62383985240E+02  0.88465957998E+02  0.00000000000E+00 0. -1.
          1    1    1    2  502    0  0.28497947374E+01 -0.10652431953E+03  0.45767604513E+03  0.46991798675E+03  0.00000000000E+00 0. -1.
<mgrwt>
<rscale>  0 0.79899571E+02</rscale>
<asrwt>0</asrwt>
<pdfrwt beam="1">  1        1 0.91548001E-01 0.10177617E+03</pdfrwt>
<pdfrwt beam="2">  1        1 0.19673674E-01 0.62725307E+02</pdfrwt>
<totfact> 0.10891354E+03</totfact>
</mgrwt>
</event>
<event>
 5    1  0.7156190E-003  0.8702007E+02  0.7546771E-02  0.1318057E+00
          1   -1    0    0  502    0 -0.00000000000E+00  0.00000000000E+00  0.16150327718E+04  0.16150327718E+04  0.00000000000E+00 0. -1.
          2   -1    0    0  501    0  0.00000000000E+00 -0.00000000000E+00 -0.43351041590E+03  0.43351041590E+03  0.00000000000E+00 0.  1.
         25    1    1    2    0    0 -0.22114455234E+02  0.16393834504E+03  0.78370802926E+02  0.22165697114E+03  0.12500000000E+03 0.  0.
          2    1    1    2  501    0  0.82794343898E+01 -0.84033927024E+02 -0.35579995624E+03  0.36568272968E+03  0.00000000000E+00 0.  1.
          1    1    1    2  502    0  0.13835020844E+02 -0.79904418015E+02  0.14589515092E+04  0.14612034869E+04  0.00000000000E+00 0. -1.
<mgrwt>
<rscale>  0 0.84004436E+02</rscale>
<asrwt>0</asrwt>
<pdfrwt beam="2">  1        2 0.66693911E-01 0.87020075E+02</pdfrwt>
<pdfrwt beam="1">  1        1 0.24846658E+00 0.81093303E+02</pdfrwt>
<totfact> 0.68464952E+01</totfact>
</mgrwt>
</event>
<event>
 5    1  0.7156190E-003  0.9216041E+02  0.7546771E-02  0.1312426E+00
          1   -1    0    0  502    0  0.00000000000E+00  0.00000000000E+00  0.55329718562E+03  0.55329718562E+03  0.00000000000E+00 0. -1.
          1   -1    0    0  501    0 -0.00000000000E+00 -0.00000000000E+00 -0.45300400818E+03  0.45300400818E+03  0.00000000000E+00 0. -1.
         25    1    1    2    0    0  0.74498420676E+02  0.41264705916E+00 -0.19425242248E+03  0.24271215174E+03  0.12500000000E+03 0.  0.
          1    1    1    2  501    0 -0.43806300948E+02  0.86486919535E+02 -0.22023215144E+03  0.24062663980E+03  0.00000000000E+00 0. -1.
          1    1    1    2  502    0 -0.30692119728E+02 -0.86899566594E+02  0.51477775136E+03  0.52296240227E+03  0.00000000000E+00 0. -1.
<mgrwt>
<rscale>  0 0.86160079E+02</rscale>
<asrwt>0</asrwt>
<pdfrwt beam="1">  1        1 0.85122645E-01 0.92160408E+02</pdfrwt>
<pdfrwt beam="2">  1        1 0.69692924E-01 0.80550416E+02</pdfrwt>
<totfact> 0.25701375E+02</totfact>
</mgrwt>
</event>
<event>
 5    1  0.7156190E-003  0.5974122E+02  0.7546771E-02  0.1486333E+00
         -1   -1    0    0    0  501 -0.00000000000E+00  0.00000000000E+00  0.17655156971E+02  0.17655156971E+02  0.00000000000E+00 0.  1.
          2   -1    0    0  502    0  0.00000000000E+00 -0.00000000000E+00 -0.13955766473E+04  0.13955766473E+04  0.00000000000E+00 0. -1.
         25    1    1    2    0    0  0.41621780864E+02  0.65504493791E+02 -0.35320465528E+03  0.38262480298E+03  0.12500000000E+03 0.  0.
          2    1    1    2  502    0 -0.11452894618E+02 -0.57770060987E+02 -0.90470119574E+03  0.90661612732E+03  0.00000000000E+00 0. -1.
         -1    1    1    2    0  501 -0.30168886245E+02 -0.77344328041E+01 -0.12001563934E+03  0.12399087399E+03  0.00000000000E+00 0.  1.
<mgrwt>
<rscale>  0 0.43134830E+02</rscale>
<asrwt>0</asrwt>
<pdfrwt beam="2">  1        2 0.21470408E+00 0.59741219E+02</pdfrwt>
<pdfrwt beam="1">  1       -1 0.27161783E-02 0.31144552E+02</pdfrwt>
<totfact> 0.66097970E+03</totfact>
</mgrwt>
</event>
<event>
 5    1  0.7156190E-003  0.8071997E+02  0.7546771E-02  0.1349734E+00
         -2   -1    0    0    0  501 -0.00000000000E+00  0.00000000000E+00  0.30642738060E+03  0.30642738060E+03  0.00000000000E+00 0.  1.
          2   -1    0    0  502    0  0.00000000000E+00 -0.00000000000E+00 -0.43799280553E+03  0.43799280553E+03  0.00000000000E+00 0. -1.
         25    1    1    2    0    0 -0.62278757937E+02  0.20935827743E+02  0.22264465374E+03  0.26365241211E+03  0.12500000000E+03 0.  0.
          2    1    1    2  502    0  0.40472301933E+02  0.69840582799E+02 -0.37627588650E+03  0.38483666274E+03  0.00000000000E+00 0. -1.
         -2    1    1    2    0  501  0.21806456003E+02 -0.90776410542E+02  0.22065807836E+02  0.95931111272E+02  0.00000000000E+00 0.  1.
<mgrwt>
<rscale>  0 0.73138683E+02</rscale>
<asrwt>0</asrwt>
<pdfrwt beam="2">  1        2 0.67383508E-01 0.80719974E+02</pdfrwt>
<pdfrwt beam="1">  1       -2 0.47142674E-01 0.66269434E+02</pdfrwt>
<totfact> 0.31728815E+02</totfact>
</mgrwt>
</event>
<event>
 5    1  0.7156190E-003  0.1421576E+03  0.7546771E-02  0.1377036E+00
          1   -1    0    0  502    0 -0.00000000000E+00  0.00000000000E+00  0.10405187513E+03  0.10405187513E+03  0.00000000000E+00 0. -1.
          2   -1    0    0  501    0  0.00000000000E+00 -0.00000000000E+00 -0.26160438431E+04  0.26160438431E+04  0.00000000000E+00 0. -1.
         25    1    1    2    0    0 -0.93083143724E+02 -0.90926415462E+02 -0.24722659003E+03  0.30606873655E+03  0.12500000000E+03 0.  0.
          2    1    1    2  501    0  0.12011268831E+03  0.78028845238E+02 -0.23341052128E+04  0.23384958206E+04  0.00000000000E+00 0. -1.
          1    1    1    2  502    0 -0.27029544590E+02  0.12897570224E+02  0.69339834845E+02  0.75531161084E+02  0.00000000000E+00 0. -1.
<mgrwt>
<rscale>  0 0.65249370E+02</rscale>
<asrwt>0</asrwt>
<pdfrwt beam="2">  1        2 0.40246826E+00 0.14215760E+03</pdfrwt>
<pdfrwt beam="1">  1        1 0.16007982E-01 0.29949017E+02</pdfrwt>
<totfact> 0.15830083E+02</totfact>
</mgrwt>
</event>
<event>
 5    1  0.7156190E-003  0.5143642E+02  0.7546771E-02  0.1461656E+00
          1   -1    0    0  502    0  0.00000000000E+00  0.00000000000E+00  0.88150866834E+03  0.88150866834E+03  0.00000000000E+00 0. -1.
          1   -1    0    0  501    0 -0.00000000000E+00 -0.00000000000E+00 -0.94639503723E+03  0.94639503723E+03  0.00000000000E+00 0. -1.
         25    1    1    2    0    0  0.20868791622E+01  0.93343484592E+01  0.77588008855E+02  0.14743264307E+03  0.12500000000E+03 0.  0.
          1    1    1    2  501    0  0.18008984977E+02  0.39184341463E+02 -0.91006494012E+03  0.91108612732E+03  0.00000000000E+00 0. -1.
          1    1    1    2  502    0 -0.20095864139E+02 -0.48518689923E+02  0.76759056238E+03  0.76938493518E+03  0.00000000000E+00 0. -1.
<mgrwt>
<rscale>  0 0.47097537E+02</rscale>
<asrwt>0</asrwt>
<pdfrwt beam="1">  1        1 0.13561672E+00 0.51436419E+02</pdfrwt>
<pdfrwt beam="2">  1        1 0.14559924E+00 0.43124658E+02</pdfrwt>
<totfact> 0.51418545E+01</totfact>
</mgrwt>
</event>
<event>
 5    1  0.7156190E-003  0.6036169E+02  0.7546771E-02  0.1452281E+00
         -2   -1    0    0    0  501 -0.00000000000E+00  0.00000000000E+00  0.14062906970E+03  0.14062906970E+03  0.00000000000E+00 0.  1.
          1   -1    0    0  502    0  0.00000000000E+00 -0.00000000000E+00 -0.19325293286E+03  0.19325293286E+03  0.00000000000E+00 0. -1.
         25    1    1    2    0    0  0.91428398577E+02 -0.15777235907E+02 -0.11715418813E+03  0.19482858372E+03  0.12500000000E+03 0.  0.
          1    1    1    2  502    0 -0.33162509343E+02  0.21180728681E+02 -0.13427760119E+02  0.41577398129E+02  0.00000000000E+00 0. -1.
         -2    1    1    2    0  501 -0.58265889235E+02 -0.54034927739E+01  0.77958085086E+02  0.97476020706E+02  0.00000000000E+00 0.  1.
<mgrwt>
<rscale>  0 0.48735985E+02</rscale>
<asrwt>0</asrwt>
<pdfrwt beam="2">  1        1 0.29731220E-01 0.39349400E+02</pdfrwt>
<pdfrwt beam="1">  1       -2 0.21635242E-01 0.60361688E+02</pdfrwt>
<totfact> 0.22607569E+03</totfact>
</mgrwt>
</event>
<event>
 5    1  0.7156190E-003  0.1236160E+03  0.7546771E-02  0.1362024E+00
          2   -1    0    0  501    0  0.00000000000E+00  0.00000000000E+00  0.10898730186E+03  0.10898730186E+03  0.00000000000E+00 0. -1.
          1   -1    0    0  502    0 -0.00000000000E+00 -0.00000000000E+00 -0.81199569471E+03  0.81199569471E+03  0.00000000000E+00 0. -1.
         25    1    1    2    0    0  0.14904898610E+03  0.48355813608E+02 -0.13869328378E+03  0.24375133216E+03  0.12500000000E+03 0.  0.
          2    1    1    2  501    0 -0.31886599684E+02 -0.22458655097E+02  0.43071724685E+02  0.58106108935E+02  0.00000000000E+00 0. -1.
          1    1    1    2  502    0 -0.11716238641E+03 -0.25897158511E+02 -0.60738683377E+03  0.61912555547E+03  0.00000000000E+00 0. -1.
<mgrwt>
<rscale>  0 0.69435275E+02</rscale>
<asrwt>0</asrwt>
<pdfrwt beam="1">  1        2 0.16767276E-01 0.39001877E+02</pdfrwt>
<pdfrwt beam="2">  1        1 0.12492242E+00 0.12361603E+03</pdfrwt>
<totfact> 0.99639086E+02</totfact>
</mgrwt>
</event>
<event>
 5    1  0.7156190E-003  0.9591951E+02  0.7546771E-02  0.1312500E+00
          1   -1    0    0  502    0  0.00000000000E+00  0.00000000000E+00  0.93166281357E+02  0.93166281357E+02  0.00000000000E+00 0. -1.
          1   -1    0    0  501    0 -0.00000000000E+00 -0.00000000000E+00 -0.76068435678E+03  0.76068435678E+03  0.00000000000E+00 0. -1.
         25    1    1    2    0    0  0.27425191958E+02 -0.63918942831E+02 -0.66866834911E+02  0.15790486382E+03  0.12500000000E+03 0.  0.
          1    1    1    2  501    0 -0.53786089088E+02 -0.55577556733E+02 -0.56246337038E+03  0.56775597858E+03  0.00000000000E+00 0. -1.
          1    1    1    2  502    0  0.26360897130E+02  0.11949649956E+03 -0.38187870125E+02  0.12818979573E+03  0.00000000000E+00 0. -1.
<mgrwt>
<rscale>  0 0.86131417E+02</rscale>
<asrwt>0</asrwt>
<pdfrwt beam="1">  1        1 0.14333275E-01 0.95919507E+02</pdfrwt>
<pdfrwt beam="2">  1        1 0.11702836E+00 0.77342150E+02</pdfrwt>
<totfact> 0.11901279E+03</totfact>
</mgrwt>
</event>
<event>
 5    1  0.7156190E-003  0.1608226E+03  0.7546771E-02  0.1315910E+00
          1   -1    0    0  501    0  0.00000000000E+00  0.00000000000E+00  0.82634938059E+02  0.82634938059E+02  0.00000000000E+00 0. -1.
          1   -1    0    0  502    0 -0.00000000000E+00 -0.00000000000E+00 -0.20526723160E+04  0.20526723160E+04  0.00000000000E+00 0. -1.
         25    1    1    2    0    0  0.85879245464E+02  0.12793786878E+03 -0.11559622687E+04  0.11728670469E+04  0.12500000000E+03 0.  0.
          1    1    1    2  501    0  0.41871918997E+02 -0.15741008202E+02  0.58393785979E+02  0.73558624108E+02  0.00000000000E+00 0. -1.
          1    1    1    2  502    0 -0.12775116446E+03 -0.11219686058E+03 -0.87246889523E+03  0.88888158305E+03  0.00000000000E+00 0. -1.
<mgrwt>
<rscale>  0 0.84817865E+02</rscale>
<asrwt>0</asrwt>
<pdfrwt beam="1">  1        1 0.12713068E-01 0.44732951E+02</pdfrwt>
<pdfrwt beam="2">  1        1 0.31579572E+00 0.16082261E+03</pdfrwt>
<totfact> 0.16723290E+02</totfact>
</mgrwt>
</event>
<event>
 5    1  0.7156190E-003  0.4983038E+02  0.7546771E-02  0.1512716E+00
          1   -1    0    0  502    0  0.00000000000E+00  0.00000000000E+00  0.20725004964E+03  0.20725004964E+03  0.00000000000E+00 0. -1.
         -2   -1    0    0    0  501 -0.00000000000E+00 -0.00000000000E+00 -0.10174240802E+03  0.10174240802E+03  0.00000000000E+00 0.  1.
         25    1    1    2    0    0 -0.43722221042E+02 -0.18937475128E+02 -0.37764930333E+02  0.13900162064E+03  0.12500000000E+03 0.  0.
          1    1    1    2  502    0  0.25010274691E+02  0.43833446989E+02  0.12267954623E+03  0.13265427237E+03  0.00000000000E+00 0. -1.
         -2    1    1    2    0  501  0.18711946351E+02 -0.24895971861E+02  0.20593025729E+02  0.37336564650E+02  0.00000000000E+00 0.  1.
<mgrwt>
<rscale>  0 0.39394359E+02</rscale>
<asrwt>0</asrwt>
<pdfrwt beam="1">  1        1 0.31884623E-01 0.49830383E+02</pdfrwt>
<pdfrwt beam="2">  1       -2 0.15652678E-01 0.31143962E+02</pdfrwt>
<totfact> 0.34091729E+03</totfact>
</mgrwt>
</event>
<event>
 5    1  0.7156190E-003  0.2987930E+02  0.7546771E-02  0.1645867E+00
         -3   -1    0    0    0  502 -0.00000000000E+00  0.00000000000E+00  0.30798996688E+03  0.30798996688E+03  0.00000000000E+00 0.  1.
         -2   -1    0    0    0  501  0.00000000000E+00 -0.00000000000E+00 -0.29634280544E+03  0.29634280544E+03  0.00000000000E+00 0. -1.
         25    1    1    2    0    0 -0.18086970749E+01  0.95431568725E+01  0.54853507495E+02  0.13685119843E+03  0.12500000000E+03 0.  0.
         -2    1    1    2    0  501 -0.12210679755E+02 -0.27492392622E+02 -0.25384196240E+03  0.25561821967E+03  0.00000000000E+00 0. -1.
         -3    1    1    2    0  502  0.14019376830E+02  0.17949235749E+02  0.21063561634E+03  0.21186335422E+03  0.00000000000E+00 0.  1.
<mgrwt>
<rscale>  0 0.26086632E+02</rscale>
<asrwt>0</asrwt>
<pdfrwt beam="2">  1       -2 0.45591201E-01 0.29879296E+02</pdfrwt>
<pdfrwt beam="1">  1       -3 0.47383072E-01 0.22775381E+02</pdfrwt>
<totfact> 0.69801971E+01</totfact>
</mgrwt>
</event>
<event>
 5    1  0.7156190E-003  0.5689795E+02  0.7546771E-02  0.1481647E+00
          3   -1    0    0  502    0 -0.00000000000E+00  0.00000000000E+00  0.89039480287E+03  0.89039480287E+03  0.00000000000E+00 0. -1.
          2   -1    0    0  501    0  0.00000000000E+00 -0.00000000000E+00 -0.26750723942E+04  0.26750723942E+04  0.00000000000E+00 0. -1.
         25    1    1    2    0    0  0.63623412798E+02  0.63291210428E+02 -0.39846345535E+03  0.42714381796E+03  0.12500000000E+03 0.  0.
          2    1    1    2  501    0 -0.37924805533E+02 -0.41343625065E+02 -0.22615948171E+04  0.22622905876E+04  0.00000000000E+00 0. -1.
          3    1    1    2  502    0 -0.25698607265E+02 -0.21947585363E+02  0.87538068110E+03  0.87603279149E+03  0.00000000000E+00 0. -1.
<mgrwt>
<rscale>  0 0.43850624E+02</rscale>
<asrwt>0</asrwt>
<pdfrwt beam="2">  1        2 0.41154960E+00 0.56897954E+02</pdfrwt>
<pdfrwt beam="1">  1        3 0.13698381E+00 0.33795191E+02</pdfrwt>
<totfact> 0.10628251E+00</totfact>
</mgrwt>
</event>
<event>
 5    1  0.7156190E-003  0.6266959E+02  0.7546771E-02  0.1525689E+00
          2   -1    0    0  501    0  0.00000000000E+00  0.00000000000E+00  0.38049703749E+03  0.38049703749E+03  0.00000000000E+00 0. -1.
          1   -1    0    0  502    0 -0.00000000000E+00 -0.00000000000E+00 -0.34801776754E+03  0.34801776754E+03  0.00000000000E+00 0. -1.
         25    1    1    2    0    0  0.68237053735E+02 -0.77197485774E+01 -0.23476338821E+03  0.27469025914E+03  0.12500000000E+03 0.  0.
          2    1    1    2  501    0 -0.61099440240E+02 -0.13832916290E+02  0.35637850589E+03  0.36184268768E+03  0.00000000000E+00 0. -1.
          1    1    1    2  502    0 -0.71376134950E+01  0.21552664867E+02 -0.89135847731E+02  0.91981858211E+02  0.00000000000E+00 0. -1.
<mgrwt>
<rscale>  0 0.37720529E+02</rscale>
<asrwt>0</asrwt>
<pdfrwt beam="1">  1        2 0.58538006E-01 0.62669589E+02</pdfrwt>
<pdfrwt beam="2">  1        1 0.53541195E-01 0.22703808E+02</pdfrwt>
<totfact> 0.84480462E+02</totfact>
</mgrwt>
</event>
<event>
 5    1  0.7156190E-003  0.9846830E+02  0.7546771E-02  0.1444849E+00
         -2   -1    0    0    0  501 -0.00000000000E+00  0.00000000000E+00  0.30299371169E+03  0.30299371169E+03  0.00000000000E+00 0.  1.
          2   -1    0    0  502    0  0.00000000000E+00 -0.00000000000E+00 -0.13832342453E+04  0.13832342453E+04  0.00000000000E+00 0. -1.
         25    1    1    2    0    0  0.39530372839E+02 -0.10007529573E+03  0.10680212132E+02  0.16527789363E+03  0.12500000000E+03 0.  0.
          2    1    1    2  502    0 -0.14199569972E+02  0.97304423782E+02 -0.13033216629E+04  0.13070260654E+04  0.00000000000E+00 0. -1.
         -2    1    1    2    0  501 -0.25330802867E+02  0.27708719517E+01  0.21240091714E+03  0.21392399797E+03  0.00000000000E+00 0.  1.
<mgrwt>
<rscale>  0 0.50091511E+02</rscale>
<asrwt>0</asrwt>
<pdfrwt beam="2">  1        2 0.21280527E+00 0.98468297E+02</pdfrwt>
<pdfrwt beam="1">  1       -2 0.46614418E-01 0.25481902E+02</pdfrwt>
<totfact> 0.74837370E+01</totfact>
</mgrwt>
</event>
<event>
 5    1  0.7156190E-003  0.9445058E+02  0.7546771E-02  0.1416514E+00
          1   -1    0    0  502    0 -0.00000000000E+00  0.00000000000E+00  0.37858959351E+02  0.37858959351E+02  0.00000000000E+00 0. -1.
          2   -1    0    0  501    0  0.00000000000E+00 -0.00000000000E+00 -0.40486557249E+04  0.40486557249E+04  0.00000000000E+00 0. -1.
         25    1    1    2    0    0  0.61787685594E+02  0.53211713995E+02 -0.14573201531E+04  0.14649423993E+04  0.12500000000E+03 0.  0.
          2    1    1    2  501    0 -0.50905308292E+02 -0.84286011302E+02 -0.25783991301E+04  0.25802785811E+04  0.00000000000E+00 0. -1.
          1    1    1    2  502    0 -0.10882377302E+02  0.31074297306E+02  0.24922517665E+02  0.41293703825E+02  0.00000000000E+00 0. -1.
<mgrwt>
<rscale>  0 0.55765225E+02</rscale>
<asrwt>0</asrwt>
<pdfrwt beam="2">  1        2 0.62287015E+00 0.94450583E+02</pdfrwt>
<pdfrwt beam="1">  1        1 0.58244549E-02 0.32924734E+02</pdfrwt>
<totfact> 0.77513528E+01</totfact>
</mgrwt>
</event>
<event>
 5    1  0.7156190E-003  0.9296120E+02  0.7546771E-02  0.1422768E+00
         -2   -1    0    0    0  501 -0.00000000000E+00  0.00000000000E+00  0.24427415032E+03  0.24427415032E+03  0.00000000000E+00 0.  1.
          2   -1    0    0  502    0  0.00000000000E+00 -0.00000000000E+00 -0.51569858760E+03  0.51569858760E+03  0.00000000000E+00 0. -1.
         25    1    1    2    0    0 -0.98443368161E+02  0.63739206973E+02 -0.98724979698E+02  0.19780142784E+03  0.12500000000E+03 0.  0.
          2    1    1    2  502    0  0.31856645093E+02 -0.12398749218E+01 -0.35597694685E+03  0.35740169252E+03  0.00000000000E+00 0. -1.
         -2    1    1    2    0  501  0.66586723068E+02 -0.62499332051E+02  0.18327748927E+03  0.20476961755E+03  0.00000000000E+00 0.  1.
<mgrwt>
<rscale>  0 0.54439638E+02</rscale>
<asrwt>0</asrwt>
<pdfrwt beam="2">  1        2 0.79338244E-01 0.31880764E+02</pdfrwt>
<pdfrwt beam="1">  1       -2 0.37580639E-01 0.92961204E+02</pdfrwt>
<totfact> 0.41549836E+02</totfact>
</mgrwt>
</event>
<event>
 5    1  0.7156190E-003  0.8406025E+02  0.7546771E-02  0.1346903E+00
          2   -1    0    0  501    0  0.00000000000E+00  0.00000000000E+00  0.94238923612E+02  0.94238923612E+02  0.00000000000E+00 0. -1.
          2   -1    0    0  502    0 -0.00000000000E+00 -0.00000000000E+00 -0.21592732938E+04  0.21592732938E+04  0.00000000000E+00 0. -1.
         25    1    1    2    0    0 -0.86362451100E+02 -0.11082007048E+03 -0.18672604603E+03  0.26501165493E+03  0.12500000000E+03 0.  0.
          2    1    1    2  501    0  0.56495649456E+02  0.52868079380E+02  0.27095683271E+02  0.81981511798E+02  0.00000000000E+00 0. -1.
          2    1    1    2  502    0  0.29866801644E+02  0.57951991099E+02 -0.19054040075E+04  0.19065190507E+04  0.00000000000E+00 0. -1.
<mgrwt>
<rscale>  0 0.74029413E+02</rscale>
<asrwt>0</asrwt>
<pdfrwt beam="1">  1        2 0.14498297E-01 0.84060253E+02</pdfrwt>
<pdfrwt beam="2">  1        2 0.33219588E+00 0.65195545E+02</pdfrwt>
<totfact> 0.42948414E+02</totfact>
</mgrwt>
</event>
<event>
 5    1  0.7156190E-003  0.8377054E+02  0.7546771E-02  0.1450753E+00
          2   -1    0    0  501    0  0.00000000000E+00  0.00000000000E+00  0.49331523375E+02  0.49331523375E+02  0.00000000000E+00 0. -1.
          1   -1    0    0  502    0 -0.00000000000E+00 -0.00000000000E+00 -0.14220303803E+04  0.14220303803E+04  0.00000000000E+00 0. -1.
         25    1    1    2    0    0  0.67905288244E+02 -0.50703280556E+00 -0.57786945480E+03  0.59512140950E+03  0.12500000000E+03 0.  0.
          2    1    1    2  501    0 -0.81542235346E+02 -0.24716574226E+02 -0.44298251142E+01  0.85320973607E+02  0.00000000000E+00 0. -1.
          1    1    1    2  502    0  0.13636947102E+02  0.25223607031E+02 -0.79039957699E+03  0.79091952054E+03  0.00000000000E+00 0. -1.
<mgrwt>
<rscale>  0 0.49010552E+02</rscale>
<asrwt>0</asrwt>
<pdfrwt beam="1">  1        2 0.75894633E-02 0.83770542E+02</pdfrwt>
<pdfrwt beam="2">  1        1 0.21877396E+00 0.28673972E+02</pdfrwt>
<totfact> 0.11348509E+03</totfact>
</mgrwt>
</event>
<event>
 5    1  0.7156190E-003  0.1061185E+03  0.7546771E-02  0.1382114E+00
         -1   -1    0    0    0  501 -0.00000000000E+00  0.00000000000E+00  0.29428557537E+02  0.29428557537E+02  0.00000000000E+00 0.  1.
          2   -1    0    0  502    0  0.00000000000E+00 -0.00000000000E+00 -0.10740587764E+04  0.10740587764E+04  0.00000000000E+00 0. -1.
         25    1    1    2    0    0 -0.37867369823E+02 -0.10991335062E+03 -0.29594964732E+03  0.34165198095E+03  0.12500000000E+03 0.  0.
          2    1    1    2  502    0  0.31002117790E+02  0.22813794900E+02 -0.97553713708E+02  0.10487291168E+03  0.00000000000E+00 0. -1.
         -1    1    1    2    0  501  0.68652520325E+01  0.87099555719E+02 -0.65112685779E+03  0.65696244126E+03  0.00000000000E+00 0.  1.
<mgrwt>
<rscale>  0 0.63911392E+02</rscale>
<asrwt>0</asrwt>
<pdfrwt beam="2">  1        2 0.16523979E+00 0.38491565E+02</pdfrwt>
<pdfrwt beam="1">  1       -1 0.45274709E-02 0.10611847E+03</pdfrwt>
<totfact> 0.56459748E+03</totfact>
</mgrwt>
</event>
<event>
 5    1  0.7156190E-003  0.1348754E+03  0.7546771E-02  0.1345820E+00
          1   -1    0    0  502    0 -0.00000000000E+00  0.00000000000E+00  0.78805390454E+03  0.78805390454E+03  0.00000000000E+00 0. -1.
          2   -1    0    0  501    0  0.00000000000E+00 -0.00000000000E+00 -0.31005929751E+03  0.31005929751E+03  0.00000000000E+00 0. -1.
         25    1    1    2    0    0 -0.84914295538E+01  0.12377819301E+03  0.33373513381E+03  0.37735564787E+03  0.12500000000E+03 0.  0.
          2    1    1    2  501    0 -0.39706259447E+02  0.10266530879E+02 -0.27495807652E+03  0.27799987866E+03  0.00000000000E+00 0. -1.
          1    1    1    2  502    0  0.48197689001E+02 -0.13404472389E+03  0.41921754973E+03  0.44275767551E+03  0.00000000000E+00 0. -1.
<mgrwt>
<rscale>  0 0.74374173E+02</rscale>
<asrwt>0</asrwt>
<pdfrwt beam="2">  1        2 0.47701431E-01 0.41012055E+02</pdfrwt>
<pdfrwt beam="1">  1        1 0.12123906E+00 0.13487541E+03</pdfrwt>
<totfact> 0.34733987E+02</totfact>
</mgrwt>
</event>
<event>
 5    1  0.7156190E-003  0.8949587E+02  0.7546771E-02  0.1361328E+00
         -2   -1    0    0    0  501 -0.00000000000E+00  0.00000000000E+00  0.11635050137E+03  0.11635050137E+03  0.00000000000E+00 0. -1.
          2   -1    0    0  502    0  0.00000000000E+00 -0.00000000000E+00 -0.56156372731E+03  0.56156372731E+03  0.00000000000E+00 0.  1.
         25    1    1    2    0    0  0.16911858210E+02 -0.88141520990E+02 -0.18510758883E+03  0.24071717453E+03  0.12500000000E+03 0.  0.
          2    1    1    2  502    0  0.37159654704E+02  0.84615132664E+02 -0.33344316148E+03  0.34601286472E+03  0.00000000000E+00 0.  1.
         -2    1    1    2    0  501 -0.54071512914E+02  0.35263883260E+01  0.73337524361E+02  0.91184189434E+02  0.00000000000E+00 0. -1.
<mgrwt>
<rscale>  0 0.69638045E+02</rscale>
<asrwt>0</asrwt>
<pdfrwt beam="2">  1        2 0.86394420E-01 0.89495869E+02</pdfrwt>
<pdfrwt beam="1">  1       -2 0.17900077E-01 0.54186381E+02</pdfrwt>
<totfact> 0.13275492E+03</totfact>
</mgrwt>
</event>
<event>
 5    1  0.7156190E-003  0.8014940E+02  0.7546771E-02  0.1448088E+00
          2   -1    0    0  501    0  0.00000000000E+00  0.00000000000E+00  0.17141947009E+04  0.17141947009E+04  0.00000000000E+00 0. -1.
          1   -1    0    0  502    0 -0.00000000000E+00 -0.00000000000E+00 -0.13804631271E+04  0.13804631271E+04  0.00000000000E+00 0. -1.
         25    1    1    2    0    0 -0.10520418724E+03 -0.25122709049E+02  0.90184839946E+03  0.91687218691E+03  0.12500000000E+03 0.  0.
          2    1    1    2  501    0  0.25521290065E+02  0.16817276384E+02  0.80337485461E+03  0.80395603988E+03  0.00000000000E+00 0. -1.
          1    1    1    2  502    0  0.79682897173E+02  0.83054326653E+01 -0.13714916803E+04  0.13738296013E+04  0.00000000000E+00 0. -1.
<mgrwt>
<rscale>  0 0.49494291E+02</rscale>
<asrwt>0</asrwt>
<pdfrwt beam="1">  1        2 0.26372226E+00 0.30563983E+02</pdfrwt>
<pdfrwt beam="2">  1        1 0.21237894E+00 0.80149399E+02</pdfrwt>
<totfact> 0.17023137E+01</totfact>
</mgrwt>
</event>
<event>
 5    1  0.7156190E-003  0.1153643E+03  0.7546771E-02  0.1270375E+00
         -1   -1    0    0    0  501 -0.00000000000E+00  0.00000000000E+00  0.90080047693E+02  0.90080047693E+02  0.00000000000E+00 0.  1.
          2   -1    0    0  502    0  0.00000000000E+00 -0.00000000000E+00 -0.20494838673E+04  0.20494838673E+04  0.00000000000E+00 0. -1.
         25    1    1    2    0    0  0.35939332688E+02  0.18755862636E+03 -0.19708980043E+03  0.30156137583E+03  0.12500000000E+03 0.  0.
          2    1    1    2  502    0 -0.60683401731E+02 -0.95494287317E+02 -0.17352071462E+04  0.17388920249E+04  0.00000000000E+00 0. -1.
         -1    1    1    2    0  501  0.24744069043E+02 -0.92064339043E+02 -0.27106873028E+02  0.99110514284E+02  0.00000000000E+00 0.  1.
<mgrwt>
<rscale>  0 0.10487070E+03</rscale>
<asrwt>0</asrwt>
<pdfrwt beam="2">  1        2 0.31530522E+00 0.11536432E+03</pdfrwt>
<pdfrwt beam="1">  1       -1 0.13858468E-01 0.95331587E+02</pdfrwt>
<totfact> 0.30433214E+02</totfact>
</mgrwt>
</event>
<event>
 5    1  0.7156190E-003  0.7856749E+02  0.7546771E-02  0.1369108E+00
          2   -1    0    0  502    0  0.00000000000E+00  0.00000000000E+00  0.10471717657E+03  0.10471717657E+03  0.00000000000E+00 0. -1.
         -2   -1    0    0    0  501 -0.00000000000E+00 -0.00000000000E+00 -0.20334760301E+03  0.20334760301E+03  0.00000000000E+00 0.  1.
         25    1    1    2    0    0  0.87212510730E+02 -0.43821870033E+02 -0.58314488130E+02  0.16897324595E+03  0.12500000000E+03 0.  0.
          2    1    1    2  502    0 -0.14068976048E+02  0.56109851688E+02 -0.26582494225E+02  0.63662237965E+02  0.00000000000E+00 0. -1.
         -2    1    1    2    0  501 -0.73143534682E+02 -0.12287981655E+02 -0.13733444086E+02  0.75429295670E+02  0.00000000000E+00 0.  1.
<mgrwt>
<rscale>  0 0.67415708E+02</rscale>
<asrwt>0</asrwt>
<pdfrwt beam="1">  1        2 0.16110335E-01 0.57846794E+02</pdfrwt>
<pdfrwt beam="2">  1       -2 0.31284246E-01 0.78567495E+02</pdfrwt>
<totfact> 0.30979412E+03</totfact>
</mgrwt>
</event>
<event>
 5    1  0.7156190E-003  0.4730340E+02  0.7546771E-02  0.1504801E+00
          2   -1    0    0  502    0  0.00000000000E+00  0.00000000000E+00  0.23001886822E+03  0.23001886822E+03  0.00000000000E+00 0. -1.
         -1   -1    0    0    0  501 -0.00000000000E+00 -0.00000000000E+00 -0.53200843952E+02  0.53200843952E+02  0.00000000000E+00 0.  1.
         25    1    1    2    0    0  0.39275769755E+02 -0.11532666298E+02  0.10281045678E+03  0.16694483671E+03  0.12500000000E+03 0.  0.
          2    1    1    2  502    0 -0.46839402610E+02 -0.22249887336E+02  0.58982177184E+02  0.78535879372E+02  0.00000000000E+00 0. -1.
         -1    1    1    2    0  501  0.75636328559E+01  0.33782553634E+02  0.15025390309E+02  0.37738996091E+02  0.00000000000E+00 0.  1.
<mgrwt>
<rscale>  0 0.40467179E+02</rscale>
<asrwt>0</asrwt>
<pdfrwt beam="1">  1        2 0.35387518E-01 0.47303401E+02</pdfrwt>
<pdfrwt beam="2">  1       -1 0.81847454E-02 0.34618918E+02</pdfrwt>
<totfact> 0.11391849E+04</totfact>
</mgrwt>
</event>
<event>
 5    1  0.7156190E-003  0.8583795E+02  0.7546771E-02  0.1387298E+00
         -2   -1    0    0    0  501  0.00000000000E+00  0.00000000000E+00  0.11622103576E+03  0.11622103576E+03  0.00000000000E+00 0.  1.
         -2   -1    0    0    0  502 -0.00000000000E+00 -0.00000000000E+00 -0.33014876886E+04  0.33014876886E+04  0.00000000000E+00 0.  1.
         25    1    1    2    0    0  0.30298394905E+02  0.99776218077E+02 -0.14768269153E+04  0.14857711883E+04  0.12500000000E+03 0.  0.
         -2    1    1    2    0  502 -0.43096098264E+02 -0.14992517780E+02 -0.18034097546E+04  0.18039869158E+04  0.00000000000E+00 0.  1.
         -2    1    1    2    0  501  0.12797703360E+02 -0.84783700297E+02  0.94970017120E+02  0.12795062016E+03  0.00000000000E+00 0.  1.
<mgrwt>
<rscale>  0 0.62583872E+02</rscale>
<asrwt>0</asrwt>
<pdfrwt beam="1">  1       -2 0.17880158E-01 0.85837955E+02</pdfrwt>
<pdfrwt beam="2">  1       -2 0.50792121E+00 0.45629478E+02</pdfrwt>
<totfact> 0.38681780E-01</totfact>
</mgrwt>
</event>
<event>
 5    1  0.7156190E-003  0.1021147E+03  0.7546771E-02  0.1423535E+00
          2   -1    0    0  501    0  0.00000000000E+00  0.00000000000E+00  0.73077549291E+02  0.73077549291E+02  0.00000000000E+00 0. -1.
          2   -1    0    0  502    0 -0.00000000000E+00 -0.00000000000E+00 -0.89776632429E+03  0.89776632429E+03  0.00000000000E+00 0. -1.
         25    1    1    2    0    0 -0.43789399699E+02 -0.63759515324E+02 -0.32477141626E+03  0.35648879385E+03  0.12500000000E+03 0.  0.
          2    1    1    2  501    0  0.64861827407E+02  0.83468566238E+02  0.76354556171E+01  0.10598282119E+03  0.00000000000E+00 0. -1.
          2    1    1    2  502    0 -0.21072427707E+02 -0.19709050914E+02 -0.50755281436E+03  0.50837225854E+03  0.00000000000E+00 0. -1.
<mgrwt>
<rscale>  0 0.54279942E+02</rscale>
<asrwt>0</asrwt>
<pdfrwt beam="1">  1        2 0.11242699E-01 0.10211469E+03</pdfrwt>
<pdfrwt beam="2">  1        2 0.13811790E+00 0.28852970E+02</pdfrwt>
<totfact> 0.27323412E+03</totfact>
</mgrwt>
</event>
<event>
 5    1  0.1307502E-002  0.7817241E+02  0.7546771E-02  0.1394702E+00
         -1   -1    0    0    0  501 -0.00000000000E+00  0.00000000000E+00  0.88697082105E+03  0.88697082105E+03  0.00000000000E+00 0.  1.
          2   -1    0    0  502    0  0.00000000000E+00 -0.00000000000E+00 -0.22454398738E+02  0.22454398738E+02  0.00000000000E+00 0. -1.
         25    1    1    2    0    0 -0.93398043538E+02  0.96069614748E+01  0.42121755682E+03  0.44929357710E+03  0.12500000000E+03 0.  0.
          2    1    1    2  502    0  0.60000379445E+02 -0.42979859003E+02  0.22538910409E+03  0.23716568482E+03  0.00000000000E+00 0. -1.
         -1    1    1    2    0  501  0.33397664093E+02  0.33372897528E+02  0.21790976141E+03  0.22296595788E+03  0.00000000000E+00 0.  1.
<mgrwt>
<rscale>  0 0.60752168E+02</rscale>
<asrwt>0</asrwt>
<pdfrwt beam="2">  1        2 0.34545236E-02 0.78172409E+02</pdfrwt>
<pdfrwt beam="1">  1       -1 0.13645702E+00 0.47213920E+02</pdfrwt>
<totfact> 0.13989574E+03</totfact>
</mgrwt>
</event>
<event>
 5    1  0.7156190E-003  0.2348143E+02  0.7546771E-02  0.1693813E+00
          2   -1    0    0  501    0  0.00000000000E+00  0.00000000000E+00  0.10088344578E+03  0.10088344578E+03  0.00000000000E+00 0. -1.
          1   -1    0    0  502    0 -0.00000000000E+00 -0.00000000000E+00 -0.57870859855E+03  0.57870859855E+03  0.00000000000E+00 0. -1.
         25    1    1    2    0    0 -0.11769243442E+01  0.29299740961E+02  0.74521689165E+01  0.12860946619E+03  0.12500000000E+03 0.  0.
          2    1    1    2  501    0 -0.17028017717E+02 -0.16503557263E+02  0.28300977712E+02  0.36922433955E+02  0.00000000000E+00 0. -1.
          1    1    1    2  502    0  0.18204942062E+02 -0.12796183698E+02 -0.51357829940E+03  0.51406014419E+03  0.00000000000E+00 0. -1.
<mgrwt>
<rscale>  0 0.22858575E+02</rscale>
<asrwt>0</asrwt>
<pdfrwt beam="1">  1        2 0.15520530E-01 0.23481430E+02</pdfrwt>
<pdfrwt beam="2">  1        1 0.89032090E-01 0.22252241E+02</pdfrwt>
<totfact> 0.17873802E+03</totfact>
</mgrwt>
</event>
<event>
 5    1  0.7156190E-003  0.4325946E+02  0.7546771E-02  0.1485829E+00
          1   -1    0    0  502    0  0.00000000000E+00  0.00000000000E+00  0.24511346735E+03  0.24511346735E+03  0.00000000000E+00 0. -1.
         -2   -1    0    0    0  501 -0.00000000000E+00 -0.00000000000E+00 -0.60609399501E+02  0.60609399501E+02  0.00000000000E+00 0.  1.
         25    1    1    2    0    0  0.36544388929E+02 -0.35944060127E+02  0.55673217066E+02  0.14612314984E+03  0.12500000000E+03 0.  0.
          1    1    1    2  502    0  0.58550208455E+01  0.44024773477E+02  0.94615869777E+02  0.10452092978E+03  0.00000000000E+00 0. -1.
         -2    1    1    2    0  501 -0.42399409774E+02 -0.80807133501E+01  0.34214981005E+02  0.55078787229E+02  0.00000000000E+00 0.  1.
<mgrwt>
<rscale>  0 0.43210990E+02</rscale>
<asrwt>0</asrwt>
<pdfrwt beam="1">  1        1 0.37709764E-01 0.43259459E+02</pdfrwt>
<pdfrwt beam="2">  1       -2 0.93245231E-02 0.43162575E+02</pdfrwt>
<totfact> 0.63522516E+03</totfact>
</mgrwt>
</event>
<event>
 5    1  0.7156190E-003  0.1566298E+03  0.7546771E-02  0.1248966E+00
          2   -1    0    0  502    0  0.00000000000E+00  0.00000000000E+00  0.10223406080E+03  0.10223406080E+03  0.00000000000E+00 0.  1.
          2   -1    0    0  501    0 -0.00000000000E+00 -0.00000000000E+00 -0.15417872342E+04  0.15417872342E+04  0.00000000000E+00 0. -1.
         25    1    1    2    0    0  0.75965718511E+02 -0.32289615775E+02 -0.77756968841E+02  0.16877368242E+03  0.12500000000E+03 0.  0.
          2    1    1    2  501    0 -0.16251358940E+03  0.27721158471E+02 -0.13773613493E+04  0.13871926383E+04  0.00000000000E+00 0. -1.
          2    1    1    2  502    0  0.86547870889E+02  0.45684573041E+01  0.15565144720E+02  0.88054974237E+02  0.00000000000E+00 0.  1.
<mgrwt>
<rscale>  0 0.11651113E+03</rscale>
<asrwt>0</asrwt>
<pdfrwt beam="1">  1        2 0.15728318E-01 0.86668361E+02</pdfrwt>
<pdfrwt beam="2">  1        2 0.23719802E+00 0.15662975E+03</pdfrwt>
<totfact> 0.73594058E+02</totfact>
</mgrwt>
</event>
<event>
 5    1  0.7156190E-003  0.5550803E+02  0.7546771E-02  0.1550073E+00
          2   -1    0    0  502    0  0.00000000000E+00  0.00000000000E+00  0.32489519229E+02  0.32489519229E+02  0.00000000000E+00 0. -1.
         -1   -1    0    0    0  501 -0.00000000000E+00 -0.00000000000E+00 -0.43101142983E+03  0.43101142983E+03  0.00000000000E+00 0.  1.
         25    1    1    2    0    0  0.39160109666E+02 -0.18738158991E+02 -0.15783321886E+03  0.20596348649E+03  0.12500000000E+03 0.  0.
          2    1    1    2  502    0 -0.58592634956E+02  0.28751951382E+02 -0.13948300816E+03  0.15399766604E+03  0.00000000000E+00 0. -1.
         -1    1    1    2    0  501  0.19432525290E+02 -0.10013792391E+02 -0.10120568358E+03  0.10353979653E+03  0.00000000000E+00 0.  1.
<mgrwt>
<rscale>  0 0.34834692E+02</rscale>
<asrwt>0</asrwt>
<pdfrwt beam="1">  1        2 0.49983876E-02 0.55508034E+02</pdfrwt>
<pdfrwt beam="2">  1       -1 0.66309450E-01 0.21860903E+02</pdfrwt>
<totfact> 0.38977549E+03</totfact>
</mgrwt>
</event>
<event>
 5    1  0.7156190E-003  0.9930205E+02  0.7546771E-02  0.1378930E+00
          2   -1    0    0  501    0  0.00000000000E+00  0.00000000000E+00  0.39011196320E+03  0.39011196320E+03  0.00000000000E+00 0.  1.
          1   -1    0    0  502    0 -0.00000000000E+00 -0.00000000000E+00 -0.36400415078E+03  0.36400415078E+03  0.00000000000E+00 0. -1.
         25    1    1    2    0    0  0.67808094716E+02 -0.58103791555E+00 -0.12568274974E+03  0.18978785234E+03  0.12500000000E+03 0.  0.
          2    1    1    2  501    0 -0.95528666616E+02  0.32419205307E+02  0.34867177130E+03  0.36297208587E+03  0.00000000000E+00 0.  1.
          1    1    1    2  502    0  0.27720571899E+02 -0.31838167391E+02 -0.19688120914E+03  0.20135617577E+03  0.00000000000E+00 0. -1.
<mgrwt>
<rscale>  0 0.64745868E+02</rscale>
<asrwt>0</asrwt>
<pdfrwt beam="1">  1        2 0.60017225E-01 0.99302045E+02</pdfrwt>
<pdfrwt beam="2">  1        1 0.56000638E-01 0.42214915E+02</pdfrwt>
<totfact> 0.77980390E+02</totfact>
</mgrwt>
</event>
<event>
 5    1  0.7156190E-003  0.7197128E+02  0.7546771E-02  0.1405338E+00
          2   -1    0    0  501    0  0.00000000000E+00  0.00000000000E+00  0.79615495646E+02  0.79615495646E+02  0.00000000000E+00 0. -1.
          2   -1    0    0  502    0 -0.00000000000E+00 -0.00000000000E+00 -0.42840637048E+03  0.42840637048E+03  0.00000000000E+00 0. -1.
         25    1    1    2    0    0 -0.18261989761E+02  0.78188361986E+01 -0.28809086123E+03  0.31466804540E+03  0.12500000000E+03 0.  0.
          2    1    1    2  501    0 -0.54452633107E+02  0.47061410609E+02  0.16619290428E+02  0.73865190957E+02  0.00000000000E+00 0. -1.
          2    1    1    2  502    0  0.72714622868E+02 -0.54880246807E+02 -0.77319304025E+02  0.11948862977E+03  0.00000000000E+00 0. -1.
<mgrwt>
<rscale>  0 0.58247150E+02</rscale>
<asrwt>0</asrwt>
<pdfrwt beam="1">  1        2 0.12248538E-01 0.71971283E+02</pdfrwt>
<pdfrwt beam="2">  1        2 0.65908673E-01 0.47140058E+02</pdfrwt>
<totfact> 0.53627674E+03</totfact>
</mgrwt>
</event>
<event>
 5    1  0.7156190E-003  0.7213100E+02  0.7546771E-02  0.1440901E+00
          1   -1    0    0  502    0  0.00000000000E+00  0.00000000000E+00  0.15526096775E+03  0.15526096775E+03  0.00000000000E+00 0. -1.
         -1   -1    0    0    0  501 -0.00000000000E+00 -0.00000000000E+00 -0.23946393126E+03  0.23946393126E+03  0.00000000000E+00 0.  1.
         25    1    1    2    0    0 -0.56540444453E+02  0.15842148601E+02 -0.93878978765E+02  0.16699119194E+03  0.12500000000E+03 0.  0.
          1    1    1    2  502    0  0.53076824414E+02 -0.51497711283E+02  0.10355558925E+03  0.12725141894E+03  0.00000000000E+00 0. -1.
         -1    1    1    2    0  501  0.34636200387E+01  0.35655562682E+02 -0.93879573994E+02  0.10048228813E+03  0.00000000000E+00 0.  1.
<mgrwt>
<rscale>  0 0.50832838E+02</rscale>
<asrwt>0</asrwt>
<pdfrwt beam="1">  1        1 0.23886303E-01 0.72130997E+02</pdfrwt>
<pdfrwt beam="2">  1       -1 0.36840605E-01 0.35823398E+02</pdfrwt>
<totfact> 0.13775781E+03</totfact>
</mgrwt>
</event>
<event>
 5    1  0.7156190E-003  0.5385347E+02  0.7546771E-02  0.1500638E+00
         -2   -1    0    0    0  501  0.00000000000E+00  0.00000000000E+00  0.72883160701E+03  0.72883160701E+03  0.00000000000E+00 0.  1.
         -1   -1    0    0    0  502 -0.00000000000E+00 -0.00000000000E+00 -0.32400233476E+03  0.32400233476E+03  0.00000000000E+00 0.  1.
         25    1    1    2    0    0  0.39244577740E+02 -0.73880981433E+02  0.38394583446E+02  0.15523427565E+03  0.12500000000E+03 0.  0.
         -2    1    1    2    0  501 -0.99288803950E+01  0.29670171016E+02  0.62897554804E+03  0.62975323878E+03  0.00000000000E+00 0.  1.
         -1    1    1    2    0  502 -0.29315697345E+02  0.44210810417E+02 -0.26254085923E+03  0.26784642734E+03  0.00000000000E+00 0.  1.
<mgrwt>
<rscale>  0 0.41047963E+02</rscale>
<asrwt>0</asrwt>
<pdfrwt beam="1">  1       -2 0.11212794E+00 0.31287405E+02</pdfrwt>
<pdfrwt beam="2">  1       -1 0.49846513E-01 0.53853468E+02</pdfrwt>
<totfact> 0.21892874E+01</totfact>
</mgrwt>
</event>
<event>
 5    1  0.7156190E-003  0.6542806E+02  0.7546771E-02  0.1469862E+00
          2   -1    0    0  502    0  0.00000000000E+00  0.00000000000E+00  0.11317037152E+04  0.11317037152E+04  0.00000000000E+00 0.  1.
         -2   -1    0    0    0  501 -0.00000000000E+00 -0.00000000000E+00 -0.30145683440E+02  0.30145683440E+02  0.00000000000E+00 0.  1.
         25    1    1    2    0    0 -0.14120965224E+02 -0.43395042331E+02  0.39960471722E+03  0.42117865732E+03  0.12500000000E+03 0.  0.
          2    1    1    2  502    0 -0.52555680622E+01  0.68806539471E+02  0.70518342343E+03  0.70855177760E+03  0.00000000000E+00 0.  1.
         -2    1    1    2    0  501  0.19376533286E+02 -0.25411497140E+02 -0.32301088546E+01  0.32118963749E+02  0.00000000000E+00 0.  1.
<mgrwt>
<rscale>  0 0.45725567E+02</rscale>
<asrwt>0</asrwt>
<pdfrwt beam="1">  1        2 0.17410823E+00 0.65428058E+02</pdfrwt>
<pdfrwt beam="2">  1       -2 0.46377983E-02 0.31956130E+02</pdfrwt>
<totfact> 0.41947110E+03</totfact>
</mgrwt>
</event>
<event>
 5    1  0.7156190E-003  0.7033495E+02  0.7546771E-02  0.1407178E+00
          3   -1    0    0  502    0 -0.00000000000E+00  0.00000000000E+00  0.44263507612E+02  0.44263507612E+02  0.00000000000E+00 0. -1.
          1   -1    0    0  501    0  0.00000000000E+00 -0.00000000000E+00 -0.22586324123E+04  0.22586324123E+04  0.00000000000E+00 0. -1.
         25    1    1    2    0    0  0.78550538266E+02  0.84989614483E+02 -0.82749511756E+03  0.84484708155E+03  0.12500000000E+03 0.  0.
          1    1    1    2  501    0 -0.35374244152E+02 -0.31768869336E+02 -0.13886793216E+04  0.13894930214E+04  0.00000000000E+00 0. -1.
          3    1    1    2  502    0 -0.43176294114E+02 -0.53220745147E+02  0.18055344687E+01  0.68555816982E+02  0.00000000000E+00 0. -1.
<mgrwt>
<rscale>  0 0.57828436E+02</rscale>
<asrwt>0</asrwt>
<pdfrwt beam="2">  1        1 0.34748193E+00 0.47545749E+02</pdfrwt>
<pdfrwt beam="1">  1        3 0.68097700E-02 0.70334953E+02</pdfrwt>
<totfact> 0.19135157E+02</totfact>
</mgrwt>
</event>
<event>
 5    1  0.7156190E-003  0.5468675E+02  0.7546771E-02  0.1445752E+00
         -1   -1    0    0    0  501 -0.00000000000E+00  0.00000000000E+00  0.21761331367E+02  0.21761331367E+02  0.00000000000E+00 0.  1.
          1   -1    0    0  502    0  0.00000000000E+00 -0.00000000000E+00 -0.70271546320E+03  0.70271546320E+03  0.00000000000E+00 0. -1.
         25    1    1    2    0    0  0.18756783023E+02 -0.55755364710E+02 -0.33902027532E+03  0.36608772812E+03  0.12500000000E+03 0.  0.
          1    1    1    2  502    0 -0.52608261678E+02  0.25239040262E+02 -0.14608015593E+03  0.15730241672E+03  0.00000000000E+00 0. -1.
         -1    1    1    2    0  501  0.33851478655E+02  0.30516324448E+02 -0.19585370059E+03  0.20108664973E+03  0.00000000000E+00 0.  1.
<mgrwt>
<rscale>  0 0.49923958E+02</rscale>
<asrwt>0</asrwt>
<pdfrwt beam="2">  1        1 0.10811005E+00 0.54686752E+02</pdfrwt>
<pdfrwt beam="1">  1       -1 0.33478978E-02 0.45575966E+02</pdfrwt>
<totfact> 0.78852075E+03</totfact>
</mgrwt>
</event>
<event>
 5    1  0.7156190E-003  0.4093365E+02  0.7546771E-02  0.1508848E+00
          2   -1    0    0  502    0  0.00000000000E+00  0.00000000000E+00  0.79575525312E+03  0.79575525312E+03  0.00000000000E+00 0. -1.
          2   -1    0    0  501    0 -0.00000000000E+00 -0.00000000000E+00 -0.53772689272E+03  0.53772689272E+03  0.00000000000E+00 0. -1.
         25    1    1    2    0    0  0.29236077317E+01  0.66709515125E+02 -0.29712774573E+03  0.32919387020E+03  0.12500000000E+03 0.  0.
          2    1    1    2  501    0  0.20431248757E+02 -0.33124810897E+02 -0.22233810083E+03  0.22571867469E+03  0.00000000000E+00 0. -1.
          2    1    1    2  502    0 -0.23354856489E+02 -0.33584704228E+02  0.77749420696E+03  0.77856960096E+03  0.00000000000E+00 0. -1.
<mgrwt>
<rscale>  0 0.39913621E+02</rscale>
<asrwt>0</asrwt>
<pdfrwt beam="1">  1        2 0.12242388E+00 0.40933655E+02</pdfrwt>
<pdfrwt beam="2">  1        2 0.82727214E-01 0.38919006E+02</pdfrwt>
<totfact> 0.35318633E+02</totfact>
</mgrwt>
</event>
<event>
 5    1  0.7156190E-003  0.6187960E+02  0.7546771E-02  0.1498414E+00
         -1   -1    0    0    0  501 -0.00000000000E+00  0.00000000000E+00  0.16386202433E+03  0.16386202433E+03  0.00000000000E+00 0.  1.
          2   -1    0    0  502    0  0.00000000000E+00 -0.00000000000E+00 -0.92734419159E+02  0.92734419159E+02  0.00000000000E+00 0. -1.
         25    1    1    2    0    0  0.21780874054E+02 -0.52845441710E+02  0.55561401683E+01  0.13756059711E+03  0.12500000000E+03 0.  0.
          2    1    1    2  502    0  0.44753105358E+00  0.69287912112E+02  0.58022739353E+02  0.90375070296E+02  0.00000000000E+00 0. -1.
         -1    1    1    2    0  501 -0.22228405108E+02 -0.16442470402E+02  0.75487256472E+01  0.28660776079E+02  0.00000000000E+00 0.  1.
<mgrwt>
<rscale>  0 0.41362996E+02</rscale>
<asrwt>0</asrwt>
<pdfrwt beam="2">  1        2 0.14266834E-01 0.61879601E+02</pdfrwt>
<pdfrwt beam="1">  1       -1 0.25209542E-01 0.27648812E+02</pdfrwt>
<totfact> 0.56232980E+03</totfact>
</mgrwt>
</event>
<event>
 5    1  0.7156190E-003  0.1440948E+03  0.7546771E-02  0.1362966E+00
         -1   -1    0    0    0  501 -0.00000000000E+00  0.00000000000E+00  0.39196291540E+03  0.39196291540E+03  0.00000000000E+00 0.  1.
          1   -1    0    0  502    0  0.00000000000E+00 -0.00000000000E+00 -0.72580501011E+03  0.72580501011E+03  0.00000000000E+00 0. -1.
         25    1    1    2    0    0 -0.12801576105E+03 -0.39045449844E+02  0.57309562249E+02  0.19189051085E+03  0.12500000000E+03 0.  0.
          1    1    1    2  502    0  0.12571867107E+03  0.72161873179E+02 -0.64946225280E+03  0.66544251292E+03  0.00000000000E+00 0. -1.
         -1    1    1    2    0  501  0.22970899791E+01 -0.33116423335E+02  0.25831059584E+03  0.26043490173E+03  0.00000000000E+00 0.  1.
<mgrwt>
<rscale>  0 0.69161910E+02</rscale>
<asrwt>0</asrwt>
<pdfrwt beam="2">  1        1 0.11166231E+00 0.14409478E+03</pdfrwt>
<pdfrwt beam="1">  1       -1 0.60301987E-01 0.33195995E+02</pdfrwt>
<totfact> 0.82561998E+01</totfact>
</mgrwt>
</event>
<event>
 5    1  0.7156190E-003  0.1379492E+03  0.7546771E-02  0.1354198E+00
          2   -1    0    0  501    0  0.00000000000E+00  0.00000000000E+00  0.35598923790E+03  0.35598923790E+03  0.00000000000E+00 0. -1.
          1   -1    0    0  502    0 -0.00000000000E+00 -0.00000000000E+00 -0.18227062345E+04  0.18227062345E+04  0.00000000000E+00 0. -1.
         25    1    1    2    0    0  0.11629456242E+03  0.11562594616E+03 -0.67081155127E+03  0.70178837408E+03  0.12500000000E+03 0.  0.
          2    1    1    2  501    0 -0.11289014076E+03 -0.78449438444E+02  0.32630225860E+03  0.35407861026E+03  0.00000000000E+00 0. -1.
          1    1    1    2  502    0 -0.34044216561E+01 -0.37176507716E+02 -0.11222077040E+04  0.11228284881E+04  0.00000000000E+00 0. -1.
<mgrwt>
<rscale>  0 0.71763006E+02</rscale>
<asrwt>0</asrwt>
<pdfrwt beam="1">  1        2 0.54767576E-01 0.13794923E+03</pdfrwt>
<pdfrwt beam="2">  1        1 0.28041634E+00 0.37332061E+02</pdfrwt>
<totfact> 0.68656025E+01</totfact>
</mgrwt>
</event>
<event>
 5    1  0.7156190E-003  0.1407070E+03  0.7546771E-02  0.1264888E+00
          2   -1    0    0  501    0  0.00000000000E+00  0.00000000000E+00  0.93287392985E+03  0.93287392985E+03  0.00000000000E+00 0.  1.
          1   -1    0    0  502    0 -0.00000000000E+00 -0.00000000000E+00 -0.31863749227E+03  0.31863749227E+03  0.00000000000E+00 0. -1.
         25    1    1    2    0    0  0.24721437824E+01 -0.19508148003E+03 -0.58383511169E+01  0.23178002867E+03  0.12500000000E+03 0.  0.
          2    1    1    2  501    0 -0.43640116786E+02  0.69938149443E+02  0.79582691158E+03  0.80008516905E+03  0.00000000000E+00 0.  1.
          1    1    1    2  502    0  0.41167973003E+02  0.12514333059E+03 -0.17575212288E+03  0.21964622439E+03  0.00000000000E+00 0. -1.
<mgrwt>
<rscale>  0 0.10770057E+03</rscale>
<asrwt>0</asrwt>
<pdfrwt beam="1">  1        2 0.14351906E+00 0.82436670E+02</pdfrwt>
<pdfrwt beam="2">  1        1 0.49021153E-01 0.14070697E+03</pdfrwt>
<totfact> 0.33967853E+02</totfact>
</mgrwt>
</event>
<event>
 5    1  0.7156190E-003  0.3563912E+02  0.7546771E-02  0.1553093E+00
          2   -1    0    0  501    0  0.00000000000E+00  0.00000000000E+00  0.93640242532E+03  0.93640242532E+03  0.00000000000E+00 0.  1.
          1   -1    0    0  502    0 -0.00000000000E+00 -0.00000000000E+00 -0.10428212412E+04  0.10428212412E+04  0.00000000000E+00 0. -1.
         25    1    1    2    0    0 -0.65100489332E+02  0.35790434053E+01  0.50546012211E+03  0.52475310223E+03  0.12500000000E+03 0.  0.
          2    1    1    2  501    0  0.31994060974E+02  0.95738180143E+01  0.42032624778E+03  0.42165084194E+03  0.00000000000E+00 0.  1.
          1    1    1    2  502    0  0.33106428358E+02 -0.13152861420E+02 -0.10322051858E+04  0.10328197223E+04  0.00000000000E+00 0. -1.
<mgrwt>
<rscale>  0 0.34499217E+02</rscale>
<asrwt>0</asrwt>
<pdfrwt beam="1">  1        2 0.14406191E+00 0.33395777E+02</pdfrwt>
<pdfrwt beam="2">  1        1 0.16043404E+00 0.35639115E+02</pdfrwt>
<totfact> 0.74436524E+01</totfact>
</mgrwt>
</event>
<event>
 5    1  0.7156190E-003  0.1301744E+03  0.7546771E-02  0.1318345E+00
          2   -1    0    0  501    0  0.00000000000E+00  0.00000000000E+00  0.78460477897E+03  0.78460477897E+03  0.00000000000E+00 0. -1.
          1   -1    0    0  502    0 -0.00000000000E+00 -0.00000000000E+00 -0.47102877711E+03  0.47102877711E+03  0.00000000000E+00 0. -1.
         25    1    1    2    0    0  0.14986073414E+03 -0.87295906532E+02 -0.31268358907E+03  0.37878073051E+03  0.12500000000E+03 0.  0.
          2    1    1    2  501    0 -0.95790718657E+02  0.87192714025E+02  0.73982165144E+03  0.75107556684E+03  0.00000000000E+00 0. -1.
          1    1    1    2  502    0 -0.54070015486E+02  0.10319250699E+00 -0.11356206052E+03  0.12577725873E+03  0.00000000000E+00 0. -1.
<mgrwt>
<rscale>  0 0.83896022E+02</rscale>
<asrwt>0</asrwt>
<pdfrwt beam="1">  1        2 0.12070843E+00 0.13017436E+03</pdfrwt>
<pdfrwt beam="2">  1        1 0.72465966E-01 0.54070114E+02</pdfrwt>
<totfact> 0.25827299E+02</totfact>
</mgrwt>
</event>
<event>
 5    1  0.7156190E-003  0.1983568E+03  0.7546771E-02  0.1204567E+00
          2   -1    0    0  501    0  0.00000000000E+00  0.00000000000E+00  0.12658356811E+04  0.12658356811E+04  0.00000000000E+00 0. -1.
          1   -1    0    0  502    0 -0.00000000000E+00 -0.00000000000E+00 -0.15533698174E+04  0.15533698174E+04  0.00000000000E+00 0. -1.
         25    1    1    2    0    0 -0.28089413333E+03 -0.99359933231E+02 -0.10127979082E+03  0.33860966688E+03  0.12500000000E+03 0.  0.
          2    1    1    2  501    0  0.17280149436E+03  0.89732227804E+02  0.11366708202E+04  0.11532271167E+04  0.00000000000E+00 0. -1.
          1    1    1    2  502    0  0.10809263897E+03  0.96277054279E+01 -0.13229251657E+04  0.13273687149E+04  0.00000000000E+00 0. -1.
<mgrwt>
<rscale>  0 0.14671670E+03</rscale>
<asrwt>0</asrwt>
<pdfrwt beam="1">  1        2 0.19474395E+00 0.19835680E+03</pdfrwt>
<pdfrwt beam="2">  1        1 0.23897997E+00 0.10852056E+03</pdfrwt>
<totfact> 0.18551263E+01</totfact>
</mgrwt>
</event>
<event>
 5    1  0.7156190E-003  0.7730464E+02  0.7546771E-02  0.1434007E+00
         -1   -1    0    0    0  501 -0.00000000000E+00  0.00000000000E+00  0.39492370682E+02  0.39492370682E+02  0.00000000000E+00 0.  1.
          2   -1    0    0  502    0  0.00000000000E+00 -0.00000000000E+00 -0.53880822785E+03  0.53880822785E+03  0.00000000000E+00 0. -1.
         25    1    1    2    0    0 -0.81180741198E+02 -0.26874664802E+02 -0.40238455704E+03  0.42994289399E+03  0.12500000000E+03 0.  0.
          2    1    1    2  502    0  0.24566184565E+02 -0.25209435185E+02 -0.34446602005E+02  0.49250192245E+02  0.00000000000E+00 0. -1.
         -1    1    1    2    0  501  0.56614556633E+02  0.52084099987E+02 -0.62484698125E+02  0.99107512299E+02  0.00000000000E+00 0.  1.
<mgrwt>
<rscale>  0 0.52164103E+02</rscale>
<asrwt>0</asrwt>
<pdfrwt beam="2">  1        2 0.82893569E-01 0.35199617E+02</pdfrwt>
<pdfrwt beam="1">  1       -1 0.60757497E-02 0.77304637E+02</pdfrwt>
<totfact> 0.79555962E+03</totfact>
</mgrwt>
</event>
<event>
 5    1  0.7156190E-003  0.3637090E+02  0.7546771E-02  0.1564416E+00
          1   -1    0    0  502    0  0.00000000000E+00  0.00000000000E+00  0.80381316731E+03  0.80381316731E+03  0.00000000000E+00 0. -1.
         -3   -1    0    0    0  501 -0.00000000000E+00 -0.00000000000E+00 -0.72200110926E+02  0.72200110926E+02  0.00000000000E+00 0.  1.
         25    1    1    2    0    0  0.12969568193E+02 -0.47642768943E+02  0.22368507426E+02  0.13624754404E+03  0.12500000000E+03 0.  0.
          1    1    1    2  502    0  0.14020292204E+02  0.33536187767E+02  0.70836707568E+03  0.70929906132E+03  0.00000000000E+00 0. -1.
         -3    1    1    2    0  501 -0.26989860397E+02  0.14106581177E+02  0.87747327630E+00  0.30466672876E+02  0.00000000000E+00 0.  1.
<mgrwt>
<rscale>  0 0.33281237E+02</rscale>
<asrwt>0</asrwt>
<pdfrwt beam="1">  1        1 0.12366356E+00 0.36370904E+02</pdfrwt>
<pdfrwt beam="2">  1       -3 0.11107710E-01 0.30454034E+02</pdfrwt>
<totfact> 0.66816483E+02</totfact>
</mgrwt>
</event>
<event>
 5    1  0.7156190E-003  0.4463710E+02  0.7546771E-02  0.1544955E+00
          1   -1    0    0  501    0  0.00000000000E+00  0.00000000000E+00  0.28723625423E+02  0.28723625423E+02  0.00000000000E+00 0. -1.
          3   -1    0    0  502    0 -0.00000000000E+00 -0.00000000000E+00 -0.66717342843E+03  0.66717342843E+03  0.00000000000E+00 0. -1.
         25    1    1    2    0    0  0.37320593868E+02  0.16644581424E+02 -0.43985163692E+03  0.45909076588E+03  0.12500000000E+03 0.  0.
          1    1    1    2  501    0 -0.44128933013E+02  0.10614510657E+02 -0.10454162870E+02  0.46575960395E+02  0.00000000000E+00 0. -1.
          3    1    1    2  502    0  0.68083391454E+01 -0.27259092081E+02 -0.18814400322E+03  0.19023032758E+03  0.00000000000E+00 0. -1.
<mgrwt>
<rscale>  0 0.35413908E+02</rscale>
<asrwt>0</asrwt>
<pdfrwt beam="1">  1        1 0.44190197E-02 0.44637099E+02</pdfrwt>
<pdfrwt beam="2">  1        3 0.10264206E+00 0.28096469E+02</pdfrwt>
<totfact> 0.72601659E+02</totfact>
</mgrwt>
</event>
<event>
 5    1  0.7156190E-003  0.1050590E+03  0.7546771E-02  0.1282708E+00
         -2   -1    0    0    0  501  0.00000000000E+00  0.00000000000E+00  0.45382635018E+03  0.45382635018E+03  0.00000000000E+00 0.  1.
         -1   -1    0    0    0  502 -0.00000000000E+00 -0.00000000000E+00 -0.22420778714E+03  0.22420778714E+03  0.00000000000E+00 0.  1.
         25    1    1    2    0    0  0.11112322156E+03 -0.42646296000E+02  0.16056242457E+03  0.23573792464E+03  0.12500000000E+03 0.  0.
         -2    1    1    2    0  501 -0.98506450216E+02 -0.49523818069E+02  0.23075714927E+03  0.25574399549E+03  0.00000000000E+00 0.  1.
         -1    1    1    2    0  502 -0.12616771342E+02  0.92170114070E+02 -0.16170101079E+03  0.18655221719E+03  0.00000000000E+00 0.  1.
<mgrwt>
<rscale>  0 0.98861514E+02</rscale>
<asrwt>0</asrwt>
<pdfrwt beam="1">  1       -2 0.69819438E-01 0.10505898E+03</pdfrwt>
<pdfrwt beam="2">  1       -1 0.34493506E-01 0.93029634E+02</pdfrwt>
<totfact> 0.11541411E+02</totfact>
</mgrwt>
</event>
<event>
 5    1  0.7156190E-003  0.3426117E+02  0.7546771E-02  0.1600779E+00
          2   -1    0    0  501    0  0.00000000000E+00  0.00000000000E+00  0.67290910146E+02  0.67290910146E+02  0.00000000000E+00 0. -1.
          1   -1    0    0  502    0 -0.00000000000E+00 -0.00000000000E+00 -0.19456427873E+04  0.19456427873E+04  0.00000000000E+00 0. -1.
         25    1    1    2    0    0  0.13812092730E+02  0.35945636811E+00 -0.33844773717E+03  0.36105785396E+03  0.12500000000E+03 0.  0.
          2    1    1    2  501    0 -0.25521728462E+02 -0.23401599662E+02  0.50516783367E+02  0.61244909112E+02  0.00000000000E+00 0. -1.
          1    1    1    2  502    0  0.11709635732E+02  0.23042143294E+02 -0.15904209234E+04  0.15906309344E+04  0.00000000000E+00 0. -1.
<mgrwt>
<rscale>  0 0.29758038E+02</rscale>
<asrwt>0</asrwt>
<pdfrwt beam="1">  1        2 0.10352449E-01 0.34261168E+02</pdfrwt>
<pdfrwt beam="2">  1        1 0.29932962E+00 0.25846778E+02</pdfrwt>
<totfact> 0.35838811E+02</totfact>
</mgrwt>
</event>
<event>
 5    1  0.7156190E-003  0.3761153E+02  0.7546771E-02  0.1558556E+00
          1   -1    0    0  502    0  0.00000000000E+00  0.00000000000E+00  0.36567090026E+03  0.36567090026E+03  0.00000000000E+00 0. -1.
         -2   -1    0    0    0  501 -0.00000000000E+00 -0.00000000000E+00 -0.37659025812E+02  0.37659025812E+02  0.00000000000E+00 0.  1.
         25    1    1    2    0    0 -0.11794177909E+02  0.53131374316E+02  0.21616310903E+03  0.25556512922E+03  0.12500000000E+03 0.  0.
          1    1    1    2  502    0 -0.14158113138E+02 -0.27084353866E+02  0.10626705975E+03  0.11057442010E+03  0.00000000000E+00 0. -1.
         -2    1    1    2    0  501  0.25952291047E+02 -0.26047020450E+02  0.55817056711E+01  0.37190376754E+02  0.00000000000E+00 0.  1.
<mgrwt>
<rscale>  0 0.33903839E+02</rscale>
<asrwt>0</asrwt>
<pdfrwt beam="1">  1        1 0.56257059E-01 0.30561649E+02</pdfrwt>
<pdfrwt beam="2">  1       -2 0.57936965E-02 0.37611528E+02</pdfrwt>
<totfact> 0.78953764E+03</totfact>
</mgrwt>
</event>
<event>
 5    1  0.7156190E-003  0.1161250E+03  0.7546771E-02  0.1264925E+00
          2   -1    0    0  501    0  0.00000000000E+00  0.00000000000E+00  0.32792481417E+03  0.32792481417E+03  0.00000000000E+00 0.  1.
          1   -1    0    0  502    0 -0.00000000000E+00 -0.00000000000E+00 -0.38252649323E+03  0.38252649323E+03  0.00000000000E+00 0. -1.
         25    1    1    2    0    0  0.84743926922E+02  0.12508286229E+03  0.10549679631E+03  0.22266977707E+03  0.12500000000E+03 0.  0.
          2    1    1    2  501    0 -0.99361972313E+02 -0.98805120986E+01  0.13657869842E+03  0.16918678117E+03  0.00000000000E+00 0.  1.
          1    1    1    2  502    0  0.14618045392E+02 -0.11520235019E+03 -0.29667717379E+03  0.31859474915E+03  0.00000000000E+00 0. -1.
<mgrwt>
<rscale>  0 0.10768153E+03</rscale>
<asrwt>0</asrwt>
<pdfrwt beam="1">  1        2 0.50449971E-01 0.99852021E+02</pdfrwt>
<pdfrwt beam="2">  1        1 0.58850230E-01 0.11612495E+03</pdfrwt>
<totfact> 0.87389672E+02</totfact>
</mgrwt>
</event>
<event>
 5    1  0.7156190E-003  0.5046756E+02  0.7546771E-02  0.1453712E+00
          2   -1    0    0  501    0  0.00000000000E+00  0.00000000000E+00  0.25729162841E+04  0.25729162841E+04  0.00000000000E+00 0. -1.
          1   -1    0    0  502    0 -0.00000000000E+00 -0.00000000000E+00 -0.61155413097E+03  0.61155413097E+03  0.00000000000E+00 0. -1.
         25    1    1    2    0    0 -0.19287332943E+02  0.56794972542E+01  0.29673675332E+03  0.32261735644E+03  0.12500000000E+03 0.  0.
          2    1    1    2  501    0  0.34103227117E+02  0.38473212180E+02  0.22620408659E+04  0.22626250456E+04  0.00000000000E+00 0. -1.
          1    1    1    2  502    0 -0.14815894174E+02 -0.44152709435E+02 -0.59741546608E+03  0.59922801301E+03  0.00000000000E+00 0. -1.
<mgrwt>
<rscale>  0 0.48480789E+02</rscale>
<asrwt>0</asrwt>
<pdfrwt beam="1">  1        2 0.39583327E+00 0.50467563E+02</pdfrwt>
<pdfrwt beam="2">  1        1 0.94085252E-01 0.46572229E+02</pdfrwt>
<totfact> 0.23014182E+01</totfact>
</mgrwt>
</event>
<event>
 5    1  0.7156190E-003  0.1861085E+03  0.7546771E-02  0.1214310E+00
          2   -1    0    0  502    0  0.00000000000E+00  0.00000000000E+00  0.77949958437E+03  0.77949958437E+03  0.00000000000E+00 0. -1.
          2   -1    0    0  501    0 -0.00000000000E+00 -0.00000000000E+00 -0.82629447584E+03  0.82629447584E+03  0.00000000000E+00 0. -1.
         25    1    1    2    0    0 -0.19767842246E+03 -0.97436077066E+02  0.47612250208E+03  0.53934050915E+03  0.12500000000E+03 0.  0.
          2    1    1    2  501    0  0.97532036187E+02 -0.36745649519E+02 -0.76502370731E+03  0.77209067705E+03  0.00000000000E+00 0. -1.
          2    1    1    2  502    0  0.10014638627E+03  0.13418172658E+03  0.24210631375E+03  0.29436287401E+03  0.00000000000E+00 0. -1.
<mgrwt>
<rscale>  0 0.13927332E+03</rscale>
<asrwt>0</asrwt>
<pdfrwt beam="1">  1        2 0.11992301E+00 0.18610846E+03</pdfrwt>
<pdfrwt beam="2">  1        2 0.12712223E+00 0.10422447E+03</pdfrwt>
<totfact> 0.20471775E+02</totfact>
</mgrwt>
</event>
<event>
 5    1  0.7156190E-003  0.8404404E+02  0.7546771E-02  0.1357867E+00
          2   -1    0    0  502    0  0.00000000000E+00  0.00000000000E+00  0.18147984244E+04  0.18147984244E+04  0.00000000000E+00 0. -1.
         -1   -1    0    0    0  501 -0.00000000000E+00 -0.00000000000E+00 -0.23206593372E+03  0.23206593372E+03  0.00000000000E+00 0.  1.
         25    1    1    2    0    0  0.30503237937E+02  0.10788048394E+02  0.16703958169E+03  0.21112567670E+03  0.12500000000E+03 0.  0.
          2    1    1    2  502    0  0.29914996599E+02  0.51323428872E+02  0.16162094635E+04  0.16173008475E+04  0.00000000000E+00 0. -1.
         -1    1    1    2    0  501 -0.60418234537E+02 -0.62111477266E+02 -0.20051655450E+03  0.21843783395E+03  0.00000000000E+00 0.  1.
<mgrwt>
<rscale>  0 0.70658825E+02</rscale>
<asrwt>0</asrwt>
<pdfrwt beam="1">  1        2 0.27919975E+00 0.59405399E+02</pdfrwt>
<pdfrwt beam="2">  1       -1 0.35702452E-01 0.84044037E+02</pdfrwt>
<totfact> 0.92904333E+01</totfact>
</mgrwt>
</event>
<event>
 5    1  0.7156190E-003  0.8331723E+02  0.7546771E-02  0.1362524E+00
          3   -1    0    0  502    0 -0.00000000000E+00  0.00000000000E+00  0.70013476410E+03  0.70013476410E+03  0.00000000000E+00 0. -1.
          2   -1    0    0  501    0  0.00000000000E+00 -0.00000000000E+00 -0.18633078729E+03  0.18633078729E+03  0.00000000000E+00 0. -1.
         25    1    1    2    0    0  0.96109734185E+02  0.25524272781E+02  0.41474992940E+02  0.16502649649E+03  0.12500000000E+03 0.  0.
          2    1    1    2  501    0 -0.53255614059E+02 -0.64048463945E+02 -0.10904320473E+03  0.13721802600E+03  0.00000000000E+00 0. -1.
          3    1    1    2  502    0 -0.42854120126E+02  0.38524191164E+02  0.58137218861E+03  0.58422102889E+03  0.00000000000E+00 0. -1.
<mgrwt>
<rscale>  0 0.69290101E+02</rscale>
<asrwt>0</asrwt>
<pdfrwt beam="2">  1        2 0.28666275E-01 0.83317232E+02</pdfrwt>
<pdfrwt beam="1">  1        3 0.10771304E+00 0.57624551E+02</pdfrwt>
<totfact> 0.83008974E+01</totfact>
</mgrwt>
</event>
<event>
 5    1  0.7156190E-003  0.8827292E+02  0.7546771E-02  0.1428368E+00
          2   -1    0    0  502    0  0.00000000000E+00  0.00000000000E+00  0.94655039440E+03  0.94655039440E+03  0.00000000000E+00 0. -1.
         -2   -1    0    0    0  501 -0.00000000000E+00 -0.00000000000E+00 -0.99028462612E+02  0.99028462612E+02  0.00000000000E+00 0.  1.
         25    1    1    2    0    0 -0.78523424842E+02 -0.13319813590E+02  0.19810308679E+03  0.24741297193E+03  0.12500000000E+03 0.  0.
          2    1    1    2  502    0  0.96871691259E+00 -0.32155122992E+02  0.69611522647E+03  0.69685816266E+03  0.00000000000E+00 0. -1.
         -2    1    1    2    0  501  0.77554707930E+02  0.45474936582E+02 -0.46696381473E+02  0.10130772242E+03  0.00000000000E+00 0.  1.
<mgrwt>
<rscale>  0 0.53288971E+02</rscale>
<asrwt>0</asrwt>
<pdfrwt beam="1">  1        2 0.14562313E+00 0.32169712E+02</pdfrwt>
<pdfrwt beam="2">  1       -2 0.15235149E-01 0.88272921E+02</pdfrwt>
<totfact> 0.99956663E+02</totfact>
</mgrwt>
</event>
<event>
 5    1  0.7156190E-003  0.6383168E+02  0.7546771E-02  0.1388082E+00
          2   -1    0    0  501    0  0.00000000000E+00  0.00000000000E+00  0.42543779128E+03  0.42543779128E+03  0.00000000000E+00 0.  1.
          1   -1    0    0  502    0 -0.00000000000E+00 -0.00000000000E+00 -0.25808998434E+03  0.25808998434E+03  0.00000000000E+00 0. -1.
         25    1    1    2    0    0 -0.24510626217E+02  0.12011449103E+03 -0.93853189054E+02  0.19864964850E+03  0.12500000000E+03 0.  0.
          2    1    1    2  501    0  0.41930887139E+01 -0.62625686955E+02  0.36182140216E+03  0.36722511586E+03  0.00000000000E+00 0.  1.
          1    1    1    2  502    0  0.20317537503E+02 -0.57488804072E+02 -0.10062040616E+03  0.11765301126E+03  0.00000000000E+00 0. -1.
<mgrwt>
<rscale>  0 0.62386211E+02</rscale>
<asrwt>0</asrwt>
<pdfrwt beam="1">  1        2 0.65451968E-01 0.63831677E+02</pdfrwt>
<pdfrwt beam="2">  1        1 0.39706152E-01 0.60973477E+02</pdfrwt>
<totfact> 0.10777966E+03</totfact>
</mgrwt>
</event>
<event>
 5    1  0.7156190E-003  0.1871125E+03  0.7546771E-02  0.1338749E+00
          1   -1    0    0  502    0 -0.00000000000E+00  0.00000000000E+00  0.26385969901E+04  0.26385969901E+04  0.00000000000E+00 0. -1.
          2   -1    0    0  501    0  0.00000000000E+00 -0.00000000000E+00 -0.77717207596E+03  0.77717207596E+03  0.00000000000E+00 0. -1.
         25    1    1    2    0    0 -0.16653101228E+03  0.77718186732E+01  0.11952481111E+04  0.12132749179E+04  0.12500000000E+03 0.  0.
          2    1    1    2  501    0  0.18660011270E+03  0.16407827412E+02 -0.75656282434E+03  0.77940754810E+03  0.00000000000E+00 0. -1.
          1    1    1    2  502    0 -0.20069100420E+02 -0.24179646085E+02  0.14227396273E+04  0.14230866001E+04  0.00000000000E+00 0. -1.
<mgrwt>
<rscale>  0 0.76679151E+02</rscale>
<asrwt>0</asrwt>
<pdfrwt beam="2">  1        2 0.11956494E+00 0.18711247E+03</pdfrwt>
<pdfrwt beam="1">  1        1 0.40593799E+00 0.31423305E+02</pdfrwt>
<totfact> 0.92375698E+00</totfact>
</mgrwt>
</event>
<event>
 5    1  0.7156190E-003  0.1852402E+03  0.7546771E-02  0.1222105E+00
          2   -1    0    0  501    0  0.00000000000E+00  0.00000000000E+00  0.11377957805E+04  0.11377957805E+04  0.00000000000E+00 0. -1.
          3   -1    0    0  502    0 -0.00000000000E+00 -0.00000000000E+00 -0.14268041537E+03  0.14268041537E+03  0.00000000000E+00 0. -1.
         25    1    1    2    0    0  0.94074972543E+02 -0.68923594256E+02  0.50394739082E+03  0.53215461571E+03  0.12500000000E+03 0.  0.
          2    1    1    2  501    0  0.95161803209E+02  0.15778351100E+02  0.53773881849E+03  0.54632203147E+03  0.00000000000E+00 0. -1.
          3    1    1    2  502    0 -0.18923677575E+03  0.53145243156E+02 -0.46570844146E+02  0.20199954874E+03  0.00000000000E+00 0. -1.
<mgrwt>
<rscale>  0 0.13367296E+03</rscale>
<asrwt>0</asrwt>
<pdfrwt beam="1">  1        2 0.17504550E+00 0.96461003E+02</pdfrwt>
<pdfrwt beam="2">  1        3 0.21950834E-01 0.18524024E+03</pdfrwt>
<totfact> 0.26937821E+02</totfact>
</mgrwt>
</event>
<event>
 5    1  0.7156190E-003  0.9333754E+02  0.7546771E-02  0.1416733E+00
          2   -1    0    0  502    0  0.00000000000E+00  0.00000000000E+00  0.19341215910E+04  0.19341215910E+04  0.00000000000E+00 0. -1.
         -1   -1    0    0    0  501 -0.00000000000E+00 -0.00000000000E+00 -0.11891622671E+02  0.11891622671E+02  0.00000000000E+00 0.  1.
         25    1    1    2    0    0 -0.45886357242E+02 -0.83769774061E+02  0.13650079221E+04  0.13740431435E+04  0.12500000000E+03 0.  0.
          2    1    1    2  502    0  0.13931322353E+02  0.92998739193E+02  0.44945510260E+03  0.45918703868E+03  0.00000000000E+00 0. -1.
         -1    1    1    2    0  501  0.31955034889E+02 -0.92289651322E+01  0.10776694362E+03  0.11278303148E+03  0.00000000000E+00 0.  1.
<mgrwt>
<rscale>  0 0.55718088E+02</rscale>
<asrwt>0</asrwt>
<pdfrwt beam="1">  1        2 0.29755692E+00 0.93337536E+02</pdfrwt>
<pdfrwt beam="2">  1       -1 0.18294819E-02 0.33261059E+02</pdfrwt>
<totfact> 0.59520966E+03</totfact>
</mgrwt>
</event>
<event>
 5    1  0.7156190E-003  0.3796431E+02  0.7546771E-02  0.1534565E+00
          2   -1    0    0  502    0  0.00000000000E+00  0.00000000000E+00  0.24122259581E+04  0.24122259581E+04  0.00000000000E+00 0. -1.
         -1   -1    0    0    0  501 -0.00000000000E+00 -0.00000000000E+00 -0.46694330194E+01  0.46694330194E+01  0.00000000000E+00 0.  1.
         25    1    1    2    0    0  0.38460250400E+02  0.87963401381E+01  0.16314245840E+04  0.16366819299E+04  0.12500000000E+03 0.  0.
          2    1    1    2  502    0 -0.12398438678E+02 -0.36401966943E+02  0.50113890748E+03  0.50261220545E+03  0.00000000000E+00 0. -1.
         -1    1    1    2    0  501 -0.26061811722E+02  0.27605626805E+02  0.27499303363E+03  0.27760125578E+03  0.00000000000E+00 0.  1.
<mgrwt>
<rscale>  0 0.36632290E+02</rscale>
<asrwt>0</asrwt>
<pdfrwt beam="1">  1        2 0.37111069E+00 0.35347008E+02</pdfrwt>
<pdfrwt beam="2">  1       -1 0.71837624E-03 0.37964308E+02</pdfrwt>
<totfact> 0.14415155E+04</totfact>
</mgrwt>
</event>
<event>
 5    1  0.7156190E-003  0.7450417E+02  0.7546771E-02  0.1437408E+00
         -3   -1    0    0    0  502 -0.00000000000E+00  0.00000000000E+00  0.17508869691E+03  0.17508869691E+03  0.00000000000E+00 0.  1.
         -1   -1    0    0    0  501  0.00000000000E+00 -0.00000000000E+00 -0.63888538072E+03  0.63888538072E+03  0.00000000000E+00 0.  1.
         25    1    1    2    0    0  0.40318483224E+02 -0.14376723209E+02  0.60297767515E+02  0.14523460685E+03  0.12500000000E+03 0.  0.
         -1    1    1    2    0  501 -0.62109850197E+02  0.42528637633E+02 -0.58949263784E+03  0.59427930183E+03  0.00000000000E+00 0.  1.
         -3    1    1    2    0  502  0.21791366973E+02 -0.28151914424E+02  0.65398186516E+02  0.74460168949E+02  0.00000000000E+00 0.  1.
<mgrwt>
<rscale>  0 0.51501300E+02</rscale>
<asrwt>0</asrwt>
<pdfrwt beam="2">  1       -1 0.98290059E-01 0.74504167E+02</pdfrwt>
<pdfrwt beam="1">  1       -3 0.26936723E-01 0.35600477E+02</pdfrwt>
<totfact> 0.57095007E+01</totfact>
</mgrwt>
</event>
<event>
 5    1  0.7156190E-003  0.6720467E+02  0.7546771E-02  0.1482267E+00
          2   -1    0    0  502    0  0.00000000000E+00  0.00000000000E+00  0.10510264063E+02  0.10510264063E+02  0.00000000000E+00 0. -1.
         -1   -1    0    0    0  501 -0.00000000000E+00 -0.00000000000E+00 -0.13879567783E+04  0.13879567783E+04  0.00000000000E+00 0.  1.
         25    1    1    2    0    0 -0.50351855799E+02 -0.31521659773E+02 -0.68688268263E+03  0.70068662333E+03  0.12500000000E+03 0.  0.
          2    1    1    2  502    0  0.91616994809E+01 -0.26974195751E+02 -0.20820052455E+03  0.21014043494E+03  0.00000000000E+00 0. -1.
         -1    1    1    2    0  501  0.41190156318E+02  0.58495855523E+02 -0.48236330711E+03  0.48763998414E+03  0.00000000000E+00 0.  1.
<mgrwt>
<rscale>  0 0.43755005E+02</rscale>
<asrwt>0</asrwt>
<pdfrwt beam="1">  1        2 0.16169631E-02 0.28487611E+02</pdfrwt>
<pdfrwt beam="2">  1       -1 0.21353190E+00 0.67204669E+02</pdfrwt>
<totfact> 0.93959140E+02</totfact>
</mgrwt>
</event>
<event>
 5    1  0.7156190E-003  0.3987641E+02  0.7546771E-02  0.1680791E+00
         -1   -1    0    0    0  501 -0.00000000000E+00  0.00000000000E+00  0.82992685035E+02  0.82992685035E+02  0.00000000000E+00 0.  1.
          2   -1    0    0  502    0  0.00000000000E+00 -0.00000000000E+00 -0.46723834810E+03  0.46723834810E+03  0.00000000000E+00 0. -1.
         25    1    1    2    0    0  0.23633824132E+01  0.10752140658E+02 -0.43559360476E+03  0.45330782324E+03  0.12500000000E+03 0.  0.
          2    1    1    2  502    0  0.36104603032E+02 -0.21256546613E+02  0.21351345192E+02  0.47024069109E+02  0.00000000000E+00 0. -1.
         -1    1    1    2    0  501 -0.38467985445E+02  0.10504405956E+02  0.29996596507E+02  0.49899140781E+02  0.00000000000E+00 0.  1.
<mgrwt>
<rscale>  0 0.23675355E+02</rscale>
<asrwt>0</asrwt>
<pdfrwt beam="2">  1        2 0.71882822E-01 0.14056491E+02</pdfrwt>
<pdfrwt beam="1">  1       -1 0.12768106E-01 0.39876415E+02</pdfrwt>
<totfact> 0.29173952E+03</totfact>
</mgrwt>
</event>
<event>
 5    1  0.7156190E-003  0.1913906E+03  0.7546771E-02  0.1248039E+00
          1   -1    0    0  502    0 -0.00000000000E+00  0.00000000000E+00  0.57445447032E+03  0.57445447032E+03  0.00000000000E+00 0. -1.
          2   -1    0    0  501    0  0.00000000000E+00 -0.00000000000E+00 -0.87156162134E+03  0.87156162134E+03  0.00000000000E+00 0.  1.
         25    1    1    2    0    0  0.21761384735E+03  0.97226523381E+02  0.39357144055E+03  0.47679373132E+03  0.12500000000E+03 0.  0.
          2    1    1    2  501    0 -0.18763515605E+03 -0.32216731141E+02 -0.80890714542E+03  0.83100880830E+03  0.00000000000E+00 0.  1.
          1    1    1    2  502    0 -0.29978691308E+02 -0.65009792240E+02  0.11822855386E+03  0.13821355204E+03  0.00000000000E+00 0. -1.
<mgrwt>
<rscale>  0 0.11705329E+03</rscale>
<asrwt>0</asrwt>
<pdfrwt beam="2">  1        2 0.13408640E+00 0.19139058E+03</pdfrwt>
<pdfrwt beam="1">  1        1 0.88377612E-01 0.71589071E+02</pdfrwt>
<totfact> 0.17168878E+02</totfact>
</mgrwt>
</event>
<event>
 5    1  0.7156190E-003  0.1505129E+03  0.7546771E-02  0.1305118E+00
          2   -1    0    0  501    0  0.00000000000E+00  0.00000000000E+00  0.15254615299E+04  0.15254615299E+04  0.00000000000E+00 0.  1.
          3   -1    0    0  502    0 -0.00000000000E+00 -0.00000000000E+00 -0.62470153117E+02  0.62470153117E+02  0.00000000000E+00 0. -1.
         25    1    1    2    0    0  0.11595210237E+03  0.18070889177E+01  0.64999664632E+03  0.67198868729E+03  0.12500000000E+03 0.  0.
          2    1    1    2  501    0  0.36364557474E+02  0.38157146695E+02  0.74086435426E+03  0.74273706000E+03  0.00000000000E+00 0.  1.
          3    1    1    2  502    0 -0.15231665984E+03 -0.39964235612E+02  0.72130376163E+02  0.17320593569E+03  0.00000000000E+00 0. -1.
<mgrwt>
<rscale>  0 0.89070440E+02</rscale>
<asrwt>0</asrwt>
<pdfrwt beam="1">  1        2 0.23468636E+00 0.52710045E+02</pdfrwt>
<pdfrwt beam="2">  1        3 0.96107939E-02 0.15051293E+03</pdfrwt>
<totfact> 0.71652718E+02</totfact>
</mgrwt>
</event>
<event>
 5    1  0.7156190E-003  0.1620660E+03  0.7546771E-02  0.1246760E+00
          2   -1    0    0  501    0  0.00000000000E+00  0.00000000000E+00  0.10867784127E+04  0.10867784127E+04  0.00000000000E+00 0.  1.
          2   -1    0    0  502    0 -0.00000000000E+00 -0.00000000000E+00 -0.43476588677E+03  0.43476588677E+03  0.00000000000E+00 0. -1.
         25    1    1    2    0    0  0.25171037082E+02 -0.10414413235E+03 -0.10962684344E+02  0.16499927836E+03  0.12500000000E+03 0.  0.
          2    1    1    2  501    0  0.36909150929E+02  0.16312896382E+03  0.99740232030E+03  0.10113282023E+04  0.00000000000E+00 0.  1.
          2    1    1    2  502    0 -0.62080188011E+02 -0.58984831462E+02 -0.33442711001E+03  0.34521681882E+03  0.00000000000E+00 0. -1.
<mgrwt>
<rscale>  0 0.11780635E+03</rscale>
<asrwt>0</asrwt>
<pdfrwt beam="1">  1        2 0.16719668E+00 0.16206597E+03</pdfrwt>
<pdfrwt beam="2">  1        2 0.66887060E-01 0.85633872E+02</pdfrwt>
<totfact> 0.27406716E+02</totfact>
</mgrwt>
</event>
<event>
 5    1  0.7156190E-003  0.8351952E+02  0.7546771E-02  0.1436821E+00
          2   -1    0    0  502    0  0.00000000000E+00  0.00000000000E+00  0.21433197251E+03  0.21433197251E+03  0.00000000000E+00 0. -1.
         -1   -1    0    0    0  501 -0.00000000000E+00 -0.00000000000E+00 -0.10871716890E+03  0.10871716890E+03  0.00000000000E+00 0.  1.
         25    1    1    2    0    0  0.76423044085E+02 -0.53347703057E+02  0.12486035924E+03  0.19975376942E+03  0.12500000000E+03 0.  0.
          2    1    1    2  502    0 -0.45756564940E+02  0.62124782784E+02  0.12649840398E+02  0.78186765716E+02  0.00000000000E+00 0. -1.
         -1    1    1    2    0  501 -0.30666479145E+02 -0.87770797269E+01 -0.31895396026E+02  0.45108606267E+02  0.00000000000E+00 0.  1.
<mgrwt>
<rscale>  0 0.51614820E+02</rscale>
<asrwt>0</asrwt>
<pdfrwt beam="1">  1        2 0.32974150E-01 0.83519523E+02</pdfrwt>
<pdfrwt beam="2">  1       -1 0.16725718E-01 0.31897807E+02</pdfrwt>
<totfact> 0.42883717E+03</totfact>
</mgrwt>
</event>
<event>
 5    1  0.7156190E-003  0.7284022E+02  0.7546771E-02  0.1363893E+00
          2   -1    0    0  501    0  0.00000000000E+00  0.00000000000E+00  0.32561082115E+04  0.32561082115E+04  0.00000000000E+00 0. -1.
          3   -1    0    0  502    0 -0.00000000000E+00 -0.00000000000E+00 -0.72878853341E+01  0.72878853341E+01  0.00000000000E+00 0.  1.
         25    1    1    2    0    0 -0.19362725372E+02  0.27078563126E+02  0.15999544057E+04  0.16051751506E+04  0.12500000000E+03 0.  0.
          2    1    1    2  501    0 -0.44829355399E+01  0.72702143065E+02  0.74447762316E+03  0.74803250578E+03  0.00000000000E+00 0. -1.
          3    1    1    2  502    0  0.23845660911E+02 -0.99780706192E+02  0.90438829729E+03  0.91018844046E+03  0.00000000000E+00 0.  1.
<mgrwt>
<rscale>  0 0.68894676E+02</rscale>
<asrwt>0</asrwt>
<pdfrwt beam="1">  1        2 0.50093856E+00 0.65162846E+02</pdfrwt>
<pdfrwt beam="2">  1        3 0.11212157E-02 0.72840225E+02</pdfrwt>
<totfact> 0.21864748E+03</totfact>
</mgrwt>
</event>
<event>
 5    1  0.7156190E-003  0.9970892E+02  0.7546771E-02  0.1411939E+00
         -3   -1    0    0    0  502 -0.00000000000E+00  0.00000000000E+00  0.53131432944E+02  0.53131432944E+02  0.00000000000E+00 0.  1.
         -2   -1    0    0    0  501  0.00000000000E+00 -0.00000000000E+00 -0.43538275611E+03  0.43538275611E+03  0.00000000000E+00 0.  1.
         25    1    1    2    0    0  0.27789509402E+02 -0.90054139710E+02 -0.14831750858E+03  0.21565038433E+03  0.12500000000E+03 0.  0.
         -2    1    1    2    0  501 -0.60102359140E+02  0.89685304201E+02 -0.18578222044E+03  0.21487387183E+03  0.00000000000E+00 0.  1.
         -3    1    1    2    0  502  0.32312849738E+02  0.36883550882E+00 -0.48151594156E+02  0.57989932898E+02  0.00000000000E+00 0.  1.
<mgrwt>
<rscale>  0 0.56763449E+02</rscale>
<asrwt>0</asrwt>
<pdfrwt beam="2">  1       -2 0.66981961E-01 0.32314955E+02</pdfrwt>
<pdfrwt beam="1">  1       -3 0.81740668E-02 0.99708917E+02</pdfrwt>
<totfact> 0.81598304E+02</totfact>
</mgrwt>
</event>
<event>
 5    1  0.7156190E-003  0.4184524E+02  0.7546771E-02  0.1539006E+00
          1   -1    0    0  502    0  0.00000000000E+00  0.00000000000E+00  0.52171185713E+03  0.52171185713E+03  0.00000000000E+00 0. -1.
         -3   -1    0    0    0  501 -0.00000000000E+00 -0.00000000000E+00 -0.24668029812E+03  0.24668029812E+03  0.00000000000E+00 0.  1.
         25    1    1    2    0    0 -0.11075782761E+02  0.68540987899E+02 -0.63485699217E+02  0.15644799133E+03  0.12500000000E+03 0.  0.
          1    1    1    2  502    0 -0.31840418672E+01 -0.30988059305E+02  0.47175525999E+03  0.47278263850E+03  0.00000000000E+00 0. -1.
         -3    1    1    2    0  501  0.14259824628E+02 -0.37552928594E+02 -0.13323800176E+03  0.13916152542E+03  0.00000000000E+00 0.  1.
<mgrwt>
<rscale>  0 0.36104430E+02</rscale>
<asrwt>0</asrwt>
<pdfrwt beam="1">  1        1 0.80263363E-01 0.31151211E+02</pdfrwt>
<pdfrwt beam="2">  1       -3 0.37950815E-01 0.41845240E+02</pdfrwt>
<totfact> 0.15108424E+02</totfact>
</mgrwt>
</event>
<event>
 5    1  0.7156190E-003  0.8441144E+02  0.7546771E-02  0.1332622E+00
          1   -1    0    0  502    0 -0.00000000000E+00  0.00000000000E+00  0.25741538865E+02  0.25741538865E+02  0.00000000000E+00 0. -1.
          2   -1    0    0  501    0  0.00000000000E+00 -0.00000000000E+00 -0.18561117947E+04  0.18561117947E+04  0.00000000000E+00 0.  1.
         25    1    1    2    0    0  0.34074416151E+02  0.40928353551E+02 -0.56154873871E+03  0.57775269961E+03  0.12500000000E+03 0.  0.
          2    1    1    2  501    0  0.16410960867E+02 -0.94315377012E+02 -0.11987533406E+04  0.12025698656E+04  0.00000000000E+00 0.  1.
          1    1    1    2  502    0 -0.50485377018E+02  0.53387023460E+02 -0.70068176515E+02  0.10153076837E+03  0.00000000000E+00 0. -1.
<mgrwt>
<rscale>  0 0.78754963E+02</rscale>
<asrwt>0</asrwt>
<pdfrwt beam="2">  1        2 0.28555579E+00 0.84411439E+02</pdfrwt>
<pdfrwt beam="1">  1        1 0.39602349E-02 0.73477531E+02</pdfrwt>
<totfact> 0.27372717E+03</totfact>
</mgrwt>
</event>
<event>
 5    1  0.7156190E-003  0.2826465E+02  0.7546771E-02  0.1650201E+00
         -1   -1    0    0    0  501 -0.00000000000E+00  0.00000000000E+00  0.47152392623E+02  0.47152392623E+02  0.00000000000E+00 0.  1.
          2   -1    0    0  502    0  0.00000000000E+00 -0.00000000000E+00 -0.22628701915E+04  0.22628701915E+04  0.00000000000E+00 0.  1.
         25    1    1    2    0    0 -0.28981914415E+01 -0.80500501679E+01 -0.76950434461E+03  0.77963782566E+03  0.12500000000E+03 0.  0.
          2    1    1    2  502    0 -0.11859851607E+02  0.26329077292E+02 -0.14848691835E+04  0.14851499482E+04  0.00000000000E+00 0.  1.
         -1    1    1    2    0  501  0.14758043049E+02 -0.18279027124E+02  0.38655729199E+02  0.45234810347E+02  0.00000000000E+00 0.  1.
<mgrwt>
<rscale>  0 0.25768632E+02</rscale>
<asrwt>0</asrwt>
<pdfrwt beam="2">  1        2 0.34813384E+00 0.28264649E+02</pdfrwt>
<pdfrwt beam="1">  1       -1 0.72542150E-02 0.23493034E+02</pdfrwt>
<totfact> 0.66106441E+02</totfact>
</mgrwt>
</event>
<event>
 5    1  0.7156190E-003  0.1357181E+03  0.7546771E-02  0.1272400E+00
          1   -1    0    0  501    0  0.00000000000E+00  0.00000000000E+00  0.11086109581E+04  0.11086109581E+04  0.00000000000E+00 0. -1.
          1   -1    0    0  502    0 -0.00000000000E+00 -0.00000000000E+00 -0.48939140631E+03  0.48939140631E+03  0.00000000000E+00 0. -1.
         25    1    1    2    0    0 -0.51394691327E+02  0.27755108130E+02  0.36579688790E+03  0.39095284053E+03  0.12500000000E+03 0.  0.
          1    1    1    2  501    0 -0.72794505137E+02  0.31872727775E+02  0.71804752936E+03  0.72243142593E+03  0.00000000000E+00 0. -1.
          1    1    1    2  502    0  0.12418919646E+03 -0.59627835905E+02 -0.46462486542E+03  0.48461809799E+03  0.00000000000E+00 0. -1.
<mgrwt>
<rscale>  0 0.10385099E+03</rscale>
<asrwt>0</asrwt>
<pdfrwt beam="1">  1        1 0.17055553E+00 0.79466413E+02</pdfrwt>
<pdfrwt beam="2">  1        1 0.75290986E-01 0.13571806E+03</pdfrwt>
<totfact> 0.82516794E+01</totfact>
</mgrwt>
</event>
<event>
 5    1  0.7156190E-003  0.1247127E+03  0.7546771E-02  0.1303500E+00
          2   -1    0    0  501    0  0.00000000000E+00  0.00000000000E+00  0.33228274821E+03  0.33228274821E+03  0.00000000000E+00 0.  1.
          1   -1    0    0  502    0 -0.00000000000E+00 -0.00000000000E+00 -0.22044932970E+04  0.22044932970E+04  0.00000000000E+00 0. -1.
         25    1    1    2    0    0  0.16677967105E+03 -0.78250590024E+02 -0.90694364679E+02  0.24039359663E+03  0.12500000000E+03 0.  0.
          2    1    1    2  501    0 -0.10755988623E+03  0.52530595949E+02  0.24297576317E+03  0.27086124515E+03  0.00000000000E+00 0.  1.
          1    1    1    2  502    0 -0.59219784818E+02  0.25719994075E+02 -0.20244919473E+04  0.20255212035E+04  0.00000000000E+00 0. -1.
<mgrwt>
<rscale>  0 0.89732621E+02</rscale>
<asrwt>0</asrwt>
<pdfrwt beam="1">  1        2 0.51120422E-01 0.12471272E+03</pdfrwt>
<pdfrwt beam="2">  1        1 0.33915282E+00 0.64563930E+02</pdfrwt>
<totfact> 0.40019004E+01</totfact>
</mgrwt>
</event>
<event>
 5    1  0.7156190E-003  0.7253538E+02  0.7546771E-02  0.1500493E+00
          1   -1    0    0  501    0  0.00000000000E+00  0.00000000000E+00  0.64513731006E+03  0.64513731006E+03  0.00000000000E+00 0. -1.
          3   -1    0    0  502    0 -0.00000000000E+00 -0.00000000000E+00 -0.25023531621E+02  0.25023531621E+02  0.00000000000E+00 0. -1.
         25    1    1    2    0    0  0.55702356603E+02  0.42002361278E+01  0.44185558251E+03  0.46258161476E+03  0.12500000000E+03 0.  0.
          1    1    1    2  501    0  0.22332140059E+02  0.64766343448E+01  0.19457394078E+02  0.30319324801E+02  0.00000000000E+00 0. -1.
          3    1    1    2  502    0 -0.78034496662E+02 -0.10676870473E+02  0.15880080184E+03  0.17725990212E+03  0.00000000000E+00 0. -1.
<mgrwt>
<rscale>  0 0.41068447E+02</rscale>
<asrwt>0</asrwt>
<pdfrwt beam="1">  1        1 0.99251881E-01 0.23252339E+02</pdfrwt>
<pdfrwt beam="2">  1        3 0.38497746E-02 0.72535384E+02</pdfrwt>
<totfact> 0.56031749E+03</totfact>
</mgrwt>
</event>
<event>
 5    1  0.7156190E-003  0.6770659E+02  0.7546771E-02  0.1396218E+00
          2   -1    0    0  502    0  0.00000000000E+00  0.00000000000E+00  0.42755932748E+03  0.42755932748E+03  0.00000000000E+00 0. -1.
         -2   -1    0    0    0  501 -0.00000000000E+00 -0.00000000000E+00 -0.12833515357E+03  0.12833515357E+03  0.00000000000E+00 0.  1.
         25    1    1    2    0    0  0.99678300258E+01  0.16900424988E+02  0.90109682294E+02  0.15533749336E+03  0.12500000000E+03 0.  0.
          2    1    1    2  502    0  0.32780615692E+02  0.42732118906E+02  0.28790175905E+03  0.29289592967E+03  0.00000000000E+00 0. -1.
         -2    1    1    2    0  501 -0.42748445717E+02 -0.59632543894E+02 -0.78787267445E+02  0.10766105802E+03  0.00000000000E+00 0.  1.
<mgrwt>
<rscale>  0 0.60386176E+02</rscale>
<asrwt>0</asrwt>
<pdfrwt beam="1">  1        2 0.65778357E-01 0.53857244E+02</pdfrwt>
<pdfrwt beam="2">  1       -2 0.19743870E-01 0.67706589E+02</pdfrwt>
<totfact> 0.15369335E+03</totfact>
</mgrwt>
</event>
<event>
 5    1  0.7156190E-003  0.9406227E+02  0.7546771E-02  0.1360263E+00
          2   -1    0    0  502    0  0.00000000000E+00  0.00000000000E+00  0.18573109719E+03  0.18573109719E+03  0.00000000000E+00 0. -1.
          2   -1    0    0  501    0 -0.00000000000E+00 -0.00000000000E+00 -0.14900419523E+04  0.14900419523E+04  0.00000000000E+00 0. -1.
         25    1    1    2    0    0 -0.93422756380E+02 -0.43806940178E+02  0.80643997450E+02  0.18103953641E+03  0.12500000000E+03 0.  0.
          2    1    1    2  501    0  0.93758580195E+02 -0.82108078607E+01 -0.14256093255E+04  0.14287127205E+04  0.00000000000E+00 0. -1.
          2    1    1    2  502    0 -0.33582381490E+00  0.52017748039E+02  0.40654472929E+02  0.66020792618E+02  0.00000000000E+00 0. -1.
<mgrwt>
<rscale>  0 0.69950050E+02</rscale>
<asrwt>0</asrwt>
<pdfrwt beam="1">  1        2 0.28574014E-01 0.52018832E+02</pdfrwt>
<pdfrwt beam="2">  1        2 0.22923723E+00 0.94062270E+02</pdfrwt>
<totfact> 0.41475041E+02</totfact>
</mgrwt>
</event>
<event>
 5    1  0.7156190E-003  0.6153918E+02  0.7546771E-02  0.1464612E+00
         -2   -1    0    0    0  501 -0.00000000000E+00  0.00000000000E+00  0.66096895046E+02  0.66096895046E+02  0.00000000000E+00 0.  1.
          2   -1    0    0  502    0  0.00000000000E+00 -0.00000000000E+00 -0.11363824338E+04  0.11363824338E+04  0.00000000000E+00 0. -1.
         25    1    1    2    0    0  0.62961456669E+01  0.50304321165E+02 -0.45285980475E+02  0.14228839097E+03  0.12500000000E+03 0.  0.
          2    1    1    2  502    0 -0.29706041736E+02  0.19037313593E+02 -0.96474974496E+03  0.96539470613E+03  0.00000000000E+00 0. -1.
         -2    1    1    2    0  501  0.23409896069E+02 -0.69341634757E+02 -0.60249813277E+02  0.94796231701E+02  0.00000000000E+00 0.  1.
<mgrwt>
<rscale>  0 0.46596865E+02</rscale>
<asrwt>0</asrwt>
<pdfrwt beam="2">  1        2 0.17482806E+00 0.35282690E+02</pdfrwt>
<pdfrwt beam="1">  1       -2 0.10168753E-01 0.61539181E+02</pdfrwt>
<totfact> 0.14489698E+03</totfact>
</mgrwt>
</event>
<event>
 5    1  0.7156190E-003  0.1280570E+03  0.7546771E-02  0.1390420E+00
          2   -1    0    0  501    0  0.00000000000E+00  0.00000000000E+00  0.76037865547E+03  0.76037865547E+03  0.00000000000E+00 0. -1.
          3   -1    0    0  502    0 -0.00000000000E+00 -0.00000000000E+00 -0.38336991847E+03  0.38336991847E+03  0.00000000000E+00 0. -1.
         25    1    1    2    0    0  0.11390336962E+03 -0.60242501860E+01  0.23414718147E+03  0.28889474172E+03  0.12500000000E+03 0.  0.
          2    1    1    2  501    0  0.10318449026E+02 -0.27985052108E+02  0.48673744096E+03  0.48765045880E+03  0.00000000000E+00 0. -1.
          3    1    1    2  502    0 -0.12422181864E+03  0.34009302294E+02 -0.34387588543E+03  0.36720337342E+03  0.00000000000E+00 0. -1.
<mgrwt>
<rscale>  0 0.61802269E+02</rscale>
<asrwt>0</asrwt>
<pdfrwt beam="1">  1        2 0.11698133E+00 0.29826725E+02</pdfrwt>
<pdfrwt beam="2">  1        3 0.58979988E-01 0.12805699E+03</pdfrwt>
<totfact> 0.70917382E+01</totfact>
</mgrwt>
</event>
<event>
 5    1  0.7156190E-003  0.2036761E+03  0.7546771E-02  0.1318348E+00
          2   -1    0    0  501    0  0.00000000000E+00  0.00000000000E+00  0.12878730406E+04  0.12878730406E+04  0.00000000000E+00 0. -1.
          1   -1    0    0  502    0 -0.00000000000E+00 -0.00000000000E+00 -0.11487003547E+04  0.11487003547E+04  0.00000000000E+00 0. -1.
         25    1    1    2    0    0 -0.14860644333E+03 -0.18089811387E+03  0.10248762066E+03  0.28449378726E+03  0.12500000000E+03 0.  0.
          2    1    1    2  501    0  0.13332781814E+03  0.14990257904E+03  0.10849011942E+04  0.11032940186E+04  0.00000000000E+00 0. -1.
          1    1    1    2  502    0  0.15278625187E+02  0.30995534829E+02 -0.10482161290E+04  0.10487855895E+04  0.00000000000E+00 0. -1.
<mgrwt>
<rscale>  0 0.83894918E+02</rscale>
<asrwt>0</asrwt>
<pdfrwt beam="1">  1        2 0.19813431E+00 0.20367612E+03</pdfrwt>
<pdfrwt beam="2">  1        1 0.17672313E+00 0.34556614E+02</pdfrwt>
<totfact> 0.36362797E+01</totfact>
</mgrwt>
</event>
<event>
 5    1  0.7156190E-003  0.8114622E+02  0.7546771E-02  0.1372812E+00
          1   -1    0    0  502    0  0.00000000000E+00  0.00000000000E+00  0.67727297007E+02  0.67727297007E+02  0.00000000000E+00 0. -1.
         -1   -1    0    0    0  501 -0.00000000000E+00 -0.00000000000E+00 -0.41927524396E+03  0.41927524396E+03  0.00000000000E+00 0.  1.
         25    1    1    2    0    0 -0.87882183625E+01  0.12625368609E+03 -0.16959092764E+03  0.24577084605E+03  0.12500000000E+03 0.  0.
          1    1    1    2  502    0  0.70074255076E+01 -0.53865813846E+02 -0.10793108993E+02  0.55381595456E+02  0.00000000000E+00 0. -1.
         -1    1    1    2    0  501  0.17807928548E+01 -0.72387872243E+02 -0.17116391032E+03  0.18585009945E+03  0.00000000000E+00 0.  1.
<mgrwt>
<rscale>  0 0.66391555E+02</rscale>
<asrwt>0</asrwt>
<pdfrwt beam="1">  1        1 0.10419584E-01 0.54319701E+02</pdfrwt>
<pdfrwt beam="2">  1       -1 0.64503884E-01 0.81146223E+02</pdfrwt>
<totfact> 0.14274467E+03</totfact>
</mgrwt>
</event>
<event>
 5    1  0.7156190E-003  0.9493524E+02  0.7546771E-02  0.1427943E+00
          1   -1    0    0  502    0 -0.00000000000E+00  0.00000000000E+00  0.16154032534E+03  0.16154032534E+03  0.00000000000E+00 0. -1.
          2   -1    0    0  501    0  0.00000000000E+00 -0.00000000000E+00 -0.87003205164E+03  0.87003205164E+03  0.00000000000E+00 0.  1.
         25    1    1    2    0    0 -0.84951341693E+02 -0.21303890714E+02 -0.82012222334E+02  0.17326739690E+03  0.12500000000E+03 0.  0.
          2    1    1    2  501    0  0.80963561345E+02  0.51046664934E+02 -0.73730349368E+03  0.74348994752E+03  0.00000000000E+00 0.  1.
          1    1    1    2  502    0  0.39877803478E+01 -0.29742774220E+02  0.11082398970E+03  0.11481503257E+03  0.00000000000E+00 0. -1.
<mgrwt>
<rscale>  0 0.53375123E+02</rscale>
<asrwt>0</asrwt>
<pdfrwt beam="2">  1        2 0.13385109E+00 0.94935244E+02</pdfrwt>
<pdfrwt beam="1">  1        1 0.24852358E-01 0.30008916E+02</pdfrwt>
<totfact> 0.81894436E+02</totfact>
</mgrwt>
</event>
<event>
 5    1  0.7156190E-003  0.1136372E+03  0.7546771E-02  0.1456988E+00
          2   -1    0    0  502    0  0.00000000000E+00  0.00000000000E+00  0.21573378054E+03  0.21573378054E+03  0.00000000000E+00 0. -1.
         -2   -1    0    0    0  501 -0.00000000000E+00 -0.00000000000E+00 -0.10849925444E+03  0.10849925444E+03  0.00000000000E+00 0.  1.
         25    1    1    2    0    0 -0.74441830305E+02  0.76077915572E+02  0.71504375629E+02  0.17907347953E+03  0.12500000000E+03 0.  0.
          2    1    1    2  502    0 -0.19826148570E+02 -0.38356317314E+01 -0.26019802306E+01  0.20360710671E+02  0.00000000000E+00 0. -1.
         -2    1    1    2    0  501  0.94267978875E+02 -0.72242283841E+02  0.38332130701E+02  0.12479884479E+03  0.00000000000E+00 0.  1.
<mgrwt>
<rscale>  0 0.47903681E+02</rscale>
<asrwt>0</asrwt>
<pdfrwt beam="1">  1        2 0.33189812E-01 0.20193767E+02</pdfrwt>
<pdfrwt beam="2">  1       -2 0.16692193E-01 0.11363717E+03</pdfrwt>
<totfact> 0.40697337E+03</totfact>
</mgrwt>
</event>
<event>
 5    1  0.7156190E-003  0.1019514E+03  0.7546771E-02  0.1423328E+00
         -2   -1    0    0    0  501 -0.00000000000E+00  0.00000000000E+00  0.38989648046E+02  0.38989648046E+02  0.00000000000E+00 0.  1.
          1   -1    0    0  502    0  0.00000000000E+00 -0.00000000000E+00 -0.56588903120E+03  0.56588903120E+03  0.00000000000E+00 0. -1.
         25    1    1    2    0    0  0.32463709872E+02 -0.86879606891E+02 -0.29936835886E+03  0.33741424516E+03  0.12500000000E+03 0.  0.
          1    1    1    2  502    0 -0.14023104146E+02  0.10919022090E+03 -0.19493071447E+03  0.22386856687E+03  0.00000000000E+00 0. -1.
         -2    1    1    2    0  501 -0.18440605726E+02 -0.22310614009E+02 -0.32600309821E+02  0.43595867206E+02  0.00000000000E+00 0.  1.
<mgrwt>
<rscale>  0 0.54323068E+02</rscale>
<asrwt>0</asrwt>
<pdfrwt beam="2">  1        1 0.87059853E-01 0.10195144E+03</pdfrwt>
<pdfrwt beam="1">  1       -2 0.59984072E-02 0.28945111E+02</pdfrwt>
<totfact> 0.41429033E+03</totfact>
</mgrwt>
</event>
<event>
 5    1  0.7156190E-003  0.6442525E+02  0.7546771E-02  0.1408960E+00
          1   -1    0    0  501    0  0.00000000000E+00  0.00000000000E+00  0.33177361100E+03  0.33177361100E+03  0.00000000000E+00 0. -1.
          3   -1    0    0  502    0 -0.00000000000E+00 -0.00000000000E+00 -0.32089295726E+03  0.32089295726E+03  0.00000000000E+00 0. -1.
         25    1    1    2    0    0 -0.59017087432E+02 -0.46386053443E+02  0.19613181959E+03  0.24439184360E+03  0.12500000000E+03 0.  0.
          1    1    1    2  501    0  0.11196107302E+02  0.64645101209E+02  0.99376956115E+02  0.11908031464E+03  0.00000000000E+00 0. -1.
          3    1    1    2  502    0  0.47820980130E+02 -0.18259047766E+02 -0.28462812196E+03  0.28919441001E+03  0.00000000000E+00 0. -1.
<mgrwt>
<rscale>  0 0.57426625E+02</rscale>
<asrwt>0</asrwt>
<pdfrwt beam="1">  1        1 0.51042094E-01 0.64425253E+02</pdfrwt>
<pdfrwt beam="2">  1        3 0.49368147E-01 0.51188270E+02</pdfrwt>
<totfact> 0.16033650E+02</totfact>
</mgrwt>
</event>
<event>
 5    1  0.7156190E-003  0.9638706E+02  0.7546771E-02  0.1337438E+00
          3   -1    0    0  502    0 -0.00000000000E+00  0.00000000000E+00  0.15615524267E+04  0.15615524267E+04  0.00000000000E+00 0. -1.
          2   -1    0    0  501    0  0.00000000000E+00 -0.00000000000E+00 -0.60007599750E+02  0.60007599750E+02  0.00000000000E+00 0. -1.
         25    1    1    2    0    0  0.87620111960E+02  0.43998032656E+02  0.11697320810E+04  0.11804707756E+04  0.12500000000E+03 0.  0.
          2    1    1    2  501    0  0.16408194716E+02 -0.59477493418E+02 -0.26876223361E+02  0.67298829553E+02  0.00000000000E+00 0. -1.
          3    1    1    2  502    0 -0.10402830668E+03  0.15479460762E+02  0.35868896939E+03  0.37379042130E+03  0.00000000000E+00 0. -1.
<mgrwt>
<rscale>  0 0.77116872E+02</rscale>
<asrwt>0</asrwt>
<pdfrwt beam="2">  1        2 0.92319396E-02 0.61699279E+02</pdfrwt>
<pdfrwt beam="1">  1        3 0.24023880E+00 0.96387056E+02</pdfrwt>
<totfact> 0.38777184E+01</totfact>
</mgrwt>
</event>
<event>
 5    1  0.7156190E-003  0.1060942E+03  0.7546771E-02  0.1407254E+00
          1   -1    0    0  502    0 -0.00000000000E+00  0.00000000000E+00  0.36571282844E+03  0.36571282844E+03  0.00000000000E+00 0. -1.
          2   -1    0    0  501    0  0.00000000000E+00 -0.00000000000E+00 -0.93341231689E+03  0.93341231689E+03  0.00000000000E+00 0. -1.
         25    1    1    2    0    0  0.11489282657E+03  0.37903901567E+01 -0.10964867265E+03  0.20214489869E+03  0.12500000000E+03 0.  0.
          2    1    1    2  501    0 -0.10265628816E+03  0.25237398928E+02 -0.77313323298E+03  0.78032700565E+03  0.00000000000E+00 0. -1.
          1    1    1    2  502    0 -0.12236538407E+02 -0.29027789085E+02  0.31508241719E+03  0.31665324099E+03  0.00000000000E+00 0. -1.
<mgrwt>
<rscale>  0 0.57811129E+02</rscale>
<asrwt>0</asrwt>
<pdfrwt beam="2">  1        2 0.14360189E+00 0.10609416E+03</pdfrwt>
<pdfrwt beam="1">  1        1 0.56263512E-01 0.31501514E+02</pdfrwt>
<totfact> 0.28527054E+02</totfact>
</mgrwt>
</event>
<event>
 5    1  0.7156190E-003  0.1413708E+03  0.7546771E-02  0.1236962E+00
          1   -1    0    0  501    0  0.00000000000E+00  0.00000000000E+00  0.12983526532E+04  0.12983526532E+04  0.00000000000E+00 0. -1.
          3   -1    0    0  502    0 -0.00000000000E+00 -0.00000000000E+00 -0.80016276896E+03  0.80016276896E+03  0.00000000000E+00 0. -1.
         25    1    1    2    0    0 -0.24297378646E+03 -0.48799014337E+02 -0.27251539617E+03  0.38898232075E+03  0.12500000000E+03 0.  0.
          1    1    1    2  501    0  0.13885588170E+03  0.18606572743E+02  0.12298298259E+04  0.12377837295E+04  0.00000000000E+00 0. -1.
          3    1    1    2  502    0  0.10411790476E+03  0.30192441593E+02 -0.45912454547E+03  0.47174937189E+03  0.00000000000E+00 0. -1.
<mgrwt>
<rscale>  0 0.12379667E+03</rscale>
<asrwt>0</asrwt>
<pdfrwt beam="1">  1        1 0.19974656E+00 0.14137083E+03</pdfrwt>
<pdfrwt beam="2">  1        3 0.12310196E+00 0.10840720E+03</pdfrwt>
<totfact> 0.31342706E+00</totfact>
</mgrwt>
</event>
<event>
 5    1  0.7156190E-003  0.7536687E+02  0.7546771E-02  0.1416906E+00
         -2   -1    0    0    0  501 -0.00000000000E+00  0.00000000000E+00  0.12435565003E+03  0.12435565003E+03  0.00000000000E+00 0.  1.
          1   -1    0    0  502    0  0.00000000000E+00 -0.00000000000E+00 -0.15889355833E+03  0.15889355833E+03  0.00000000000E+00 0. -1.
         25    1    1    2    0    0 -0.76780718430E+02 -0.56272009623E+02 -0.22682997996E+02  0.15874928720E+03  0.12500000000E+03 0.  0.
          1    1    1    2  502    0  0.68799869838E+02  0.15916615308E+02 -0.33338311011E+02  0.78090996368E+02  0.00000000000E+00 0. -1.
         -2    1    1    2    0  501  0.79808485917E+01  0.40355394315E+02  0.21483400708E+02  0.46408924794E+02  0.00000000000E+00 0.  1.
<mgrwt>
<rscale>  0 0.55680932E+02</rscale>
<asrwt>0</asrwt>
<pdfrwt beam="2">  1        1 0.24445163E-01 0.75366875E+02</pdfrwt>
<pdfrwt beam="1">  1       -2 0.19131639E-01 0.41136988E+02</pdfrwt>
<totfact> 0.35123091E+03</totfact>
</mgrwt>
</event>
<event>
 5    1  0.7156190E-003  0.5676272E+02  0.7546771E-02  0.1556704E+00
          1   -1    0    0  502    0  0.00000000000E+00  0.00000000000E+00  0.76800521157E+03  0.76800521157E+03  0.00000000000E+00 0. -1.
         -2   -1    0    0    0  501 -0.00000000000E+00 -0.00000000000E+00 -0.16399630520E+02  0.16399630520E+02  0.00000000000E+00 0.  1.
         25    1    1    2    0    0 -0.34600724161E+02  0.27091456607E+02  0.39725582334E+03  0.41877003989E+03  0.12500000000E+03 0.  0.
          1    1    1    2  502    0 -0.95435402850E+01  0.18132124684E+02  0.15905212954E+03  0.16036655829E+03  0.00000000000E+00 0. -1.
         -2    1    1    2    0  501  0.44144264446E+02 -0.45223581291E+02  0.19529762816E+03  0.20526824390E+03  0.00000000000E+00 0.  1.
<mgrwt>
<rscale>  0 0.34104049E+02</rscale>
<asrwt>0</asrwt>
<pdfrwt beam="1">  1        1 0.11815462E+00 0.20490317E+02</pdfrwt>
<pdfrwt beam="2">  1       -2 0.25230207E-02 0.56762720E+02</pdfrwt>
<totfact> 0.11104350E+04</totfact>
</mgrwt>
</event>
<event>
 5    1  0.7156190E-003  0.1489748E+03  0.7546771E-02  0.1241050E+00
          1   -1    0    0  501    0  0.00000000000E+00  0.00000000000E+00  0.51480116017E+03  0.51480116017E+03  0.00000000000E+00 0. -1.
          1   -1    0    0  502    0 -0.00000000000E+00 -0.00000000000E+00 -0.19179010186E+03  0.19179010186E+03  0.00000000000E+00 0. -1.
         25    1    1    2    0    0  0.50740332282E+02  0.73741007848E+02 -0.18360250150E+02  0.15483674094E+03  0.12500000000E+03 0.  0.
          1    1    1    2  501    0 -0.14892108050E+03 -0.63783874384E+02  0.40372814572E+03  0.43501986908E+03  0.00000000000E+00 0. -1.
          1    1    1    2  502    0  0.98180748218E+02 -0.99571334636E+01 -0.62356837260E+02  0.11673465201E+03  0.00000000000E+00 0. -1.
<mgrwt>
<rscale>  0 0.12124968E+03</rscale>
<asrwt>0</asrwt>
<pdfrwt beam="1">  1        1 0.79200178E-01 0.14897482E+03</pdfrwt>
<pdfrwt beam="2">  1        1 0.29506170E-01 0.98684365E+02</pdfrwt>
<totfact> 0.80183250E+02</totfact>
</mgrwt>
</event>
<event>
 5    1  0.7156190E-003  0.1272403E+03  0.7546771E-02  0.1308583E+00
          2   -1    0    0  501    0  0.00000000000E+00  0.00000000000E+00  0.47062037958E+03  0.47062037958E+03  0.00000000000E+00 0. -1.
          3   -1    0    0  502    0 -0.00000000000E+00 -0.00000000000E+00 -0.51486587899E+03  0.51486587899E+03  0.00000000000E+00 0. -1.
         25    1    1    2    0    0 -0.16911862297E+03  0.57792036807E+02  0.19536515840E+03  0.29280295980E+03  0.12500000000E+03 0.  0.
          2    1    1    2  501    0  0.44753912352E+02 -0.40579061213E+02  0.21382074858E+03  0.22219110109E+03  0.00000000000E+00 0. -1.
          3    1    1    2  502    0  0.12436471062E+03 -0.17212975594E+02 -0.45343140638E+03  0.47049219767E+03  0.00000000000E+00 0. -1.
<mgrwt>
<rscale>  0 0.87674419E+02</rscale>
<asrwt>0</asrwt>
<pdfrwt beam="1">  1        2 0.72403136E-01 0.60411695E+02</pdfrwt>
<pdfrwt beam="2">  1        3 0.79210135E-01 0.12724032E+03</pdfrwt>
<totfact> 0.63157142E+01</totfact>
</mgrwt>
</event>
<event>
 5    1  0.7156190E-003  0.1207574E+03  0.7546771E-02  0.1330714E+00
          1   -1    0    0  502    0 -0.00000000000E+00  0.00000000000E+00  0.80176101819E+03  0.80176101819E+03  0.00000000000E+00 0. -1.
          2   -1    0    0  501    0  0.00000000000E+00 -0.00000000000E+00 -0.73006939369E+03  0.73006939369E+03  0.00000000000E+00 0. -1.
         25    1    1    2    0    0 -0.68850280964E+02  0.13850555020E+02 -0.11304595683E+03  0.18258309730E+03  0.12500000000E+03 0.  0.
          2    1    1    2  501    0 -0.51604014710E+02  0.80579061310E+01 -0.57618042453E+03  0.57854281241E+03  0.00000000000E+00 0. -1.
          1    1    1    2  502    0  0.12045429567E+03 -0.21908461151E+02  0.76091800586E+03  0.77070450217E+03  0.00000000000E+00 0. -1.
<mgrwt>
<rscale>  0 0.79417123E+02</rscale>
<asrwt>0</asrwt>
<pdfrwt beam="2">  1        2 0.11231837E+00 0.52229342E+02</pdfrwt>
<pdfrwt beam="1">  1        1 0.12334785E+00 0.12075740E+03</pdfrwt>
<totfact> 0.13762262E+02</totfact>
</mgrwt>
</event>
<event>
 5    1  0.7156190E-003  0.5680912E+02  0.7546771E-02  0.1514526E+00
         -1   -1    0    0    0  501 -0.00000000000E+00  0.00000000000E+00  0.40481629259E+03  0.40481629259E+03  0.00000000000E+00 0.  1.
          1   -1    0    0  502    0  0.00000000000E+00 -0.00000000000E+00 -0.35697754458E+02  0.35697754458E+02  0.00000000000E+00 0. -1.
         25    1    1    2    0    0 -0.37493999383E+02 -0.19270618049E+02  0.13143004919E+03  0.18621496862E+03  0.12500000000E+03 0.  0.
          1    1    1    2  502    0 -0.22121079387E+02  0.15457600234E+02  0.44085454188E+02  0.51689523399E+02  0.00000000000E+00 0. -1.
         -1    1    1    2    0  501  0.59615078769E+02  0.38130178146E+01  0.19360303476E+03  0.20260955503E+03  0.00000000000E+00 0.  1.
<mgrwt>
<rscale>  0 0.39154671E+02</rscale>
<asrwt>0</asrwt>
<pdfrwt beam="2">  1        1 0.54919625E-02 0.26986655E+02</pdfrwt>
<pdfrwt beam="1">  1       -1 0.62279427E-01 0.56809124E+02</pdfrwt>
<totfact> 0.32699021E+03</totfact>
</mgrwt>
</event>
<event>
 5    1  0.7156190E-003  0.1154668E+03  0.7546771E-02  0.1322423E+00
          1   -1    0    0  501    0  0.00000000000E+00  0.00000000000E+00  0.33342884052E+03  0.33342884052E+03  0.00000000000E+00 0. -1.
          1   -1    0    0  502    0 -0.00000000000E+00 -0.00000000000E+00 -0.14232558539E+04  0.14232558539E+04  0.00000000000E+00 0. -1.
         25    1    1    2    0    0  0.11248842544E+03 -0.12206911305E+03 -0.26568412245E+03  0.33729448134E+03  0.12500000000E+03 0.  0.
          1    1    1    2  501    0 -0.59289050587E+02  0.97076600995E+02  0.28594905481E+03  0.30774326951E+03  0.00000000000E+00 0. -1.
          1    1    1    2  502    0 -0.53199374857E+02  0.24992512058E+02 -0.11100919457E+04  0.11116469436E+04  0.00000000000E+00 0. -1.
<mgrwt>
<rscale>  0 0.82382370E+02</rscale>
<asrwt>0</asrwt>
<pdfrwt beam="1">  1        1 0.51296745E-01 0.11546681E+03</pdfrwt>
<pdfrwt beam="2">  1        1 0.21896244E+00 0.58777539E+02</pdfrwt>
<totfact> 0.85594085E+01</totfact>
</mgrwt>
</event>
<event>
 5    1  0.7156190E-003  0.6606915E+02  0.7546771E-02  0.1376947E+00
          2   -1    0    0  501    0  0.00000000000E+00  0.00000000000E+00  0.18809964797E+03  0.18809964797E+03  0.00000000000E+00 0. -1.
          3   -1    0    0  502    0 -0.00000000000E+00 -0.00000000000E+00 -0.23648793445E+03  0.23648793445E+03  0.00000000000E+00 0. -1.
         25    1    1    2    0    0 -0.95348037646E+01  0.35938152305E+01 -0.29350997651E+02  0.12880337361E+03  0.12500000000E+03 0.  0.
          2    1    1    2  501    0 -0.65026311840E+02 -0.11692348020E+02  0.12046825297E+03  0.13739625980E+03  0.00000000000E+00 0. -1.
          3    1    1    2  502    0  0.74561115604E+02  0.80985327898E+01 -0.13950554181E+03  0.15838794900E+03  0.00000000000E+00 0. -1.
<mgrwt>
<rscale>  0 0.65273246E+02</rscale>
<asrwt>0</asrwt>
<pdfrwt beam="1">  1        2 0.28938407E-01 0.66069147E+02</pdfrwt>
<pdfrwt beam="2">  1        3 0.36382759E-01 0.64486932E+02</pdfrwt>
<totfact> 0.75384505E+02</totfact>
</mgrwt>
</event>
<event>
 5    1  0.7156190E-003  0.7896279E+02  0.7546771E-02  0.1384189E+00
          1   -1    0    0  502    0  0.00000000000E+00  0.00000000000E+00  0.73667289817E+02  0.73667289817E+02  0.00000000000E+00 0. -1.
         -2   -1    0    0    0  501 -0.00000000000E+00 -0.00000000000E+00 -0.85630145392E+03  0.85630145392E+03  0.00000000000E+00 0. -1.
         25    1    1    2    0    0  0.22235194978E+02 -0.62518973352E+02 -0.78178979209E+02  0.16167862789E+03  0.12500000000E+03 0.  0.
          1    1    1    2  502    0 -0.72387250535E+02  0.54032350583E+02 -0.34949380688E+02  0.96854881963E+02  0.00000000000E+00 0. -1.
         -2    1    1    2    0  501  0.50152055557E+02  0.84866227687E+01 -0.66950580421E+03  0.67143523389E+03  0.00000000000E+00 0. -1.
<mgrwt>
<rscale>  0 0.63375429E+02</rscale>
<asrwt>0</asrwt>
<pdfrwt beam="1">  1        1 0.11333429E-01 0.78962794E+02</pdfrwt>
<pdfrwt beam="2">  1       -2 0.13173869E+00 0.50865032E+02</pdfrwt>
<totfact> 0.21117034E+02</totfact>
</mgrwt>
</event>
<event>
 5    1  0.7156190E-003  0.1981243E+03  0.7546771E-02  0.1311243E+00
          2   -1    0    0  501    0  0.00000000000E+00  0.00000000000E+00  0.12014103324E+03  0.12014103324E+03  0.00000000000E+00 0. -1.
          2   -1    0    0  502    0 -0.00000000000E+00 -0.00000000000E+00 -0.26525851051E+04  0.26525851051E+04  0.00000000000E+00 0. -1.
         25    1    1    2    0    0 -0.19500076494E+03 -0.36256872197E+02 -0.11633935369E+03  0.26172448171E+03  0.12500000000E+03 0.  0.
          2    1    1    2  501    0 -0.32949735384E+01  0.37729035869E+02  0.35190702218E+02  0.51698380254E+02  0.00000000000E+00 0. -1.
          2    1    1    2  502    0  0.19829573848E+03 -0.14721636728E+01 -0.24512954204E+04  0.24593032764E+04  0.00000000000E+00 0. -1.
<mgrwt>
<rscale>  0 0.86622702E+02</rscale>
<asrwt>0</asrwt>
<pdfrwt beam="1">  1        2 0.18483234E-01 0.37872642E+02</pdfrwt>
<pdfrwt beam="2">  1        2 0.40809007E+00 0.19812435E+03</pdfrwt>
<totfact> 0.14981495E+02</totfact>
</mgrwt>
</event>
<event>
 5    1  0.7156190E-003  0.3714103E+02  0.7546771E-02  0.1600616E+00
          3   -1    0    0  502    0  0.00000000000E+00  0.00000000000E+00  0.97846927822E+02  0.97846927822E+02  0.00000000000E+00 0. -1.
         -3   -1    0    0    0  501 -0.00000000000E+00 -0.00000000000E+00 -0.12387622417E+04  0.12387622417E+04  0.00000000000E+00 0.  1.
         25    1    1    2    0    0 -0.56596017991E+02  0.13082718750E+02 -0.80165981184E+03  0.81342345718E+03  0.12500000000E+03 0.  0.
          3    1    1    2  502    0  0.23796547886E+02 -0.18186279080E+01  0.89705077228E+02  0.92825556714E+02  0.00000000000E+00 0. -1.
         -3    1    1    2    0  501  0.32799470105E+02 -0.11264090842E+02 -0.42896057930E+03  0.43036015565E+03  0.00000000000E+00 0.  1.
<mgrwt>
<rscale>  0 0.29772565E+02</rscale>
<asrwt>0</asrwt>
<pdfrwt beam="1">  1        3 0.15053374E-01 0.23865940E+02</pdfrwt>
<pdfrwt beam="2">  1       -3 0.19057880E+00 0.37141031E+02</pdfrwt>
<totfact> 0.13312314E+01</totfact>
</mgrwt>
</event>
<event>
 5    1  0.7156190E-003  0.7859834E+02  0.7546771E-02  0.1340500E+00
          1   -1    0    0  502    0 -0.00000000000E+00  0.00000000000E+00  0.91085389368E+03  0.91085389368E+03  0.00000000000E+00 0. -1.
          2   -1    0    0  501    0  0.00000000000E+00 -0.00000000000E+00 -0.93284025389E+03  0.93284025389E+03  0.00000000000E+00 0. -1.
         25    1    1    2    0    0  0.10457281822E+03 -0.58339924216E+02 -0.40870032239E+03  0.44384679180E+03  0.12500000000E+03 0.  0.
          2    1    1    2  501    0 -0.74480800511E+02 -0.89146636440E+01 -0.50225728713E+03  0.50782796629E+03  0.00000000000E+00 0. -1.
          1    1    1    2  502    0 -0.30092017706E+02  0.67254587860E+02  0.88897124931E+03  0.89201938948E+03  0.00000000000E+00 0. -1.
<mgrwt>
<rscale>  0 0.76099327E+02</rscale>
<asrwt>0</asrwt>
<pdfrwt beam="2">  1        2 0.14351389E+00 0.78598335E+02</pdfrwt>
<pdfrwt beam="1">  1        1 0.14013137E+00 0.73679774E+02</pdfrwt>
<totfact> 0.84865179E+01</totfact>
</mgrwt>
</event>
<event>
 5    1  0.1881052E-002  0.4783497E+03  0.7546771E-02  0.1019590E+00
          2   -1    0    0  502    0  0.00000000000E+00  0.00000000000E+00  0.16854289027E+04  0.16854289027E+04  0.00000000000E+00 0. -1.
         -1   -1    0    0    0  501 -0.00000000000E+00 -0.00000000000E+00 -0.33940687852E+02  0.33940687852E+02  0.00000000000E+00 0.  1.
         25    1    1    2    0    0  0.12922478044E+03  0.16677749232E+03  0.10066874983E+04  0.10361266790E+04  0.12500000000E+03 0.  0.
          2    1    1    2  502    0 -0.13275263807E+03 -0.12699466110E+03  0.56293703280E+03  0.59215623763E+03  0.00000000000E+00 0. -1.
         -1    1    1    2    0  501  0.35278576264E+01 -0.39782831219E+02  0.81863683764E+02  0.91086673881E+02  0.00000000000E+00 0.  1.
<mgrwt>
<rscale>  0 0.47834973E+03</rscale>
<asrwt>0</asrwt>
<pdfrwt beam="1">  1        2 0.25929669E+00 0.47834973E+03</pdfrwt>
<pdfrwt beam="2">  1       -1 0.52216456E-02 0.47834973E+03</pdfrwt>
<totfact> 0.20225873E+03</totfact>
</mgrwt>
</event>
<event>
 5    1  0.7156190E-003  0.1000744E+03  0.7546771E-02  0.1331191E+00
          1   -1    0    0  502    0  0.00000000000E+00  0.00000000000E+00  0.75901021568E+03  0.75901021568E+03  0.00000000000E+00 0. -1.
         -1   -1    0    0    0  501 -0.00000000000E+00 -0.00000000000E+00 -0.36311415525E+02  0.36311415525E+02  0.00000000000E+00 0.  1.
         25    1    1    2    0    0  0.45851714594E+02 -0.11675340945E+03  0.38845823608E+03  0.42691748562E+03  0.12500000000E+03 0.  0.
          1    1    1    2  502    0  0.23218017154E+02  0.58307336388E+02  0.11081127458E+03  0.12734975607E+03  0.00000000000E+00 0. -1.
         -1    1    1    2    0  501 -0.69069731749E+02  0.58446073060E+02  0.22342928950E+03  0.24105438952E+03  0.00000000000E+00 0.  1.
<mgrwt>
<rscale>  0 0.79250691E+02</rscale>
<asrwt>0</asrwt>
<pdfrwt beam="1">  1        1 0.11677079E+00 0.62760033E+02</pdfrwt>
<pdfrwt beam="2">  1       -1 0.55863722E-02 0.10007439E+03</pdfrwt>
<totfact> 0.36659366E+03</totfact>
</mgrwt>
</event>
<event>
 5    1  0.7156190E-003  0.7378024E+02  0.7546771E-02  0.1428080E+00
          2   -1    0    0  502    0  0.00000000000E+00  0.00000000000E+00  0.76976554227E+03  0.76976554227E+03  0.00000000000E+00 0. -1.
          2   -1    0    0  501    0 -0.00000000000E+00 -0.00000000000E+00 -0.61018554387E+03  0.61018554387E+03  0.00000000000E+00 0. -1.
         25    1    1    2    0    0  0.50206292276E+02 -0.41443023201E+02  0.26257316531E+03  0.29800648163E+03  0.12500000000E+03 0.  0.
          2    1    1    2  501    0 -0.23736092469E+02 -0.30405427000E+02 -0.58883952645E+03  0.59010158447E+03  0.00000000000E+00 0. -1.
          2    1    1    2  502    0 -0.26470199807E+02  0.71848450201E+02  0.48584635955E+03  0.49184302004E+03  0.00000000000E+00 0. -1.
<mgrwt>
<rscale>  0 0.53347354E+02</rscale>
<asrwt>0</asrwt>
<pdfrwt beam="1">  1        2 0.11842547E+00 0.73780238E+02</pdfrwt>
<pdfrwt beam="2">  1        2 0.93874699E-01 0.38573204E+02</pdfrwt>
<totfact> 0.31431493E+02</totfact>
</mgrwt>
</event>
<event>
 5    1  0.7156190E-003  0.1320785E+03  0.7546771E-02  0.1322314E+00
         -2   -1    0    0    0  501 -0.00000000000E+00  0.00000000000E+00  0.76437647944E+02  0.76437647944E+02  0.00000000000E+00 0.  1.
          2   -1    0    0  502    0  0.00000000000E+00 -0.00000000000E+00 -0.16326279701E+04  0.16326279701E+04  0.00000000000E+00 0.  1.
         25    1    1    2    0    0 -0.84620072465E+01  0.99963322213E+02 -0.35171341022E+03  0.38651208815E+03  0.12500000000E+03 0.  0.
          2    1    1    2  502    0  0.49553038727E+02 -0.13090055306E+03 -0.12476037531E+04  0.12554304374E+04  0.00000000000E+00 0.  1.
         -2    1    1    2    0  501 -0.41091031481E+02  0.30937230848E+02  0.43126841142E+02  0.67123092506E+02  0.00000000000E+00 0.  1.
<mgrwt>
<rscale>  0 0.82422630E+02</rscale>
<asrwt>0</asrwt>
<pdfrwt beam="2">  1        2 0.25117352E+00 0.13207848E+03</pdfrwt>
<pdfrwt beam="1">  1       -2 0.11759639E-01 0.51435252E+02</pdfrwt>
<totfact> 0.57314973E+02</totfact>
</mgrwt>
</event>
<event>
 5    1  0.7156190E-003  0.1159508E+03  0.7546771E-02  0.1411596E+00
          1   -1    0    0  502    0 -0.00000000000E+00  0.00000000000E+00  0.94763833417E+02  0.94763833417E+02  0.00000000000E+00 0. -1.
          2   -1    0    0  501    0  0.00000000000E+00 -0.00000000000E+00 -0.19351455215E+04  0.19351455215E+04  0.00000000000E+00 0.  1.
         25    1    1    2    0    0  0.75207094623E+02  0.75822585090E+02 -0.84145745749E+02  0.18469076322E+03  0.12500000000E+03 0.  0.
          2    1    1    2  501    0 -0.98968959678E+02 -0.61272473517E+02 -0.17942860747E+04  0.17980577546E+04  0.00000000000E+00 0.  1.
          1    1    1    2  502    0  0.23761865055E+02 -0.14550111573E+02  0.38050132399E+02  0.47160837071E+02  0.00000000000E+00 0. -1.
<mgrwt>
<rscale>  0 0.56839314E+02</rscale>
<asrwt>0</asrwt>
<pdfrwt beam="2">  1        2 0.29771472E+00 0.11595084E+03</pdfrwt>
<pdfrwt beam="1">  1        1 0.14579050E-01 0.27862735E+02</pdfrwt>
<totfact> 0.41002860E+02</totfact>
</mgrwt>
</event>
<event>
 5    1  0.7156190E-003  0.4201783E+03  0.7546771E-02  0.1226420E+00
          2   -1    0    0  502    0  0.00000000000E+00  0.00000000000E+00  0.17401390036E+03  0.17401390036E+03  0.00000000000E+00 0. -1.
          2   -1    0    0  501    0 -0.00000000000E+00 -0.00000000000E+00 -0.21842029169E+04  0.21842029169E+04  0.00000000000E+00 0. -1.
         25    1    1    2    0    0  0.38874486597E+03 -0.10703793749E+03 -0.60100438462E+03  0.73444602335E+03  0.12500000000E+03 0.  0.
          2    1    1    2  501    0 -0.42043591732E+03  0.81571388253E+02 -0.14807622822E+04  0.15414529472E+04  0.00000000000E+00 0. -1.
          2    1    1    2  502    0  0.31691051346E+02  0.25466549236E+02  0.71577650304E+02  0.82317846719E+02  0.00000000000E+00 0. -1.
<mgrwt>
<rscale>  0 0.13070022E+03</rscale>
<asrwt>0</asrwt>
<pdfrwt beam="1">  1        2 0.26771368E-01 0.40655478E+02</pdfrwt>
<pdfrwt beam="2">  1        2 0.33603123E+00 0.42017827E+03</pdfrwt>
<totfact> 0.16670172E+02</totfact>
</mgrwt>
</event>
<event>
 5    1  0.7156190E-003  0.6558292E+02  0.7546771E-02  0.1525204E+00
         -2   -1    0    0    0  501 -0.00000000000E+00  0.00000000000E+00  0.85220338579E+02  0.85220338579E+02  0.00000000000E+00 0.  1.
          2   -1    0    0  502    0  0.00000000000E+00 -0.00000000000E+00 -0.21448781781E+04  0.21448781781E+04  0.00000000000E+00 0.  1.
         25    1    1    2    0    0 -0.58281659178E+02 -0.46576336926E+02 -0.11266219924E+04  0.11359877732E+04  0.12500000000E+03 0.  0.
          2    1    1    2  502    0  0.20603564616E+02 -0.70154957005E+01 -0.10001131412E+04  0.10003499484E+04  0.00000000000E+00 0.  1.
         -2    1    1    2    0  501  0.37678094562E+02  0.53591832626E+02  0.67077294052E+02  0.93760795173E+02  0.00000000000E+00 0.  1.
<mgrwt>
<rscale>  0 0.37781287E+02</rscale>
<asrwt>0</asrwt>
<pdfrwt beam="2">  1        2 0.32998125E+00 0.21765203E+02</pdfrwt>
<pdfrwt beam="1">  1       -2 0.13110822E-01 0.65582925E+02</pdfrwt>
<totfact> 0.33770114E+02</totfact>
</mgrwt>
</event>
<event>
 5    1  0.1230668E-002  0.1023073E+03  0.7546771E-02  0.1339336E+00
          1   -1    0    0  502    0  0.00000000000E+00  0.00000000000E+00  0.43414195121E+03  0.43414195121E+03  0.00000000000E+00 0. -1.
         -2   -1    0    0    0  501 -0.00000000000E+00 -0.00000000000E+00 -0.66457222687E+02  0.66457222687E+02  0.00000000000E+00 0.  1.
         25    1    1    2    0    0 -0.11048947866E+03 -0.76293336444E+02  0.20284124307E+03  0.27349253732E+03  0.12500000000E+03 0.  0.
          1    1    1    2  502    0  0.53344047552E+02  0.74336489286E+02  0.13366113271E+03  0.16197777455E+03  0.00000000000E+00 0. -1.
         -2    1    1    2    0  501  0.57145431107E+02  0.19568471583E+01  0.31182352743E+02  0.65128862034E+02  0.00000000000E+00 0.  1.
<mgrwt>
<rscale>  0 0.76484130E+02</rscale>
<asrwt>0</asrwt>
<pdfrwt beam="1">  1        1 0.66791068E-01 0.10230731E+03</pdfrwt>
<pdfrwt beam="2">  1       -2 0.10224188E-01 0.57178926E+02</pdfrwt>
<totfact> 0.28183773E+03</totfact>
</mgrwt>
</event>
<event>
 5    1  0.7156190E-003  0.6356391E+02  0.7546771E-02  0.1472091E+00
          1   -1    0    0  502    0  0.00000000000E+00  0.00000000000E+00  0.50544367125E+02  0.50544367125E+02  0.00000000000E+00 0. -1.
         -2   -1    0    0    0  501 -0.00000000000E+00 -0.00000000000E+00 -0.37971326878E+03  0.37971326878E+03  0.00000000000E+00 0.  1.
         25    1    1    2    0    0 -0.60470174749E+02 -0.12718035798E+02 -0.80098476110E+02  0.16080782426E+03  0.12500000000E+03 0.  0.
          1    1    1    2  502    0 -0.11596907332E+01  0.32352371390E+02 -0.45434840916E+02  0.55788400105E+02  0.00000000000E+00 0. -1.
         -2    1    1    2    0  501  0.61629865482E+02 -0.19634335592E+02 -0.20363558463E+03  0.21366141154E+03  0.00000000000E+00 0.  1.
<mgrwt>
<rscale>  0 0.45362585E+02</rscale>
<asrwt>0</asrwt>
<pdfrwt beam="1">  1        1 0.77760565E-02 0.32373150E+02</pdfrwt>
<pdfrwt beam="2">  1       -2 0.58417426E-01 0.63563914E+02</pdfrwt>
<totfact> 0.19064236E+03</totfact>
</mgrwt>
</event>
<event>
 5    1  0.7156190E-003  0.1454192E+03  0.7546771E-02  0.1226772E+00
          2   -1    0    0  502    0  0.00000000000E+00  0.00000000000E+00  0.15143861101E+04  0.15143861101E+04  0.00000000000E+00 0.  1.
         -2   -1    0    0    0  501 -0.00000000000E+00 -0.00000000000E+00 -0.16275501785E+03  0.16275501785E+03  0.00000000000E+00 0.  1.
         25    1    1    2    0    0 -0.21910943560E+03 -0.90069435636E+02  0.69285182427E+03  0.74282575238E+03  0.12500000000E+03 0.  0.
          2    1    1    2  502    0  0.10310954554E+03  0.74479459967E+02  0.76545596414E+03  0.77595206126E+03  0.00000000000E+00 0.  1.
         -2    1    1    2    0  501  0.11599989006E+03  0.15589975669E+02 -0.10667669612E+03  0.15836331434E+03  0.00000000000E+00 0.  1.
<mgrwt>
<rscale>  0 0.13046177E+03</rscale>
<asrwt>0</asrwt>
<pdfrwt beam="1">  1        2 0.23298247E+00 0.14541921E+03</pdfrwt>
<pdfrwt beam="2">  1       -2 0.25039235E-01 0.11704282E+03</pdfrwt>
<totfact> 0.19734720E+02</totfact>
</mgrwt>
</event>
<event>
 5    1  0.7156190E-003  0.4123000E+02  0.7546771E-02  0.1517717E+00
         -3   -1    0    0    0  501 -0.00000000000E+00  0.00000000000E+00  0.84006389193E+02  0.84006389193E+02  0.00000000000E+00 0.  1.
          2   -1    0    0  502    0  0.00000000000E+00 -0.00000000000E+00 -0.11429679262E+04  0.11429679262E+04  0.00000000000E+00 0. -1.
         25    1    1    2    0    0 -0.27451652134E+02 -0.24364588893E+02 -0.57139951729E+03  0.58606282492E+03  0.12500000000E+03 0.  0.
          2    1    1    2  502    0 -0.37181148883E+01  0.43153348141E+02 -0.55903253721E+03  0.56070795740E+03  0.00000000000E+00 0. -1.
         -3    1    1    2    0  501  0.31169767022E+02 -0.18788759248E+02  0.71470517479E+02  0.80203533083E+02  0.00000000000E+00 0.  1.
<mgrwt>
<rscale>  0 0.38736960E+02</rscale>
<asrwt>0</asrwt>
<pdfrwt beam="2">  1        2 0.17584122E+00 0.41229998E+02</pdfrwt>
<pdfrwt beam="1">  1       -3 0.12924060E-01 0.36394668E+02</pdfrwt>
<totfact> 0.58577303E+02</totfact>
</mgrwt>
</event>
<event>
 5    1  0.7156190E-003  0.1351662E+03  0.7546771E-02  0.1220919E+00
          2   -1    0    0  502    0  0.00000000000E+00  0.00000000000E+00  0.64668965552E+03  0.64668965552E+03  0.00000000000E+00 0. -1.
         -1   -1    0    0    0  501 -0.00000000000E+00 -0.00000000000E+00 -0.84977399874E+03  0.84977399874E+03  0.00000000000E+00 0.  1.
         25    1    1    2    0    0  0.97485739305E+02  0.55341833879E+01 -0.57024730742E+02  0.16855538102E+03  0.12500000000E+03 0.  0.
          2    1    1    2  502    0 -0.63982410382E+02  0.12541399170E+03  0.57617857856E+03  0.59313082245E+03  0.00000000000E+00 0. -1.
         -1    1    1    2    0  501 -0.33503328923E+02 -0.13094817509E+03 -0.72223819103E+03  0.73477745079E+03  0.00000000000E+00 0.  1.
<mgrwt>
<rscale>  0 0.13450597E+03</rscale>
<asrwt>0</asrwt>
<pdfrwt beam="1">  1        2 0.99490717E-01 0.13384897E+03</pdfrwt>
<pdfrwt beam="2">  1       -1 0.13073446E+00 0.13516619E+03</pdfrwt>
<totfact> 0.30335250E+01</totfact>
</mgrwt>
</event>
<event>
 5    1  0.7156190E-003  0.7056215E+02  0.7546771E-02  0.1479776E+00
          2   -1    0    0  502    0  0.00000000000E+00  0.00000000000E+00  0.12701019193E+04  0.12701019193E+04  0.00000000000E+00 0. -1.
          2   -1    0    0  501    0 -0.00000000000E+00 -0.00000000000E+00 -0.43186609020E+03  0.43186609020E+03  0.00000000000E+00 0. -1.
         25    1    1    2    0    0  0.17357159980E+02 -0.96351146486E+02  0.94804311137E+03  0.96124687539E+03  0.12500000000E+03 0.  0.
          2    1    1    2  501    0 -0.15182505241E+02  0.68823897819E+02 -0.42173000601E+03  0.42757857213E+03  0.00000000000E+00 0. -1.
          2    1    1    2  502    0 -0.21746547393E+01  0.27527248668E+02  0.31192272372E+03  0.31314256197E+03  0.00000000000E+00 0. -1.
<mgrwt>
<rscale>  0 0.44141066E+02</rscale>
<asrwt>0</asrwt>
<pdfrwt beam="1">  1        2 0.19540029E+00 0.27613014E+02</pdfrwt>
<pdfrwt beam="2">  1        2 0.66440938E-01 0.70562153E+02</pdfrwt>
<totfact> 0.24681296E+02</totfact>
</mgrwt>
</event>
<event>
 5    1  0.7156190E-003  0.3157936E+02  0.7546771E-02  0.1585371E+00
         -2   -1    0    0    0  501 -0.00000000000E+00  0.00000000000E+00  0.55489460290E+02  0.55489460290E+02  0.00000000000E+00 0.  1.
          2   -1    0    0  502    0  0.00000000000E+00 -0.00000000000E+00 -0.39421428908E+03  0.39421428908E+03  0.00000000000E+00 0. -1.
         25    1    1    2    0    0  0.45383859206E+02  0.21444276263E+02 -0.13603568259E+03  0.19144257258E+03  0.12500000000E+03 0.  0.
          2    1    1    2  502    0 -0.14849333498E+02 -0.26974005585E+02 -0.22039396814E+03  0.22253449367E+03  0.00000000000E+00 0. -1.
         -2    1    1    2    0  501 -0.30534525707E+02  0.55297293220E+01  0.17704821934E+02  0.35726683113E+02  0.00000000000E+00 0.  1.
<mgrwt>
<rscale>  0 0.31182804E+02</rscale>
<asrwt>0</asrwt>
<pdfrwt beam="2">  1        2 0.60648353E-01 0.30791227E+02</pdfrwt>
<pdfrwt beam="1">  1       -2 0.85368399E-02 0.31579361E+02</pdfrwt>
<totfact> 0.58782088E+03</totfact>
</mgrwt>
</event>
<event>
 5    1  0.7156190E-003  0.6593781E+02  0.7546771E-02  0.1466875E+00
         -1   -1    0    0    0  501 -0.00000000000E+00  0.00000000000E+00  0.40989875527E+02  0.40989875527E+02  0.00000000000E+00 0.  1.
          2   -1    0    0  502    0  0.00000000000E+00 -0.00000000000E+00 -0.61929281560E+03  0.61929281560E+03  0.00000000000E+00 0. -1.
         25    1    1    2    0    0 -0.59670317633E+02 -0.18694713897E+02 -0.10069648931E+03  0.17226381539E+03  0.12500000000E+03 0.  0.
          2    1    1    2  502    0  0.65557058726E+02 -0.13162462937E+02 -0.35251027878E+03  0.35879586818E+03  0.00000000000E+00 0. -1.
         -1    1    1    2    0  501 -0.58867410937E+01  0.31857176834E+02 -0.12509617198E+03  0.12922300755E+03  0.00000000000E+00 0.  1.
<mgrwt>
<rscale>  0 0.46218553E+02</rscale>
<asrwt>0</asrwt>
<pdfrwt beam="2">  1        2 0.95275816E-01 0.65937815E+02</pdfrwt>
<pdfrwt beam="1">  1       -1 0.63061348E-02 0.32396503E+02</pdfrwt>
<totfact> 0.58592131E+03</totfact>
</mgrwt>
</event>
<event>
 5    1  0.7156190E-003  0.4994137E+02  0.7546771E-02  0.1508999E+00
         -1   -1    0    0    0  501 -0.00000000000E+00  0.00000000000E+00  0.31115437566E+03  0.31115437566E+03  0.00000000000E+00 0.  1.
          2   -1    0    0  502    0  0.00000000000E+00 -0.00000000000E+00 -0.55122218501E+02  0.55122218501E+02  0.00000000000E+00 0. -1.
         25    1    1    2    0    0  0.48220782491E+02  0.38779859973E+02  0.21720185617E+03  0.25812936239E+03  0.12500000000E+03 0.  0.
          2    1    1    2  502    0 -0.15366116754E+01 -0.31829576282E+02 -0.16117878512E+02  0.35710910230E+02  0.00000000000E+00 0. -1.
         -1    1    1    2    0  501 -0.46684170816E+02 -0.69502836916E+01  0.54948179507E+02  0.72436321548E+02  0.00000000000E+00 0.  1.
<mgrwt>
<rscale>  0 0.39893156E+02</rscale>
<asrwt>0</asrwt>
<pdfrwt beam="2">  1        2 0.84803415E-02 0.31866646E+02</pdfrwt>
<pdfrwt beam="1">  1       -1 0.47869903E-01 0.49941368E+02</pdfrwt>
<totfact> 0.34494513E+03</totfact>
</mgrwt>
</event>
<event>
 5    1  0.7156190E-003  0.5070532E+02  0.7546771E-02  0.1474749E+00
          2   -1    0    0  502    0  0.00000000000E+00  0.00000000000E+00  0.20266324182E+03  0.20266324182E+03  0.00000000000E+00 0. -1.
         -1   -1    0    0    0  501 -0.00000000000E+00 -0.00000000000E+00 -0.93283291828E+02  0.93283291828E+02  0.00000000000E+00 0.  1.
         25    1    1    2    0    0  0.72703079886E+02 -0.44701203782E+02  0.88836520124E+02  0.17550174572E+03  0.12500000000E+03 0.  0.
          2    1    1    2  502    0 -0.28336656921E+02  0.27977702462E+02  0.50537110183E+02  0.64340636196E+02  0.00000000000E+00 0. -1.
         -1    1    1    2    0  501 -0.44366422965E+02  0.16723501320E+02 -0.29993680310E+02  0.56104151733E+02  0.00000000000E+00 0.  1.
<mgrwt>
<rscale>  0 0.44934844E+02</rscale>
<asrwt>0</asrwt>
<pdfrwt beam="1">  1        2 0.31178960E-01 0.39821074E+02</pdfrwt>
<pdfrwt beam="2">  1       -1 0.14351276E-01 0.50705317E+02</pdfrwt>
<totfact> 0.57988145E+03</totfact>
</mgrwt>
</event>
<event>
 5    1  0.7156190E-003  0.9656930E+02  0.7546771E-02  0.1301000E+00
          1   -1    0    0  502    0  0.00000000000E+00  0.00000000000E+00  0.17236096902E+04  0.17236096902E+04  0.00000000000E+00 0.  1.
         -3   -1    0    0    0  501 -0.00000000000E+00 -0.00000000000E+00 -0.38009709877E+02  0.38009709877E+02  0.00000000000E+00 0.  1.
         25    1    1    2    0    0 -0.10800631011E+02  0.64833493832E+02  0.42212014077E+03  0.44511846602E+03  0.12500000000E+03 0.  0.
          1    1    1    2  502    0 -0.84926374970E+02 -0.81569886079E+01  0.11644220179E+04  0.11675434302E+04  0.00000000000E+00 0.  1.
         -3    1    1    2    0  501  0.95727005981E+02 -0.56676505224E+02  0.99057821602E+02  0.14895750380E+03  0.00000000000E+00 0.  1.
<mgrwt>
<rscale>  0 0.90769061E+02</rscale>
<asrwt>0</asrwt>
<pdfrwt beam="1">  1        1 0.26517066E+00 0.85317206E+02</pdfrwt>
<pdfrwt beam="2">  1       -3 0.58476490E-02 0.96569296E+02</pdfrwt>
<totfact> 0.50698463E+02</totfact>
</mgrwt>
</event>
<event>
 5    1  0.7156190E-003  0.1417794E+03  0.7546771E-02  0.1378305E+00
          2   -1    0    0  502    0  0.00000000000E+00  0.00000000000E+00  0.80843145341E+03  0.80843145341E+03  0.00000000000E+00 0. -1.
         -3   -1    0    0    0  501 -0.00000000000E+00 -0.00000000000E+00 -0.12503223803E+03  0.12503223803E+03  0.00000000000E+00 0.  1.
         25    1    1    2    0    0  0.90948550699E+02 -0.12566318758E+03  0.70989642299E+02  0.21148854556E+03  0.12500000000E+03 0.  0.
          2    1    1    2  502    0 -0.61243138641E+02  0.12654975934E+03  0.65506829906E+03  0.66998510436E+03  0.00000000000E+00 0. -1.
         -3    1    1    2    0  501 -0.29705412058E+02 -0.88657175545E+00 -0.42658725986E+02  0.51990041525E+02  0.00000000000E+00 0.  1.
<mgrwt>
<rscale>  0 0.64911398E+02</rscale>
<asrwt>0</asrwt>
<pdfrwt beam="1">  1        2 0.12437407E+00 0.14177936E+03</pdfrwt>
<pdfrwt beam="2">  1       -3 0.19235729E-01 0.29718639E+02</pdfrwt>
<totfact> 0.43603155E+02</totfact>
</mgrwt>
</event>
<event>
 5    1  0.7156190E-003  0.4531742E+02  0.7546771E-02  0.1558995E+00
         -1   -1    0    0    0  501 -0.00000000000E+00  0.00000000000E+00  0.20194985422E+02  0.20194985422E+02  0.00000000000E+00 0.  1.
          2   -1    0    0  502    0  0.00000000000E+00 -0.00000000000E+00 -0.75725956623E+03  0.75725956623E+03  0.00000000000E+00 0. -1.
         25    1    1    2    0    0  0.66363974140E+02 -0.15118525315E+02 -0.46204294926E+03  0.48346813114E+03  0.12500000000E+03 0.  0.
          2    1    1    2  502    0 -0.24377832191E+02  0.67467372360E+01 -0.23170938154E+03  0.23308589545E+03  0.00000000000E+00 0. -1.
         -1    1    1    2    0  501 -0.41986141949E+02  0.83717880790E+01 -0.43312250013E+02  0.60900525060E+02  0.00000000000E+00 0.  1.
<mgrwt>
<rscale>  0 0.33856585E+02</rscale>
<asrwt>0</asrwt>
<pdfrwt beam="2">  1        2 0.11650145E+00 0.25294212E+02</pdfrwt>
<pdfrwt beam="1">  1       -1 0.31069214E-02 0.45317417E+02</pdfrwt>
<totfact> 0.13713896E+04</totfact>
</mgrwt>
</event>
<event>
 5    1  0.7156190E-003  0.1610279E+03  0.7546771E-02  0.1338465E+00
          1   -1    0    0  502    0  0.00000000000E+00  0.00000000000E+00  0.28862311102E+03  0.28862311102E+03  0.00000000000E+00 0. -1.
          1   -1    0    0  501    0 -0.00000000000E+00 -0.00000000000E+00 -0.20506633510E+04  0.20506633510E+04  0.00000000000E+00 0. -1.
         25    1    1    2    0    0 -0.10223750695E+03  0.12780806199E+03 -0.12871530340E+04  0.13035242006E+04  0.12500000000E+03 0.  0.
          1    1    1    2  501    0  0.69643550623E+02 -0.14446525266E+03 -0.74556592427E+03  0.76261981407E+03  0.00000000000E+00 0. -1.
          1    1    1    2  502    0  0.32593956332E+02  0.16657190671E+02  0.27067871832E+03  0.27314244735E+03  0.00000000000E+00 0. -1.
<mgrwt>
<rscale>  0 0.76773774E+02</rscale>
<asrwt>0</asrwt>
<pdfrwt beam="1">  1        1 0.44403557E-01 0.36603661E+02</pdfrwt>
<pdfrwt beam="2">  1        1 0.31548666E+00 0.16102795E+03</pdfrwt>
<totfact> 0.36601740E+01</totfact>
</mgrwt>
</event>
<event>
 5    1  0.7156190E-003  0.5846265E+02  0.7546771E-02  0.1412578E+00
         -2   -1    0    0    0  501 -0.00000000000E+00  0.00000000000E+00  0.88132349773E+01  0.88132349773E+01  0.00000000000E+00 0.  1.
          2   -1    0    0  502    0  0.00000000000E+00 -0.00000000000E+00 -0.24586040062E+04  0.24586040062E+04  0.00000000000E+00 0. -1.
         25    1    1    2    0    0  0.45120234549E+02  0.53774973124E+01 -0.64348493913E+03  0.65708646306E+03  0.12500000000E+03 0.  0.
          2    1    1    2  502    0 -0.38780881668E+02  0.49095069714E+02 -0.11675697620E+04  0.11692448126E+04  0.00000000000E+00 0. -1.
         -2    1    1    2    0  501 -0.63393528810E+01 -0.54472567027E+02 -0.63873607007E+03  0.64108596550E+03  0.00000000000E+00 0.  1.
<mgrwt>
<rscale>  0 0.56622464E+02</rscale>
<asrwt>0</asrwt>
<pdfrwt beam="2">  1        2 0.37824688E+00 0.58462647E+02</pdfrwt>
<pdfrwt beam="1">  1       -2 0.13558819E-02 0.54840204E+02</pdfrwt>
<totfact> 0.56306548E+03</totfact>
</mgrwt>
</event>
<event>
 5    1  0.7156190E-003  0.4384096E+02  0.7546771E-02  0.1541437E+00
          2   -1    0    0  502    0  0.00000000000E+00  0.00000000000E+00  0.22259293189E+02  0.22259293189E+02  0.00000000000E+00 0. -1.
         -1   -1    0    0    0  501 -0.00000000000E+00 -0.00000000000E+00 -0.63849885193E+03  0.63849885193E+03  0.00000000000E+00 0.  1.
         25    1    1    2    0    0 -0.29296299789E+01  0.43118626521E+02 -0.24546659163E+03  0.27883085606E+03  0.12500000000E+03 0.  0.
          2    1    1    2  502    0 -0.26061515700E+02 -0.39113468654E+02 -0.11141065838E+03  0.12091898458E+03  0.00000000000E+00 0. -1.
         -1    1    1    2    0  501  0.28991145679E+02 -0.40051578669E+01 -0.25936230873E+03  0.26100830448E+03  0.00000000000E+00 0.  1.
<mgrwt>
<rscale>  0 0.35819985E+02</rscale>
<asrwt>0</asrwt>
<pdfrwt beam="1">  1        2 0.34245067E-02 0.43840960E+02</pdfrwt>
<pdfrwt beam="2">  1       -1 0.98230591E-01 0.29266496E+02</pdfrwt>
<totfact> 0.28275964E+03</totfact>
</mgrwt>
</event>
<event>
 5    1  0.7156190E-003  0.1051470E+03  0.7546771E-02  0.1303280E+00
          2   -1    0    0  502    0  0.00000000000E+00  0.00000000000E+00  0.17067815792E+04  0.17067815792E+04  0.00000000000E+00 0. -1.
         -1   -1    0    0    0  501 -0.00000000000E+00 -0.00000000000E+00 -0.25659895020E+02  0.25659895020E+02  0.00000000000E+00 0.  1.
         25    1    1    2    0    0 -0.83704024441E+02  0.44221441478E+02  0.40807635022E+03  0.43716496566E+03  0.12500000000E+03 0.  0.
          2    1    1    2  502    0  0.29597403965E+02  0.70794808085E+02  0.85239252640E+03  0.85583931333E+03  0.00000000000E+00 0. -1.
         -1    1    1    2    0  501  0.54106620476E+02 -0.11501624956E+03  0.42065280752E+03  0.43943719519E+03  0.00000000000E+00 0.  1.
<mgrwt>
<rscale>  0 0.89823253E+02</rscale>
<asrwt>0</asrwt>
<pdfrwt beam="1">  1        2 0.26258169E+00 0.76732726E+02</pdfrwt>
<pdfrwt beam="2">  1       -1 0.39476775E-02 0.10514701E+03</pdfrwt>
<totfact> 0.31034814E+03</totfact>
</mgrwt>
</event>
<event>
 5    1  0.7156190E-003  0.4464467E+02  0.7546771E-02  0.1570018E+00
         -1   -1    0    0    0  501 -0.00000000000E+00  0.00000000000E+00  0.95965770368E+01  0.95965770368E+01  0.00000000000E+00 0.  1.
          1   -1    0    0  502    0  0.00000000000E+00 -0.00000000000E+00 -0.16715321514E+04  0.16715321514E+04  0.00000000000E+00 0. -1.
         25    1    1    2    0    0  0.58668948579E+02 -0.11223132988E+02 -0.10957103224E+04  0.11044338435E+04  0.12500000000E+03 0.  0.
          1    1    1    2  502    0 -0.41852143574E+02 -0.58332684735E+01 -0.53808148127E+03  0.53973818600E+03  0.00000000000E+00 0. -1.
         -1    1    1    2    0  501 -0.16816805005E+02  0.17056401461E+02 -0.28143770712E+02  0.36956698869E+02  0.00000000000E+00 0.  1.
<mgrwt>
<rscale>  0 0.32700988E+02</rscale>
<asrwt>0</asrwt>
<pdfrwt beam="2">  1        1 0.25715896E+00 0.44644666E+02</pdfrwt>
<pdfrwt beam="1">  1       -1 0.14763955E-02 0.23952573E+02</pdfrwt>
<totfact> 0.49035325E+03</totfact>
</mgrwt>
</event>
<event>
 5    1  0.7156190E-003  0.1632434E+03  0.7546771E-02  0.1257891E+00
          2   -1    0    0  502    0  0.00000000000E+00  0.00000000000E+00  0.38631685092E+03  0.38631685092E+03  0.00000000000E+00 0. -1.
         -1   -1    0    0    0  501 -0.00000000000E+00 -0.00000000000E+00 -0.16818126894E+03  0.16818126894E+03  0.00000000000E+00 0.  1.
         25    1    1    2    0    0  0.19646531059E+03  0.61053620230E+02  0.12237254720E+03  0.27004851993E+03  0.12500000000E+03 0.  0.
          2    1    1    2  502    0 -0.14676405094E+03 -0.34228436191E+01  0.13445911307E+03  0.19907449760E+03  0.00000000000E+00 0. -1.
         -1    1    1    2    0  501 -0.49701259648E+02 -0.57630776611E+02 -0.38696078288E+02  0.85375102332E+02  0.00000000000E+00 0.  1.
<mgrwt>
<rscale>  0 0.11145922E+03</rscale>
<asrwt>0</asrwt>
<pdfrwt beam="1">  1        2 0.59433361E-01 0.16324340E+03</pdfrwt>
<pdfrwt beam="2">  1       -1 0.25874041E-01 0.76102047E+02</pdfrwt>
<totfact> 0.12133838E+03</totfact>
</mgrwt>
</event>
<event>
 5    1  0.7156190E-003  0.4614510E+02  0.7546771E-02  0.1486126E+00
         -1   -1    0    0    0  501 -0.00000000000E+00  0.00000000000E+00  0.15214942198E+03  0.15214942198E+03  0.00000000000E+00 0.  1.
          2   -1    0    0  502    0  0.00000000000E+00 -0.00000000000E+00 -0.11770856038E+03  0.11770856038E+03  0.00000000000E+00 0. -1.
         25    1    1    2    0    0 -0.24837940496E+02 -0.73803379338E+02 -0.11614123322E+02  0.14772863619E+03  0.12500000000E+03 0.  0.
          2    1    1    2  502    0  0.19072835024E+01  0.40566554881E+02 -0.19566751134E+02  0.45079273011E+02  0.00000000000E+00 0. -1.
         -1    1    1    2    0  501  0.22930656994E+02  0.33236824457E+02  0.65621736063E+02  0.77050073161E+02  0.00000000000E+00 0.  1.
<mgrwt>
<rscale>  0 0.43166128E+02</rscale>
<asrwt>0</asrwt>
<pdfrwt beam="2">  1        2 0.18109009E-01 0.46145098E+02</pdfrwt>
<pdfrwt beam="1">  1       -1 0.23407603E-01 0.40379469E+02</pdfrwt>
<totfact> 0.48346263E+03</totfact>
</mgrwt>
</event>
<event>
 5    1  0.7156190E-003  0.2343848E+03  0.7546771E-02  0.1296292E+00
          2   -1    0    0  501    0  0.00000000000E+00  0.00000000000E+00  0.21263577396E+03  0.21263577396E+03  0.00000000000E+00 0.  1.
          2   -1    0    0  502    0 -0.00000000000E+00 -0.00000000000E+00 -0.17424814179E+04  0.17424814179E+04  0.00000000000E+00 0. -1.
         25    1    1    2    0    0 -0.59840642805E+02 -0.19442396541E+03 -0.20490155358E+03  0.31462871376E+03  0.12500000000E+03 0.  0.
          2    1    1    2  501    0 -0.15275675456E+02 -0.33385536140E+02  0.14577948003E+03  0.15033162370E+03  0.00000000000E+00 0.  1.
          2    1    1    2  502    0  0.75116318261E+02  0.22780950155E+03 -0.14707235704E+04  0.14901568544E+04  0.00000000000E+00 0. -1.
<mgrwt>
<rscale>  0 0.92764617E+02</rscale>
<asrwt>0</asrwt>
<pdfrwt beam="1">  1        2 0.32713197E-01 0.36714306E+02</pdfrwt>
<pdfrwt beam="2">  1        2 0.26807406E+00 0.23438477E+03</pdfrwt>
<totfact> 0.24447551E+02</totfact>
</mgrwt>
</event>
<event>
 5    1  0.7156190E-003  0.5702408E+02  0.7546771E-02  0.1454680E+00
          1   -1    0    0  501    0  0.00000000000E+00  0.00000000000E+00  0.13577490424E+04  0.13577490424E+04  0.00000000000E+00 0. -1.
          3   -1    0    0  502    0 -0.00000000000E+00 -0.00000000000E+00 -0.56902352792E+03  0.56902352792E+03  0.00000000000E+00 0. -1.
         25    1    1    2    0    0 -0.94471451801E+02 -0.20757509319E+02 -0.38762321759E+02  0.16273674135E+03  0.12500000000E+03 0.  0.
          1    1    1    2  501    0  0.40468676841E+02  0.61035035017E+01  0.12937655112E+04  0.12944126717E+04  0.00000000000E+00 0. -1.
          3    1    1    2  502    0  0.54002774959E+02  0.14654005817E+02 -0.46627767503E+03  0.46962315724E+03  0.00000000000E+00 0. -1.
<mgrwt>
<rscale>  0 0.48309292E+02</rscale>
<asrwt>0</asrwt>
<pdfrwt beam="1">  1        1 0.20888447E+00 0.40926355E+02</pdfrwt>
<pdfrwt beam="2">  1        3 0.87542081E-01 0.57024078E+02</pdfrwt>
<totfact> 0.68109600E+00</totfact>
</mgrwt>
</event>
<event>
 5    1  0.7156190E-003  0.3189699E+02  0.7546771E-02  0.1596056E+00
         -2   -1    0    0    0  501  0.00000000000E+00  0.00000000000E+00  0.12871868855E+03  0.12871868855E+03  0.00000000000E+00 0.  1.
         -2   -1    0    0    0  502 -0.00000000000E+00 -0.00000000000E+00 -0.21337382266E+03  0.21337382266E+03  0.00000000000E+00 0. -1.
         25    1    1    2    0    0 -0.87512824732E+01 -0.95902939114E+00 -0.46761920600E+02  0.13375044636E+03  0.12500000000E+03 0.  0.
         -2    1    1    2    0  502  0.23676158458E+02 -0.23395946397E+02 -0.11836234668E+03  0.12295355179E+03  0.00000000000E+00 0. -1.
         -2    1    1    2    0  501 -0.14924875985E+02  0.24354975789E+02  0.80469133171E+02  0.85388513058E+02  0.00000000000E+00 0.  1.
<mgrwt>
<rscale>  0 0.30184662E+02</rscale>
<asrwt>0</asrwt>
<pdfrwt beam="1">  1       -2 0.19802875E-01 0.28564257E+02</pdfrwt>
<pdfrwt beam="2">  1       -2 0.32826742E-01 0.31896990E+02</pdfrwt>
<totfact> 0.10471258E+03</totfact>
</mgrwt>
</event>
<event>
 5    1  0.7156190E-003  0.1417496E+03  0.7546771E-02  0.1343017E+00
          2   -1    0    0  501    0  0.00000000000E+00  0.00000000000E+00  0.78354434136E+03  0.78354434136E+03  0.00000000000E+00 0.  1.
          2   -1    0    0  502    0 -0.00000000000E+00 -0.00000000000E+00 -0.27892949785E+04  0.27892949785E+04  0.00000000000E+00 0.  1.
         25    1    1    2    0    0 -0.14569114298E+03 -0.57740462401E+02 -0.10062575394E+04  0.10260307528E+04  0.12500000000E+03 0.  0.
          2    1    1    2  501    0  0.32859179945E+02 -0.22766835080E+02  0.77042992736E+03  0.77146634888E+03  0.00000000000E+00 0.  1.
          2    1    1    2  502    0  0.11283196304E+03  0.80507297481E+02 -0.17699230251E+04  0.17753422182E+04  0.00000000000E+00 0.  1.
<mgrwt>
<rscale>  0 0.75276399E+02</rscale>
<asrwt>0</asrwt>
<pdfrwt beam="1">  1        2 0.12054528E+00 0.39975674E+02</pdfrwt>
<pdfrwt beam="2">  1        2 0.42912231E+00 0.14174961E+03</pdfrwt>
<totfact> 0.18487972E+01</totfact>
</mgrwt>
</event>
<event>
 5    1  0.7156190E-003  0.1153249E+03  0.7546771E-02  0.1340855E+00
          2   -1    0    0  502    0  0.00000000000E+00  0.00000000000E+00  0.20365982566E+03  0.20365982566E+03  0.00000000000E+00 0. -1.
         -2   -1    0    0    0  501 -0.00000000000E+00 -0.00000000000E+00 -0.18023285847E+03  0.18023285847E+03  0.00000000000E+00 0.  1.
         25    1    1    2    0    0 -0.15143591527E+03 -0.27909666374E+02 -0.19968402357E+02  0.19933771094E+03  0.12500000000E+03 0.  0.
          2    1    1    2  502    0  0.10521019775E+03  0.86911748149E+01  0.71157162098E+02  0.12731089485E+03  0.00000000000E+00 0. -1.
         -2    1    1    2    0  501  0.46225717527E+02  0.19218491560E+02 -0.27761792551E+02  0.57244078334E+02  0.00000000000E+00 0.  1.
<mgrwt>
<rscale>  0 0.75982580E+02</rscale>
<asrwt>0</asrwt>
<pdfrwt beam="1">  1        2 0.31332281E-01 0.11532489E+03</pdfrwt>
<pdfrwt beam="2">  1       -2 0.27728132E-01 0.50061636E+02</pdfrwt>
<totfact> 0.18652070E+03</totfact>
</mgrwt>
</event>
<event>
 5    1  0.7156190E-003  0.1092132E+03  0.7546771E-02  0.1373021E+00
         -3   -1    0    0    0  502 -0.00000000000E+00  0.00000000000E+00  0.18073932080E+03  0.18073932080E+03  0.00000000000E+00 0.  1.
         -1   -1    0    0    0  501  0.00000000000E+00 -0.00000000000E+00 -0.21382896648E+03  0.21382896648E+03  0.00000000000E+00 0.  1.
         25    1    1    2    0    0 -0.41555176627E+02  0.63543710993E+02  0.55292856360E+02  0.15635515942E+03  0.12500000000E+03 0.  0.
         -1    1    1    2    0  501  0.59397649322E+02 -0.99668142094E+02 -0.13406612348E+03  0.17730071844E+03  0.00000000000E+00 0.  1.
         -3    1    1    2    0  502 -0.17842472696E+02  0.36124431100E+02  0.45683621436E+02  0.60912409423E+02  0.00000000000E+00 0.  1.
<mgrwt>
<rscale>  0 0.66334464E+02</rscale>
<asrwt>0</asrwt>
<pdfrwt beam="2">  1       -1 0.32896764E-01 0.10921323E+03</pdfrwt>
<pdfrwt beam="1">  1       -3 0.27806050E-01 0.40290549E+02</pdfrwt>
<totfact> 0.42543610E+02</totfact>
</mgrwt>
</event>
<event>
 5    1  0.7156190E-003  0.2885445E+02  0.7546771E-02  0.1640583E+00
         -3   -1    0    0    0  501 -0.00000000000E+00  0.00000000000E+00  0.33239357140E+03  0.33239357140E+03  0.00000000000E+00 0.  1.
          1   -1    0    0  502    0  0.00000000000E+00 -0.00000000000E+00 -0.36294661877E+03  0.36294661877E+03  0.00000000000E+00 0. -1.
         25    1    1    2    0    0  0.25789105903E+02 -0.45522655434E+02 -0.21176388776E+03  0.25140869973E+03  0.12500000000E+03 0.  0.
          1    1    1    2  502    0 -0.78588053876E+01  0.22999246848E+02 -0.12956506059E+03  0.13182500181E+03  0.00000000000E+00 0. -1.
         -3    1    1    2    0  501 -0.17930300516E+02  0.22523408586E+02  0.31077590098E+03  0.31210648862E+03  0.00000000000E+00 0.  1.
<mgrwt>
<rscale>  0 0.26482134E+02</rscale>
<asrwt>0</asrwt>
<pdfrwt beam="2">  1        1 0.55837941E-01 0.24304859E+02</pdfrwt>
<pdfrwt beam="1">  1       -3 0.51137473E-01 0.28854454E+02</pdfrwt>
<totfact> 0.12836889E+02</totfact>
</mgrwt>
</event>
<event>
 5    1  0.7156190E-003  0.6167992E+02  0.7546771E-02  0.1421019E+00
          2   -1    0    0  501    0  0.00000000000E+00  0.00000000000E+00  0.17096603987E+03  0.17096603987E+03  0.00000000000E+00 0. -1.
          2   -1    0    0  502    0 -0.00000000000E+00 -0.00000000000E+00 -0.11408484449E+04  0.11408484449E+04  0.00000000000E+00 0. -1.
         25    1    1    2    0    0 -0.10053993312E+03 -0.11348009631E+02  0.59671268590E+02  0.17153050974E+03  0.12500000000E+03 0.  0.
          2    1    1    2  501    0  0.52709539141E+02  0.21970484797E+01  0.42118317329E+02  0.67506112265E+02  0.00000000000E+00 0. -1.
          2    1    1    2  502    0  0.47830393984E+02  0.91509611509E+01 -0.10716719909E+04  0.10727778628E+04  0.00000000000E+00 0. -1.
<mgrwt>
<rscale>  0 0.54805871E+02</rscale>
<asrwt>0</asrwt>
<pdfrwt beam="1">  1        2 0.26302467E-01 0.61679924E+02</pdfrwt>
<pdfrwt beam="2">  1        2 0.17551515E+00 0.48697912E+02</pdfrwt>
<totfact> 0.72590059E+02</totfact>
</mgrwt>
</event>
<event>
 5    1  0.7156190E-003  0.3584326E+02  0.7546771E-02  0.1553004E+00
          2   -1    0    0  502    0  0.00000000000E+00  0.00000000000E+00  0.78795620282E+03  0.78795620282E+03  0.00000000000E+00 0. -1.
         -1   -1    0    0    0  501 -0.00000000000E+00 -0.00000000000E+00 -0.40150467606E+03  0.40150467606E+03  0.00000000000E+00 0.  1.
         25    1    1    2    0    0 -0.60675344915E+02 -0.31090003412E+02 -0.15265996236E+03  0.20875380212E+03  0.12500000000E+03 0.  0.
          2    1    1    2  502    0  0.33896101166E+02  0.11424345526E+02  0.75823541048E+03  0.75907865143E+03  0.00000000000E+00 0. -1.
         -1    1    1    2    0  501  0.26779243749E+02  0.19665657886E+02 -0.21912392137E+03  0.22162842532E+03  0.00000000000E+00 0.  1.
<mgrwt>
<rscale>  0 0.34509036E+02</rscale>
<asrwt>0</asrwt>
<pdfrwt beam="1">  1        2 0.12122403E+00 0.35843257E+02</pdfrwt>
<pdfrwt beam="2">  1       -1 0.61769950E-01 0.33224479E+02</pdfrwt>
<totfact> 0.12743284E+02</totfact>
</mgrwt>
</event>
<event>
 5    1  0.7156190E-003  0.1146131E+03  0.7546771E-02  0.1337405E+00
          2   -1    0    0  502    0  0.00000000000E+00  0.00000000000E+00  0.29888480539E+03  0.29888480539E+03  0.00000000000E+00 0. -1.
         -2   -1    0    0    0  501 -0.00000000000E+00 -0.00000000000E+00 -0.11949000271E+03  0.11949000271E+03  0.00000000000E+00 0.  1.
         25    1    1    2    0    0 -0.14798752758E+03  0.12874902696E+02  0.47697111827E+02  0.19991519681E+03  0.12500000000E+03 0.  0.
          2    1    1    2  502    0  0.50663889144E+02 -0.11271496304E+02  0.10562986840E+03  0.11769258851E+03  0.00000000000E+00 0.  1.
         -2    1    1    2    0  501  0.97323638439E+02 -0.16034063926E+01  0.26067822458E+02  0.10076702277E+03  0.00000000000E+00 0. -1.
<mgrwt>
<rscale>  0 0.77127902E+02</rscale>
<asrwt>0</asrwt>
<pdfrwt beam="1">  1        2 0.45982278E-01 0.51902565E+02</pdfrwt>
<pdfrwt beam="2">  1       -2 0.18383077E-01 0.11461309E+03</pdfrwt>
<totfact> 0.25550585E+03</totfact>
</mgrwt>
</event>
<event>
 5    1  0.7156190E-003  0.9271901E+02  0.7546771E-02  0.1370081E+00
         -2   -1    0    0    0  501 -0.00000000000E+00  0.00000000000E+00  0.96686457774E+02  0.96686457774E+02  0.00000000000E+00 0. -1.
          2   -1    0    0  502    0  0.00000000000E+00 -0.00000000000E+00 -0.13663988323E+04  0.13663988323E+04  0.00000000000E+00 0. -1.
         25    1    1    2    0    0  0.11156065256E+03  0.34806405124E+02 -0.99826858782E+02  0.19811023894E+03  0.12500000000E+03 0.  0.
          2    1    1    2  502    0 -0.69974983013E+02 -0.60005160924E+02 -0.12027555714E+04  0.12062827538E+04  0.00000000000E+00 0. -1.
         -2    1    1    2    0  501 -0.41585669552E+02  0.25198755800E+02  0.32870055665E+02  0.58692297325E+02  0.00000000000E+00 0. -1.
<mgrwt>
<rscale>  0 0.67144758E+02</rscale>
<asrwt>0</asrwt>
<pdfrwt beam="2">  1        2 0.21021520E+00 0.92719010E+02</pdfrwt>
<pdfrwt beam="1">  1       -2 0.14874840E-01 0.48624533E+02</pdfrwt>
<totfact> 0.55738057E+02</totfact>
</mgrwt>
</event>
<event>
 5    1  0.7156190E-003  0.1003901E+03  0.7546771E-02  0.1420829E+00
          1   -1    0    0  502    0  0.00000000000E+00  0.00000000000E+00  0.68030747043E+02  0.68030747043E+02  0.00000000000E+00 0. -1.
         -3   -1    0    0    0  501 -0.00000000000E+00 -0.00000000000E+00 -0.46403191702E+03  0.46403191702E+03  0.00000000000E+00 0.  1.
         25    1    1    2    0    0  0.91506476393E+02 -0.65265779698E+02 -0.18235992892E+03  0.24801854950E+03  0.12500000000E+03 0.  0.
          1    1    1    2  502    0 -0.90680219854E+02  0.35313370819E+02 -0.35789881323E+02  0.10368631557E+03  0.00000000000E+00 0. -1.
         -3    1    1    2    0  501 -0.82625653899E+00  0.29952408879E+02 -0.17785135974E+03  0.18035779899E+03  0.00000000000E+00 0.  1.
<mgrwt>
<rscale>  0 0.54845863E+02</rscale>
<asrwt>0</asrwt>
<pdfrwt beam="1">  1        1 0.10466269E-01 0.10039008E+03</pdfrwt>
<pdfrwt beam="2">  1       -3 0.71389525E-01 0.29963803E+02</pdfrwt>
<totfact> 0.53906675E+02</totfact>
</mgrwt>
</event>
<event>
 5    1  0.7156190E-003  0.2170394E+03  0.7546771E-02  0.1219480E+00
         -2   -1    0    0    0  501 -0.00000000000E+00  0.00000000000E+00  0.29386928615E+03  0.29386928615E+03  0.00000000000E+00 0.  1.
          1   -1    0    0  502    0  0.00000000000E+00 -0.00000000000E+00 -0.68502793934E+03  0.68502793934E+03  0.00000000000E+00 0. -1.
         25    1    1    2    0    0 -0.23797206900E+03 -0.45837356693E+02 -0.13358812771E+03  0.30364873911E+03  0.12500000000E+03 0.  0.
          1    1    1    2  502    0  0.55028363630E+02 -0.64291182361E+02 -0.40630246088E+03  0.41502188695E+03  0.00000000000E+00 0. -1.
         -2    1    1    2    0  501  0.18294370537E+03  0.11012853905E+03  0.14873193540E+03  0.26022659944E+03  0.00000000000E+00 0.  1.
<mgrwt>
<rscale>  0 0.13552517E+03</rscale>
<asrwt>0</asrwt>
<pdfrwt beam="2">  1        1 0.10538891E+00 0.84625510E+02</pdfrwt>
<pdfrwt beam="1">  1       -2 0.45210660E-01 0.21703941E+03</pdfrwt>
<totfact> 0.12713532E+02</totfact>
</mgrwt>
</event>
<event>
 5    1  0.7156190E-003  0.6527606E+02  0.7546771E-02  0.1463500E+00
          1   -1    0    0  502    0  0.00000000000E+00  0.00000000000E+00  0.29638613560E+04  0.29638613560E+04  0.00000000000E+00 0. -1.
         -2   -1    0    0    0  501 -0.00000000000E+00 -0.00000000000E+00 -0.52058040509E+01  0.52058040509E+01  0.00000000000E+00 0.  1.
         25    1    1    2    0    0 -0.47619334391E+02 -0.48754603404E+02  0.18810692473E+04  0.18864493434E+04  0.12500000000E+03 0.  0.
          1    1    1    2  502    0  0.29890036150E+02 -0.15195933803E+02  0.52326084131E+03  0.52433409075E+03  0.00000000000E+00 0. -1.
         -2    1    1    2    0  501  0.17729298241E+02  0.63950537207E+02  0.55432546338E+03  0.55828372587E+03  0.00000000000E+00 0.  1.
<mgrwt>
<rscale>  0 0.46784335E+02</rscale>
<asrwt>0</asrwt>
<pdfrwt beam="1">  1        1 0.45597732E+00 0.33531040E+02</pdfrwt>
<pdfrwt beam="2">  1       -2 0.80089530E-03 0.65276055E+02</pdfrwt>
<totfact> 0.22764864E+03</totfact>
</mgrwt>
</event>
<event>
 5    1  0.7156190E-003  0.8084152E+02  0.7546771E-02  0.1490086E+00
         -1   -1    0    0    0  501 -0.00000000000E+00  0.00000000000E+00  0.22676023547E+02  0.22676023547E+02  0.00000000000E+00 0.  1.
          2   -1    0    0  502    0  0.00000000000E+00 -0.00000000000E+00 -0.73384811019E+03  0.73384811019E+03  0.00000000000E+00 0. -1.
         25    1    1    2    0    0 -0.69488031761E+02  0.26782495236E+02 -0.36434543392E+03  0.39232446244E+03  0.12500000000E+03 0.  0.
          2    1    1    2  502    0  0.83605289749E+02 -0.93649856863E+01 -0.30880972447E+03  0.32006404571E+03  0.00000000000E+00 0. -1.
         -1    1    1    2    0  501 -0.14117257988E+02 -0.17417509550E+02 -0.38016928250E+02  0.44135625583E+02  0.00000000000E+00 0.  1.
<mgrwt>
<rscale>  0 0.42573294E+02</rscale>
<asrwt>0</asrwt>
<pdfrwt beam="2">  1        2 0.11289972E+00 0.80841522E+02</pdfrwt>
<pdfrwt beam="1">  1       -1 0.34886186E-02 0.22420228E+02</pdfrwt>
<totfact> 0.10462056E+04</totfact>
</mgrwt>
</event>
<event>
 5    1  0.7156190E-003  0.2732355E+02  0.7546771E-02  0.1635839E+00
          1   -1    0    0  502    0 -0.00000000000E+00  0.00000000000E+00  0.20044451268E+04  0.20044451268E+04  0.00000000000E+00 0.  1.
          2   -1    0    0  501    0  0.00000000000E+00 -0.00000000000E+00 -0.32331535197E+03  0.32331535197E+03  0.00000000000E+00 0. -1.
         25    1    1    2    0    0  0.30374844793E+02 -0.41993539669E+02  0.70376854832E+01  0.13550135640E+03  0.12500000000E+03 0.  0.
          2    1    1    2  501    0 -0.20731101508E+02  0.17445942300E+02 -0.25828488314E+03  0.25970217621E+03  0.00000000000E+00 0. -1.
          1    1    1    2  502    0 -0.96437432851E+01  0.24547597369E+02  0.19323769725E+04  0.19325569462E+04  0.00000000000E+00 0.  1.
<mgrwt>
<rscale>  0 0.26844560E+02</rscale>
<asrwt>0</asrwt>
<pdfrwt beam="2">  1        2 0.49740825E-01 0.27323546E+02</pdfrwt>
<pdfrwt beam="1">  1        1 0.30837617E+00 0.26373971E+02</pdfrwt>
<totfact> 0.61394339E+01</totfact>
</mgrwt>
</event>
<event>
 5    1  0.7156190E-003  0.7147507E+02  0.7546771E-02  0.1391260E+00
          2   -1    0    0  501    0  0.00000000000E+00  0.00000000000E+00  0.93944727566E+03  0.93944727566E+03  0.00000000000E+00 0. -1.
          1   -1    0    0  502    0 -0.00000000000E+00 -0.00000000000E+00 -0.55743353577E+02  0.55743353577E+02  0.00000000000E+00 0. -1.
         25    1    1    2    0    0  0.57048420316E+02  0.93780553526E+02  0.64114786468E+03  0.66237821436E+03  0.12500000000E+03 0.  0.
          2    1    1    2  501    0 -0.18733623211E+02 -0.57046293148E+02  0.26750579529E+03  0.27416159234E+03  0.00000000000E+00 0. -1.
          1    1    1    2  502    0 -0.38314797105E+02 -0.36734260378E+02 -0.24949737890E+02  0.58650822530E+02  0.00000000000E+00 0. -1.
<mgrwt>
<rscale>  0 0.61594304E+02</rscale>
<asrwt>0</asrwt>
<pdfrwt beam="1">  1        2 0.14453034E+00 0.71475067E+02</pdfrwt>
<pdfrwt beam="2">  1        1 0.85759012E-02 0.53079465E+02</pdfrwt>
<totfact> 0.29255709E+03</totfact>
</mgrwt>
</event>
<event>
 5    1  0.7156190E-003  0.7749999E+02  0.7546771E-02  0.1415355E+00
          2   -1    0    0  502    0  0.00000000000E+00  0.00000000000E+00  0.29202468488E+04  0.29202468488E+04  0.00000000000E+00 0. -1.
         -1   -1    0    0    0  501 -0.00000000000E+00 -0.00000000000E+00 -0.68348143249E+01  0.68348143249E+01  0.00000000000E+00 0.  1.
         25    1    1    2    0    0  0.69137812136E+02 -0.45978815963E+02  0.11529037887E+04  0.11626290185E+04  0.12500000000E+03 0.  0.
          2    1    1    2  502    0 -0.33616335662E+02 -0.22565144662E+02  0.65854631714E+03  0.65978973589E+03  0.00000000000E+00 0. -1.
         -1    1    1    2    0  501 -0.35521476473E+02  0.68543960625E+02  0.11019619286E+04  0.11046629087E+04  0.00000000000E+00 0.  1.
<mgrwt>
<rscale>  0 0.56015951E+02</rscale>
<asrwt>0</asrwt>
<pdfrwt beam="1">  1        2 0.44926775E+00 0.40487576E+02</pdfrwt>
<pdfrwt beam="2">  1       -1 0.10515122E-02 0.77499991E+02</pdfrwt>
<totfact> 0.52056418E+03</totfact>
</mgrwt>
</event>
<event>
 5    1  0.7156190E-003  0.7857091E+02  0.7546771E-02  0.1475442E+00
          1   -1    0    0  502    0 -0.00000000000E+00  0.00000000000E+00  0.42286597010E+02  0.42286597010E+02  0.00000000000E+00 0. -1.
          2   -1    0    0  501    0  0.00000000000E+00 -0.00000000000E+00 -0.13168407029E+04  0.13168407029E+04  0.00000000000E+00 0. -1.
         25    1    1    2    0    0 -0.67974783869E+02 -0.69869038690E+02 -0.43909631787E+03  0.46683276468E+03  0.12500000000E+03 0.  0.
          2    1    1    2  501    0  0.43373372134E+02  0.62890872055E+02 -0.85605613817E+03  0.85945833110E+03  0.00000000000E+00 0. -1.
          1    1    1    2  502    0  0.24601411735E+02  0.69781666355E+01  0.20598350187E+02  0.32836204095E+02  0.00000000000E+00 0. -1.
<mgrwt>
<rscale>  0 0.44824220E+02</rscale>
<asrwt>0</asrwt>
<pdfrwt beam="2">  1        2 0.20259088E+00 0.78570907E+02</pdfrwt>
<pdfrwt beam="1">  1        1 0.65056303E-02 0.25571943E+02</pdfrwt>
<totfact> 0.23876732E+03</totfact>
</mgrwt>
</event>
<event>
 5    1  0.7156190E-003  0.3608256E+02  0.7546771E-02  0.1563877E+00
         -1   -1    0    0    0  501 -0.00000000000E+00  0.00000000000E+00  0.26402861228E+02  0.26402861228E+02  0.00000000000E+00 0.  1.
          2   -1    0    0  502    0  0.00000000000E+00 -0.00000000000E+00 -0.42443530983E+03  0.42443530983E+03  0.00000000000E+00 0. -1.
         25    1    1    2    0    0 -0.20854008735E+01  0.28175729905E+02 -0.26465816226E+03  0.29405299438E+03  0.12500000000E+03 0.  0.
          2    1    1    2  502    0 -0.30046087468E+02 -0.67813517020E+01 -0.10346218127E+03  0.10794988215E+03  0.00000000000E+00 0. -1.
         -1    1    1    2    0  501  0.32131488342E+02 -0.21394378203E+02 -0.29912105071E+02  0.48835294527E+02  0.00000000000E+00 0.  1.
<mgrwt>
<rscale>  0 0.33337811E+02</rscale>
<asrwt>0</asrwt>
<pdfrwt beam="2">  1        2 0.65297732E-01 0.30801852E+02</pdfrwt>
<pdfrwt beam="1">  1       -1 0.40619791E-02 0.36082559E+02</pdfrwt>
<totfact> 0.16668311E+04</totfact>
</mgrwt>
</event>
<event>
 5    1  0.7156190E-003  0.9916519E+02  0.7546771E-02  0.1315819E+00
          1   -1    0    0  502    0 -0.00000000000E+00  0.00000000000E+00  0.28092506678E+04  0.28092506678E+04  0.00000000000E+00 0. -1.
          2   -1    0    0  501    0  0.00000000000E+00 -0.00000000000E+00 -0.11258283197E+02  0.11258283197E+02  0.00000000000E+00 0. -1.
         25    1    1    2    0    0  0.77481679851E+01 -0.26910691232E+02  0.90218548078E+03  0.91123425152E+03  0.12500000000E+03 0.  0.
          2    1    1    2  501    0  0.17031817220E+02 -0.97691618541E+02  0.79473649899E+03  0.80089939316E+03  0.00000000000E+00 0. -1.
          1    1    1    2  502    0 -0.24779985205E+02  0.12460230977E+03  0.11010704048E+04  0.11083753063E+04  0.00000000000E+00 0. -1.
<mgrwt>
<rscale>  0 0.84852468E+02</rscale>
<asrwt>0</asrwt>
<pdfrwt beam="2">  1        2 0.17320458E-02 0.72605530E+02</pdfrwt>
<pdfrwt beam="1">  1        1 0.43219185E+00 0.99165191E+02</pdfrwt>
<totfact> 0.88280699E+02</totfact>
</mgrwt>
</event>
<event>
 5    1  0.7156190E-003  0.9907217E+02  0.7546771E-02  0.1449427E+00
          1   -1    0    0  501    0  0.00000000000E+00  0.00000000000E+00  0.12977519136E+04  0.12977519136E+04  0.00000000000E+00 0. -1.
          3   -1    0    0  502    0 -0.00000000000E+00 -0.00000000000E+00 -0.20352650449E+02  0.20352650449E+02  0.00000000000E+00 0. -1.
         25    1    1    2    0    0 -0.54603104989E+02  0.61198262879E+02  0.95251970706E+03  0.96418126863E+03  0.12500000000E+03 0.  0.
          1    1    1    2  501    0 -0.21632064854E+01  0.24387507080E+02  0.14274308286E+03  0.14482754458E+03  0.00000000000E+00 0. -1.
          3    1    1    2  502    0  0.56766311474E+02 -0.85585769960E+02  0.18213647327E+03  0.20909575087E+03  0.00000000000E+00 0. -1.
<mgrwt>
<rscale>  0 0.49250477E+02</rscale>
<asrwt>0</asrwt>
<pdfrwt beam="1">  1        1 0.19965408E+00 0.24483259E+02</pdfrwt>
<pdfrwt beam="2">  1        3 0.31311780E-02 0.99072167E+02</pdfrwt>
<totfact> 0.28209191E+03</totfact>
</mgrwt>
</event>
<event>
 5    1  0.7156190E-003  0.3795077E+02  0.7546771E-02  0.1569628E+00
          1   -1    0    0  502    0  0.00000000000E+00  0.00000000000E+00  0.42732817595E+03  0.42732817595E+03  0.00000000000E+00 0. -1.
         -2   -1    0    0    0  501 -0.00000000000E+00 -0.00000000000E+00 -0.27787501694E+02  0.27787501694E+02  0.00000000000E+00 0.  1.
         25    1    1    2    0    0  0.14314694362E+02 -0.28136637954E+02  0.20072486037E+03  0.23856246654E+03  0.12500000000E+03 0.  0.
          1    1    1    2  502    0 -0.37731458635E+02  0.12340669586E+02  0.17547943513E+03  0.17991383285E+03  0.00000000000E+00 0. -1.
         -2    1    1    2    0  501  0.23416764272E+02  0.15795968368E+02  0.23336378756E+02  0.36639378258E+02  0.00000000000E+00 0.  1.
<mgrwt>
<rscale>  0 0.32740978E+02</rscale>
<asrwt>0</asrwt>
<pdfrwt beam="1">  1        1 0.65742792E-01 0.37950774E+02</pdfrwt>
<pdfrwt beam="2">  1       -2 0.42750006E-02 0.28246371E+02</pdfrwt>
<totfact> 0.97698119E+03</totfact>
</mgrwt>
</event>
<event>
 5    1  0.7156190E-003  0.7932619E+02  0.7546771E-02  0.1388595E+00
          2   -1    0    0  501    0  0.00000000000E+00  0.00000000000E+00  0.12235167206E+04  0.12235167206E+04  0.00000000000E+00 0. -1.
          2   -1    0    0  502    0 -0.00000000000E+00 -0.00000000000E+00 -0.74233270028E+03  0.74233270028E+03  0.00000000000E+00 0. -1.
         25    1    1    2    0    0 -0.17413565780E+02 -0.71749483572E+02 -0.32220674308E+03  0.35340261169E+03  0.12500000000E+03 0.  0.
          2    1    1    2  501    0 -0.45938172279E+02  0.16647134432E+02  0.12030607737E+04  0.12040526018E+04  0.00000000000E+00 0. -1.
          2    1    1    2  502    0  0.63351738059E+02  0.55102349139E+02 -0.39967001022E+03  0.40839420743E+03  0.00000000000E+00 0. -1.
<mgrwt>
<rscale>  0 0.62257480E+02</rscale>
<asrwt>0</asrwt>
<pdfrwt beam="1">  1        2 0.18823334E+00 0.48861465E+02</pdfrwt>
<pdfrwt beam="2">  1        2 0.11420503E+00 0.79326190E+02</pdfrwt>
<totfact> 0.13736960E+02</totfact>
</mgrwt>
</event>
<event>
 5    1  0.7156190E-003  0.1565152E+03  0.7546771E-02  0.1317049E+00
          1   -1    0    0  502    0  0.00000000000E+00  0.00000000000E+00  0.87928166703E+03  0.87928166703E+03  0.00000000000E+00 0. -1.
         -2   -1    0    0    0  501 -0.00000000000E+00 -0.00000000000E+00 -0.19572686925E+03  0.19572686925E+03  0.00000000000E+00 0.  1.
         25    1    1    2    0    0 -0.36016282221E+02  0.17848572440E+03  0.88722179745E+02  0.23801460371E+03  0.12500000000E+03 0.  0.
          1    1    1    2  502    0  0.61916124996E+02 -0.14108123070E+03  0.70298047578E+03  0.71966594300E+03  0.00000000000E+00 0. -1.
         -2    1    1    2    0  501 -0.25899842775E+02 -0.37404493694E+02 -0.10814785774E+03  0.11732798958E+03  0.00000000000E+00 0.  1.
<mgrwt>
<rscale>  0 0.84385049E+02</rscale>
<asrwt>0</asrwt>
<pdfrwt beam="1">  1        1 0.13527410E+00 0.15651521E+03</pdfrwt>
<pdfrwt beam="2">  1       -2 0.30111826E-01 0.45496132E+02</pdfrwt>
<totfact> 0.17725672E+02</totfact>
</mgrwt>
</event>
<event>
 5    1  0.7156190E-003  0.8590581E+02  0.7546771E-02  0.1326615E+00
          2   -1    0    0  502    0  0.00000000000E+00  0.00000000000E+00  0.15984726753E+04  0.15984726753E+04  0.00000000000E+00 0. -1.
         -1   -1    0    0    0  501 -0.00000000000E+00 -0.00000000000E+00 -0.10899694834E+04  0.10899694834E+04  0.00000000000E+00 0.  1.
         25    1    1    2    0    0  0.75351886272E+02  0.13282470711E+03  0.10231980183E+04  0.10420554180E+04  0.12500000000E+03 0.  0.
          2    1    1    2  502    0 -0.58515345948E+02 -0.48684674009E+02  0.56157061051E+03  0.56670609118E+03  0.00000000000E+00 0. -1.
         -1    1    1    2    0  501 -0.16836540324E+02 -0.84140033098E+02 -0.10762654369E+04  0.10796806495E+04  0.00000000000E+00 0.  1.
<mgrwt>
<rscale>  0 0.80864974E+02</rscale>
<asrwt>0</asrwt>
<pdfrwt beam="1">  1        2 0.24591887E+00 0.76119926E+02</pdfrwt>
<pdfrwt beam="2">  1       -1 0.16768761E+00 0.85905812E+02</pdfrwt>
<totfact> 0.47417915E+00</totfact>
</mgrwt>
</event>
<event>
 5    1  0.7156190E-003  0.1586803E+03  0.7546771E-02  0.1239416E+00
          2   -1    0    0  501    0  0.00000000000E+00  0.00000000000E+00  0.89538067443E+03  0.89538067443E+03  0.00000000000E+00 0. -1.
          1   -1    0    0  502    0 -0.00000000000E+00 -0.00000000000E+00 -0.25405985404E+03  0.25405985404E+03  0.00000000000E+00 0. -1.
         25    1    1    2    0    0 -0.12485882484E+03 -0.17087037600E+03  0.46277184046E+03  0.52399349982E+03  0.12500000000E+03 0.  0.
          2    1    1    2  501    0 -0.11354206361E+02  0.93511145698E+02  0.36786019914E+03  0.37972934899E+03  0.00000000000E+00 0. -1.
          1    1    1    2  502    0  0.13621303120E+03  0.77359230299E+02 -0.18931121920E+03  0.24571767966E+03  0.00000000000E+00 0. -1.
<mgrwt>
<rscale>  0 0.12225939E+03</rscale>
<asrwt>0</asrwt>
<pdfrwt beam="1">  1        2 0.13775087E+00 0.94197943E+02</pdfrwt>
<pdfrwt beam="2">  1        1 0.39086132E-01 0.15868030E+03</pdfrwt>
<totfact> 0.47146170E+02</totfact>
</mgrwt>
</event>
<event>
 5    1  0.7156190E-003  0.1566670E+03  0.7546771E-02  0.1314544E+00
          3   -1    0    0  502    0 -0.00000000000E+00  0.00000000000E+00  0.76624198555E+03  0.76624198555E+03  0.00000000000E+00 0.  1.
          1   -1    0    0  501    0  0.00000000000E+00 -0.00000000000E+00 -0.21407425742E+03  0.21407425742E+03  0.00000000000E+00 0. -1.
         25    1    1    2    0    0 -0.11364034139E+03  0.11056425488E+03  0.51241283667E+03  0.55075447963E+03  0.12500000000E+03 0.  0.
          1    1    1    2  501    0 -0.26749658524E+02 -0.38020363037E+02 -0.16471172871E+03  0.17114627022E+03  0.00000000000E+00 0. -1.
          3    1    1    2  502    0  0.14038999991E+03 -0.72543891846E+02  0.20446662016E+03  0.25841549311E+03  0.00000000000E+00 0.  1.
<mgrwt>
<rscale>  0 0.85340867E+02</rscale>
<asrwt>0</asrwt>
<pdfrwt beam="2">  1        1 0.32934501E-01 0.46487549E+02</pdfrwt>
<pdfrwt beam="1">  1        3 0.11788338E+00 0.15666697E+03</pdfrwt>
<totfact> 0.43765545E+01</totfact>
</mgrwt>
</event>
<event>
 5    1  0.7156190E-003  0.1392706E+03  0.7546771E-02  0.1278708E+00
         -1   -1    0    0    0  501 -0.00000000000E+00  0.00000000000E+00  0.15321324124E+03  0.15321324124E+03  0.00000000000E+00 0.  1.
          1   -1    0    0  502    0  0.00000000000E+00 -0.00000000000E+00 -0.22159166009E+04  0.22159166009E+04  0.00000000000E+00 0. -1.
         25    1    1    2    0    0  0.74751438489E+02  0.17762237029E+03 -0.77793321946E+03  0.81113659634E+03  0.12500000000E+03 0.  0.
          1    1    1    2  502    0 -0.77564346898E+02 -0.10478007508E+03 -0.14084278480E+04  0.14144483360E+04  0.00000000000E+00 0. -1.
         -1    1    1    2    0  501  0.28129084095E+01 -0.72842295213E+02  0.12365770784E+03  0.14354490981E+03  0.00000000000E+00 0.  1.
<mgrwt>
<rscale>  0 0.10075890E+03</rscale>
<asrwt>0</asrwt>
<pdfrwt beam="2">  1        1 0.34091024E+00 0.13927065E+03</pdfrwt>
<pdfrwt beam="1">  1       -1 0.23571268E-01 0.72896587E+02</pdfrwt>
<totfact> 0.39760221E+01</totfact>
</mgrwt>
</event>
<event>
 5    1  0.7156190E-003  0.3700138E+02  0.7546771E-02  0.1584440E+00
          2   -1    0    0  502    0  0.00000000000E+00  0.00000000000E+00  0.33416538616E+02  0.33416538616E+02  0.00000000000E+00 0. -1.
         -1   -1    0    0    0  501 -0.00000000000E+00 -0.00000000000E+00 -0.45737447678E+03  0.45737447678E+03  0.00000000000E+00 0.  1.
         25    1    1    2    0    0  0.12713812816E+02 -0.22621747755E+02 -0.36727437148E+03  0.38883010230E+03  0.12500000000E+03 0.  0.
          2    1    1    2  502    0  0.26193036765E+02 -0.35288499380E+01  0.24006621687E+01  0.26538484050E+02  0.00000000000E+00 0. -1.
         -1    1    1    2    0  501 -0.38906849581E+02  0.26150597693E+02 -0.59084228849E+02  0.75422429043E+02  0.00000000000E+00 0.  1.
<mgrwt>
<rscale>  0 0.31271945E+02</rscale>
<asrwt>0</asrwt>
<pdfrwt beam="1">  1        2 0.51410060E-02 0.26429679E+02</pdfrwt>
<pdfrwt beam="2">  1       -1 0.70365303E-01 0.37001378E+02</pdfrwt>
<totfact> 0.30688875E+03</totfact>
</mgrwt>
</event>
<event>
 5    1  0.7156190E-003  0.1170839E+03  0.7546771E-02  0.1264852E+00
         -2   -1    0    0    0  501 -0.00000000000E+00  0.00000000000E+00  0.85876663703E+03  0.85876663703E+03  0.00000000000E+00 0.  1.
          1   -1    0    0  502    0  0.00000000000E+00 -0.00000000000E+00 -0.49769671525E+03  0.49769671525E+03  0.00000000000E+00 0. -1.
         25    1    1    2    0    0 -0.90368475107E+02  0.14992029283E+03  0.10745638040E+02  0.21536718467E+03  0.12500000000E+03 0.  0.
          1    1    1    2  502    0 -0.22178453072E+01 -0.11457217717E+03 -0.38368219070E+03  0.40042942709E+03  0.00000000000E+00 0. -1.
         -2    1    1    2    0  501  0.92586320414E+02 -0.35348115661E+02  0.73400647444E+03  0.74066674053E+03  0.00000000000E+00 0.  1.
<mgrwt>
<rscale>  0 0.10771977E+03</rscale>
<asrwt>0</asrwt>
<pdfrwt beam="2">  1        1 0.76568725E-01 0.11708389E+03</pdfrwt>
<pdfrwt beam="1">  1       -2 0.13211794E+00 0.99104571E+02</pdfrwt>
<totfact> 0.18865425E+01</totfact>
</mgrwt>
</event>
<event>
 5    1  0.7156190E-003  0.6574130E+02  0.7546771E-02  0.1507566E+00
         -1   -1    0    0    0  501 -0.00000000000E+00  0.00000000000E+00  0.26243797830E+02  0.26243797830E+02  0.00000000000E+00 0.  1.
          2   -1    0    0  502    0  0.00000000000E+00 -0.00000000000E+00 -0.10088145828E+04  0.10088145828E+04  0.00000000000E+00 0. -1.
         25    1    1    2    0    0 -0.25085793858E+02 -0.36007522652E+02 -0.90491951484E+03  0.91456556194E+03  0.12500000000E+03 0.  0.
          2    1    1    2  502    0 -0.19465297957E+02 -0.14786994854E+02 -0.17898035847E+02  0.30296744521E+02  0.00000000000E+00 0. -1.
         -1    1    1    2    0  501  0.44551091815E+02  0.50794517507E+02 -0.59753234310E+02  0.90196074201E+02  0.00000000000E+00 0.  1.
<mgrwt>
<rscale>  0 0.40087894E+02</rscale>
<asrwt>0</asrwt>
<pdfrwt beam="2">  1        2 0.15520224E+00 0.24444898E+02</pdfrwt>
<pdfrwt beam="1">  1       -1 0.40375076E-02 0.65741296E+02</pdfrwt>
<totfact> 0.70611870E+03</totfact>
</mgrwt>
</event>
<event>
 5    1  0.7156190E-003  0.6214459E+02  0.7546771E-02  0.1399971E+00
          2   -1    0    0  502    0  0.00000000000E+00  0.00000000000E+00  0.19354799952E+03  0.19354799952E+03  0.00000000000E+00 0. -1.
         -3   -1    0    0    0  501 -0.00000000000E+00 -0.00000000000E+00 -0.12612279023E+03  0.12612279023E+03  0.00000000000E+00 0.  1.
         25    1    1    2    0    0 -0.51747279237E+01  0.24351464418E+02  0.97738869403E+02  0.16061649424E+03  0.12500000000E+03 0.  0.
          2    1    1    2  502    0  0.51151404611E+02  0.25047491154E+02  0.33583722227E+02  0.66118903541E+02  0.00000000000E+00 0. -1.
         -3    1    1    2    0  501 -0.45976676687E+02 -0.49398955572E+02 -0.63897382343E+02  0.92935391972E+02  0.00000000000E+00 0.  1.
<mgrwt>
<rscale>  0 0.59493101E+02</rscale>
<asrwt>0</asrwt>
<pdfrwt beam="1">  1        2 0.29776615E-01 0.56954745E+02</pdfrwt>
<pdfrwt beam="2">  1       -3 0.19403506E-01 0.62144586E+02</pdfrwt>
<totfact> 0.22355772E+03</totfact>
</mgrwt>
</event>
<event>
 5    1  0.7156190E-003  0.4733401E+02  0.7546771E-02  0.1474578E+00
          2   -1    0    0  502    0  0.00000000000E+00  0.00000000000E+00  0.15358402534E+04  0.15358402534E+04  0.00000000000E+00 0. -1.
         -3   -1    0    0    0  501 -0.00000000000E+00 -0.00000000000E+00 -0.39019685528E+02  0.39019685528E+02  0.00000000000E+00 0.  1.
         25    1    1    2    0    0  0.13805710039E+02  0.81574676151E+02  0.34281335314E+03  0.37415373913E+03  0.12500000000E+03 0.  0.
          2    1    1    2  502    0  0.82440881781E+01 -0.41906077163E+02  0.11545285818E+04  0.11553182810E+04  0.00000000000E+00 0. -1.
         -3    1    1    2    0  501 -0.22049798217E+02 -0.39668598988E+02 -0.52136705212E+00  0.45387918774E+02  0.00000000000E+00 0.  1.
<mgrwt>
<rscale>  0 0.44962233E+02</rscale>
<asrwt>0</asrwt>
<pdfrwt beam="1">  1        2 0.23628307E+00 0.42709300E+02</pdfrwt>
<pdfrwt beam="2">  1       -3 0.60030297E-02 0.47334010E+02</pdfrwt>
<totfact> 0.13080280E+03</totfact>
</mgrwt>
</event>
<event>
 5    1  0.7156190E-003  0.8441928E+02  0.7546771E-02  0.1424504E+00
          2   -1    0    0  502    0  0.00000000000E+00  0.00000000000E+00  0.93805952405E+03  0.93805952405E+03  0.00000000000E+00 0. -1.
         -1   -1    0    0    0  501 -0.00000000000E+00 -0.00000000000E+00 -0.24703952309E+02  0.24703952309E+02  0.00000000000E+00 0.  1.
         25    1    1    2    0    0  0.69828600672E+02  0.63000223771E+02  0.68724496739E+03  0.70482317418E+03  0.12500000000E+03 0.  0.
          2    1    1    2  502    0 -0.35189220329E+02 -0.62483946240E+02  0.78521238351E+02  0.10633959581E+03  0.00000000000E+00 0. -1.
         -1    1    1    2    0  501 -0.34639380343E+02 -0.51627753083E+00  0.14758936600E+03  0.15160070636E+03  0.00000000000E+00 0.  1.
<mgrwt>
<rscale>  0 0.54079166E+02</rscale>
<asrwt>0</asrwt>
<pdfrwt beam="1">  1        2 0.14431682E+00 0.84419276E+02</pdfrwt>
<pdfrwt beam="2">  1       -1 0.38006088E-02 0.34643228E+02</pdfrwt>
<totfact> 0.73094027E+03</totfact>
</mgrwt>
</event>
<event>
 5    1  0.7156190E-003  0.1392181E+03  0.7546771E-02  0.1221451E+00
          2   -1    0    0  502    0  0.00000000000E+00  0.00000000000E+00  0.22416940069E+04  0.22416940069E+04  0.00000000000E+00 0. -1.
         -2   -1    0    0    0  501 -0.00000000000E+00 -0.00000000000E+00 -0.30857848600E+03  0.30857848600E+03  0.00000000000E+00 0. -1.
         25    1    1    2    0    0 -0.20653778537E+02  0.20886500568E+03  0.79548420752E+03  0.83214860066E+03  0.12500000000E+03 0.  0.
          2    1    1    2  502    0  0.88520788986E+02 -0.98888684558E+02  0.14102207084E+04  0.14164523813E+04  0.00000000000E+00 0. -1.
         -2    1    1    2    0  501 -0.67867010449E+02 -0.10997632112E+03 -0.27258939496E+03  0.30167151102E+03  0.00000000000E+00 0. -1.
<mgrwt>
<rscale>  0 0.13413178E+03</rscale>
<asrwt>0</asrwt>
<pdfrwt beam="1">  1        2 0.34487599E+00 0.13921811E+03</pdfrwt>
<pdfrwt beam="2">  1       -2 0.47473615E-01 0.12923127E+03</pdfrwt>
<totfact> 0.25814655E+01</totfact>
</mgrwt>
</event>
<event>
 5    1  0.7156190E-003  0.9276731E+02  0.7546771E-02  0.1420719E+00
          1   -1    0    0  502    0  0.00000000000E+00  0.00000000000E+00  0.80308120256E+03  0.80308120256E+03  0.00000000000E+00 0. -1.
         -1   -1    0    0    0  501 -0.00000000000E+00 -0.00000000000E+00 -0.32245861284E+03  0.32245861284E+03  0.00000000000E+00 0.  1.
         25    1    1    2    0    0 -0.11647294829E+03 -0.37799462389E+02  0.10285978131E+02  0.17528704569E+03  0.12500000000E+03 0.  0.
          1    1    1    2  502    0  0.89601429536E+02  0.19602097531E+02  0.70621804758E+03  0.71214927447E+03  0.00000000000E+00 0. -1.
         -1    1    1    2    0  501  0.26871518753E+02  0.18197364858E+02 -0.23588143599E+03  0.23810349525E+03  0.00000000000E+00 0.  1.
<mgrwt>
<rscale>  0 0.54869061E+02</rscale>
<asrwt>0</asrwt>
<pdfrwt beam="1">  1        1 0.12355095E+00 0.92767312E+02</pdfrwt>
<pdfrwt beam="2">  1       -1 0.49609018E-01 0.32453391E+02</pdfrwt>
<totfact> 0.10290165E+02</totfact>
</mgrwt>
</event>
<event>
 5    1  0.7156190E-003  0.3171939E+02  0.7546771E-02  0.1629358E+00
         -2   -1    0    0    0  501 -0.00000000000E+00  0.00000000000E+00  0.34114262299E+01  0.34114262299E+01  0.00000000000E+00 0.  1.
          1   -1    0    0  502    0  0.00000000000E+00 -0.00000000000E+00 -0.34366026553E+04  0.34366026553E+04  0.00000000000E+00 0. -1.
         25    1    1    2    0    0  0.26947449850E+02 -0.11154173321E+02 -0.23251645331E+04  0.23287047230E+04  0.12500000000E+03 0.  0.
          1    1    1    2  502    0 -0.13362600792E+02  0.30433546427E+02 -0.10076912791E+04  0.10082392940E+04  0.00000000000E+00 0. -1.
         -2    1    1    2    0  501 -0.13584849059E+02 -0.19279373106E+02 -0.10033541680E+03  0.10307006459E+03  0.00000000000E+00 0.  1.
<mgrwt>
<rscale>  0 0.27351328E+02</rscale>
<asrwt>0</asrwt>
<pdfrwt beam="2">  1        1 0.52870658E+00 0.31719389E+02</pdfrwt>
<pdfrwt beam="1">  1       -2 0.52483631E-03 0.23584791E+02</pdfrwt>
<totfact> 0.15719418E+03</totfact>
</mgrwt>
</event>
<event>
 5    1  0.7156190E-003  0.1274058E+03  0.7546771E-02  0.1437635E+00
          2   -1    0    0  502    0  0.00000000000E+00  0.00000000000E+00  0.13006387989E+03  0.13006387989E+03  0.00000000000E+00 0. -1.
          2   -1    0    0  501    0 -0.00000000000E+00 -0.00000000000E+00 -0.79463262626E+03  0.79463262626E+03  0.00000000000E+00 0. -1.
         25    1    1    2    0    0  0.68649326517E+02  0.11863332491E+03  0.23680712815E+02  0.18700901575E+03  0.12500000000E+03 0.  0.
          2    1    1    2  501    0 -0.47893581667E+02 -0.11756902945E+03 -0.70159540107E+03  0.71298834398E+03  0.00000000000E+00 0. -1.
          2    1    1    2  502    0 -0.20755744850E+02 -0.10642954655E+01  0.13345941892E+02  0.24699146425E+02  0.00000000000E+00 0. -1.
<mgrwt>
<rscale>  0 0.51457522E+02</rscale>
<asrwt>0</asrwt>
<pdfrwt beam="1">  1        2 0.20009827E-01 0.20783014E+02</pdfrwt>
<pdfrwt beam="2">  1        2 0.12225118E+00 0.12740580E+03</pdfrwt>
<totfact> 0.14153281E+03</totfact>
</mgrwt>
</event>
<event>
 5    1  0.7156190E-003  0.1860407E+03  0.7546771E-02  0.1329256E+00
         -2   -1    0    0    0  501 -0.00000000000E+00  0.00000000000E+00  0.21753250966E+03  0.21753250966E+03  0.00000000000E+00 0.  1.
          2   -1    0    0  502    0  0.00000000000E+00 -0.00000000000E+00 -0.11659082395E+04  0.11659082395E+04  0.00000000000E+00 0. -1.
         25    1    1    2    0    0  0.15417774008E+03  0.25204981949E+02 -0.35629481462E+03  0.40862826820E+03  0.12500000000E+03 0.  0.
          2    1    1    2  502    0  0.34225339084E+02 -0.27941303455E+01 -0.73592004608E+03  0.73672077155E+03  0.00000000000E+00 0. -1.
         -2    1    1    2    0  501 -0.18840307916E+03 -0.22410851603E+02  0.14383913089E+03  0.23809170939E+03  0.00000000000E+00 0.  1.
<mgrwt>
<rscale>  0 0.79928036E+02</rscale>
<asrwt>0</asrwt>
<pdfrwt beam="2">  1        2 0.17937050E+00 0.34339205E+02</pdfrwt>
<pdfrwt beam="1">  1       -2 0.33466540E-01 0.18604073E+03</pdfrwt>
<totfact> 0.19965830E+02</totfact>
</mgrwt>
</event>
<event>
 5    1  0.7156190E-003  0.5105319E+02  0.7546771E-02  0.1444780E+00
          1   -1    0    0  502    0  0.00000000000E+00  0.00000000000E+00  0.82728533957E+02  0.82728533957E+02  0.00000000000E+00 0. -1.
         -2   -1    0    0    0  501 -0.00000000000E+00 -0.00000000000E+00 -0.18055217578E+03  0.18055217578E+03  0.00000000000E+00 0.  1.
         25    1    1    2    0    0  0.18822788152E+02  0.58207380547E+02 -0.76860598029E+02  0.15898096752E+03  0.12500000000E+03 0.  0.
          1    1    1    2  502    0  0.29503179531E+02 -0.41744435197E+02 -0.10358209965E+02  0.52156763570E+02  0.00000000000E+00 0. -1.
         -2    1    1    2    0  501 -0.48325967683E+02 -0.16462945349E+02 -0.10604833833E+02  0.52142978652E+02  0.00000000000E+00 0.  1.
<mgrwt>
<rscale>  0 0.50104227E+02</rscale>
<asrwt>0</asrwt>
<pdfrwt beam="1">  1        1 0.12727467E-01 0.49172907E+02</pdfrwt>
<pdfrwt beam="2">  1       -2 0.27777257E-01 0.51053185E+02</pdfrwt>
<totfact> 0.41981699E+03</totfact>
</mgrwt>
</event>
<event>
 5    1  0.7156190E-003  0.7443354E+02  0.7546771E-02  0.1474958E+00
          2   -1    0    0  502    0  0.00000000000E+00  0.00000000000E+00  0.15366989891E+04  0.15366989891E+04  0.00000000000E+00 0.  1.
         -2   -1    0    0    0  501 -0.00000000000E+00 -0.00000000000E+00 -0.10914543024E+02  0.10914543024E+02  0.00000000000E+00 0. -1.
         25    1    1    2    0    0  0.35703739144E+01  0.55482772252E+02  0.58702050155E+03  0.60275132088E+03  0.12500000000E+03 0.  0.
          2    1    1    2  502    0 -0.19296730112E+02 -0.77536231244E+02  0.72467800490E+03  0.72906957263E+03  0.00000000000E+00 0. -1.
         -2    1    1    2    0  501  0.15726356197E+02  0.22053458993E+02  0.21408593959E+03  0.21579263857E+03  0.00000000000E+00 0.  1.
<mgrwt>
<rscale>  0 0.44901413E+02</rscale>
<asrwt>0</asrwt>
<pdfrwt beam="1">  1        2 0.23641506E+00 0.74433536E+02</pdfrwt>
<pdfrwt beam="2">  1       -2 0.16791617E-02 0.27086405E+02</pdfrwt>
<totfact> 0.10328203E+04</totfact>
</mgrwt>
</event>
<event>
 5    1  0.7156190E-003  0.1054941E+03  0.7546771E-02  0.1349681E+00
          2   -1    0    0  502    0  0.00000000000E+00  0.00000000000E+00  0.32277733053E+03  0.32277733053E+03  0.00000000000E+00 0. -1.
          2   -1    0    0  501    0 -0.00000000000E+00 -0.00000000000E+00 -0.42800201446E+03  0.42800201446E+03  0.00000000000E+00 0. -1.
         25    1    1    2    0    0 -0.15126953835E+02 -0.13383936370E+02 -0.25721381784E+03  0.28669130188E+03  0.12500000000E+03 0.  0.
          2    1    1    2  501    0  0.95055740029E+02 -0.55466630819E+02 -0.12567906209E+03  0.16705498345E+03  0.00000000000E+00 0. -1.
          2    1    1    2  502    0 -0.79928786194E+02  0.68850567188E+02  0.27766819600E+03  0.29703305967E+03  0.00000000000E+00 0. -1.
<mgrwt>
<rscale>  0 0.73155283E+02</rscale>
<asrwt>0</asrwt>
<pdfrwt beam="1">  1        2 0.49658051E-01 0.10549413E+03</pdfrwt>
<pdfrwt beam="2">  1        2 0.65846464E-01 0.50729793E+02</pdfrwt>
<totfact> 0.11696126E+03</totfact>
</mgrwt>
</event>
<event>
 5    1  0.7156190E-003  0.1882358E+03  0.7546771E-02  0.1299914E+00
          1   -1    0    0  502    0  0.00000000000E+00  0.00000000000E+00  0.90630594277E+03  0.90630594277E+03  0.00000000000E+00 0. -1.
         -3   -1    0    0    0  501 -0.00000000000E+00 -0.00000000000E+00 -0.27244712404E+03  0.27244712404E+03  0.00000000000E+00 0.  1.
         25    1    1    2    0    0  0.22507915753E+03  0.33386002536E+02  0.55156489149E+03  0.60960977834E+03  0.12500000000E+03 0.  0.
          1    1    1    2  502    0 -0.43659332686E+02  0.69547860467E+01  0.28831289329E+03  0.29168275715E+03  0.00000000000E+00 0. -1.
         -3    1    1    2    0  501 -0.18141982484E+03 -0.40340788582E+02 -0.20601896605E+03  0.27746053132E+03  0.00000000000E+00 0.  1.
<mgrwt>
<rscale>  0 0.91224275E+02</rscale>
<asrwt>0</asrwt>
<pdfrwt beam="1">  1        1 0.13943168E+00 0.44209800E+02</pdfrwt>
<pdfrwt beam="2">  1       -3 0.41914943E-01 0.18823583E+03</pdfrwt>
<totfact> 0.64394089E+01</totfact>
</mgrwt>
</event>
<event>
 5    1  0.7156190E-003  0.8156422E+02  0.7546771E-02  0.1459157E+00
         -1   -1    0    0    0  501 -0.00000000000E+00  0.00000000000E+00  0.31952918175E+02  0.31952918175E+02  0.00000000000E+00 0.  1.
          2   -1    0    0  502    0  0.00000000000E+00 -0.00000000000E+00 -0.56578849337E+03  0.56578849337E+03  0.00000000000E+00 0. -1.
         25    1    1    2    0    0  0.12278103258E+02  0.77103308850E+02 -0.32496476925E+03  0.35682316812E+03  0.12500000000E+03 0.  0.
          2    1    1    2  502    0  0.27521582139E+02 -0.30802278090E+01 -0.97730207815E+02  0.10157814138E+03  0.00000000000E+00 0. -1.
         -1    1    1    2    0  501 -0.39799685397E+02 -0.74023081041E+02 -0.11114059813E+03  0.13934010204E+03  0.00000000000E+00 0.  1.
<mgrwt>
<rscale>  0 0.47526748E+02</rscale>
<asrwt>0</asrwt>
<pdfrwt beam="2">  1        2 0.87044379E-01 0.27693416E+02</pdfrwt>
<pdfrwt beam="1">  1       -1 0.49158338E-02 0.81564218E+02</pdfrwt>
<totfact> 0.10395396E+04</totfact>
</mgrwt>
</event>
<event>
 5    1  0.7156190E-003  0.1519344E+03  0.7546771E-02  0.1305183E+00
          1   -1    0    0  502    0 -0.00000000000E+00  0.00000000000E+00  0.34628941792E+03  0.34628941792E+03  0.00000000000E+00 0.  1.
          2   -1    0    0  501    0  0.00000000000E+00 -0.00000000000E+00 -0.36326808685E+04  0.36326808685E+04  0.00000000000E+00 0. -1.
         25    1    1    2    0    0  0.81494252721E+02 -0.11053736195E+03 -0.27736961856E+03  0.33379443811E+03  0.12500000000E+03 0.  0.
          2    1    1    2  501    0  0.45759376301E+02  0.25089687174E+02 -0.33084148281E+04  0.33088263913E+04  0.00000000000E+00 0. -1.
          1    1    1    2  502    0 -0.12725362902E+03  0.85447674772E+02  0.29939299601E+03  0.33634945709E+03  0.00000000000E+00 0.  1.
<mgrwt>
<rscale>  0 0.89044365E+02</rscale>
<asrwt>0</asrwt>
<pdfrwt beam="2">  1        2 0.55887401E+00 0.52186329E+02</pdfrwt>
<pdfrwt beam="1">  1        1 0.53275292E-01 0.15193441E+03</pdfrwt>
<totfact> 0.11386523E+01</totfact>
</mgrwt>
</event>
<event>
 5    1  0.7156190E-003  0.1634715E+03  0.7546771E-02  0.1341838E+00
          1   -1    0    0  502    0  0.00000000000E+00  0.00000000000E+00  0.49075888898E+03  0.49075888898E+03  0.00000000000E+00 0. -1.
         -2   -1    0    0    0  501 -0.00000000000E+00 -0.00000000000E+00 -0.93995220348E+02  0.93995220348E+02  0.00000000000E+00 0.  1.
         25    1    1    2    0    0  0.57585957180E+02 -0.17772873899E+03  0.22208681424E+03  0.31599240527E+03  0.12500000000E+03 0.  0.
          1    1    1    2  502    0 -0.13808831478E+02  0.32180884911E+02  0.85855213539E+02  0.92722224263E+02  0.00000000000E+00 0. -1.
         -2    1    1    2    0  501 -0.43777125702E+02  0.14554785408E+03  0.88821640851E+02  0.17603947979E+03  0.00000000000E+00 0.  1.
<mgrwt>
<rscale>  0 0.75660570E+02</rscale>
<asrwt>0</asrwt>
<pdfrwt beam="1">  1        1 0.75501366E-01 0.35018469E+02</pdfrwt>
<pdfrwt beam="2">  1       -2 0.14460803E-01 0.16347151E+03</pdfrwt>
<totfact> 0.15158225E+03</totfact>
</mgrwt>
</event>
<event>
 5    1  0.2378343E-002  0.8799405E+02  0.7546771E-02  0.1323364E+00
         -1   -1    0    0    0  501 -0.00000000000E+00  0.00000000000E+00  0.12684107844E+02  0.12684107844E+02  0.00000000000E+00 0.  1.
          2   -1    0    0  502    0  0.00000000000E+00 -0.00000000000E+00 -0.22545722681E+04  0.22545722681E+04  0.00000000000E+00 0. -1.
         25    1    1    2    0    0  0.54857555001E+02  0.12050352997E+03 -0.13172077476E+04  0.13297336961E+04  0.12500000000E+03 0.  0.
          2    1    1    2  502    0  0.86343988398E+01 -0.75996793219E+02 -0.50117933271E+03  0.50698204008E+03  0.00000000000E+00 0. -1.
         -1    1    1    2    0  501 -0.63491953841E+02 -0.44506736755E+02 -0.42350107988E+03  0.43054063975E+03  0.00000000000E+00 0.  1.
<mgrwt>
<rscale>  0 0.82038333E+02</rscale>
<asrwt>0</asrwt>
<pdfrwt beam="2">  1        2 0.34685748E+00 0.76485720E+02</pdfrwt>
<pdfrwt beam="1">  1       -1 0.19514000E-02 0.87994047E+02</pdfrwt>
<totfact> 0.44647597E+03</totfact>
</mgrwt>
</event>
<event>
 5    1  0.7156190E-003  0.3866278E+03  0.7546771E-02  0.1083655E+00
          2   -1    0    0  502    0  0.00000000000E+00  0.00000000000E+00  0.65075715407E+03  0.65075715407E+03  0.00000000000E+00 0.  1.
          2   -1    0    0  501    0 -0.00000000000E+00 -0.00000000000E+00 -0.25489649776E+04  0.25489649776E+04  0.00000000000E+00 0. -1.
         25    1    1    2    0    0 -0.24930626250E+03  0.24806973783E+03 -0.16235820506E+03  0.40703488069E+03  0.12500000000E+03 0.  0.
          2    1    1    2  501    0  0.17829452635E+03  0.15729784305E+03 -0.21766725171E+04  0.21896197835E+04  0.00000000000E+00 0. -1.
          2    1    1    2  502    0  0.71011736154E+02 -0.40536758088E+03  0.44082289867E+03  0.60306746745E+03  0.00000000000E+00 0.  1.
<mgrwt>
<rscale>  0 0.30319305E+03</rscale>
<asrwt>0</asrwt>
<pdfrwt beam="1">  1        2 0.10011648E+00 0.38662776E+03</pdfrwt>
<pdfrwt beam="2">  1        2 0.39214847E+00 0.23776364E+03</pdfrwt>
<totfact> 0.27208515E+01</totfact>
</mgrwt>
</event>
<event>
 5    1  0.7156190E-003  0.7985412E+02  0.7546771E-02  0.1418967E+00
          2   -1    0    0  502    0  0.00000000000E+00  0.00000000000E+00  0.77486309753E+03  0.77486309753E+03  0.00000000000E+00 0. -1.
         -1   -1    0    0    0  501 -0.00000000000E+00 -0.00000000000E+00 -0.28911708336E+02  0.28911708336E+02  0.00000000000E+00 0.  1.
         25    1    1    2    0    0 -0.88279907980E+02  0.34417341478E+02  0.25607269722E+03  0.30029339288E+03  0.12500000000E+03 0.  0.
          2    1    1    2  502    0  0.77968562521E+02  0.23782117834E+01  0.32386418082E+03  0.33312574240E+03  0.00000000000E+00 0. -1.
         -1    1    1    2    0  501  0.10311345460E+02 -0.36795553262E+02  0.16601451116E+03  0.17035567058E+03  0.00000000000E+00 0.  1.
<mgrwt>
<rscale>  0 0.55240100E+02</rscale>
<asrwt>0</asrwt>
<pdfrwt beam="1">  1        2 0.11920969E+00 0.79854116E+02</pdfrwt>
<pdfrwt beam="2">  1       -1 0.44479557E-02 0.38213042E+02</pdfrwt>
<totfact> 0.75463415E+03</totfact>
</mgrwt>
</event>
<event>
 5    1  0.7156190E-003  0.8289532E+02  0.7546771E-02  0.1393404E+00
         -1   -1    0    0    0  502 -0.00000000000E+00  0.00000000000E+00  0.12312188887E+03  0.12312188887E+03  0.00000000000E+00 0.  1.
         -2   -1    0    0    0  501  0.00000000000E+00 -0.00000000000E+00 -0.23471235416E+03  0.23471235416E+03  0.00000000000E+00 0. -1.
         25    1    1    2    0    0 -0.69112306166E+02  0.78443517210E+02  0.24404274576E+02  0.16477398118E+03  0.12500000000E+03 0.  0.
         -2    1    1    2    0  501  0.87353448921E+01 -0.44131841419E+02 -0.11011285188E+03  0.11894858480E+03  0.00000000000E+00 0. -1.
         -1    1    1    2    0  502  0.60376961274E+02 -0.34311675792E+02 -0.25881887989E+02  0.74111677043E+02  0.00000000000E+00 0.  1.
<mgrwt>
<rscale>  0 0.61067991E+02</rscale>
<asrwt>0</asrwt>
<pdfrwt beam="2">  1       -2 0.36109593E-01 0.44988061E+02</pdfrwt>
<pdfrwt beam="1">  1       -1 0.18941829E-01 0.82895315E+02</pdfrwt>
<totfact> 0.11053064E+03</totfact>
</mgrwt>
</event>
<event>
 5    1  0.7156190E-003  0.6966945E+02  0.7546771E-02  0.1419603E+00
          2   -1    0    0  502    0  0.00000000000E+00  0.00000000000E+00  0.16353777909E+04  0.16353777909E+04  0.00000000000E+00 0. -1.
          2   -1    0    0  501    0 -0.00000000000E+00 -0.00000000000E+00 -0.96021414430E+02  0.96021414430E+02  0.00000000000E+00 0. -1.
         25    1    1    2    0    0  0.26217588880E+02  0.15928564646E+02  0.38141276853E+03  0.40254413564E+03  0.12500000000E+03 0.  0.
          2    1    1    2  501    0 -0.44830127001E+02 -0.55339679002E+02 -0.70162977930E+02  0.99975316108E+02  0.00000000000E+00 0. -1.
          2    1    1    2  502    0  0.18612538120E+02  0.39411114357E+02  0.12281065858E+04  0.12288797536E+04  0.00000000000E+00 0. -1.
<mgrwt>
<rscale>  0 0.55104911E+02</rscale>
<asrwt>0</asrwt>
<pdfrwt beam="1">  1        2 0.25159656E+00 0.43585118E+02</pdfrwt>
<pdfrwt beam="2">  1        2 0.14772526E-01 0.69669450E+02</pdfrwt>
<totfact> 0.78542460E+02</totfact>
</mgrwt>
</event>
<event>
 5    1  0.7156190E-003  0.3898738E+02  0.7546771E-02  0.1537912E+00
         -1   -1    0    0    0  501 -0.00000000000E+00  0.00000000000E+00  0.43760462208E+02  0.43760462208E+02  0.00000000000E+00 0.  1.
          2   -1    0    0  502    0  0.00000000000E+00 -0.00000000000E+00 -0.31990757918E+03  0.31990757918E+03  0.00000000000E+00 0. -1.
         25    1    1    2    0    0 -0.61628113629E+01  0.48545780037E+02 -0.20755578000E+03  0.24718227043E+03  0.12500000000E+03 0.  0.
          2    1    1    2  502    0  0.29162435112E+02 -0.16837247958E+02 -0.69581652398E+02  0.77301661631E+02  0.00000000000E+00 0. -1.
         -1    1    1    2    0  501 -0.22999623749E+02 -0.31708532079E+02  0.99031542670E+00  0.39184109328E+02  0.00000000000E+00 0.  1.
<mgrwt>
<rscale>  0 0.36233442E+02</rscale>
<asrwt>0</asrwt>
<pdfrwt beam="2">  1        2 0.49216551E-01 0.33674034E+02</pdfrwt>
<pdfrwt beam="1">  1       -1 0.67323788E-02 0.38987380E+02</pdfrwt>
<totfact> 0.10877273E+04</totfact>
</mgrwt>
</event>
<event>
 5    1  0.7156190E-003  0.6845134E+02  0.7546771E-02  0.1502360E+00
         -1   -1    0    0    0  501 -0.00000000000E+00  0.00000000000E+00  0.60562863080E+03  0.60562863080E+03  0.00000000000E+00 0.  1.
          2   -1    0    0  502    0  0.00000000000E+00 -0.00000000000E+00 -0.24796183198E+02  0.24796183198E+02  0.00000000000E+00 0. -1.
         25    1    1    2    0    0  0.55968373746E+02  0.23057485452E+02  0.39969591542E+03  0.42313819409E+03  0.12500000000E+03 0.  0.
          2    1    1    2  502    0  0.19900918783E+02 -0.13989943132E+02  0.46524181607E+02  0.52500138585E+02  0.00000000000E+00 0. -1.
         -1    1    1    2    0  501 -0.75869292529E+02 -0.90675423199E+01  0.13461235058E+03  0.15478648133E+03  0.00000000000E+00 0.  1.
<mgrwt>
<rscale>  0 0.40806402E+02</rscale>
<asrwt>0</asrwt>
<pdfrwt beam="2">  1        2 0.38147979E-02 0.24326222E+02</pdfrwt>
<pdfrwt beam="1">  1       -1 0.93173625E-01 0.68451337E+02</pdfrwt>
<totfact> 0.24601529E+03</totfact>
</mgrwt>
</event>
<event>
 5    1  0.7156190E-003  0.6224891E+02  0.7546771E-02  0.1506757E+00
          1   -1    0    0  502    0 -0.00000000000E+00  0.00000000000E+00  0.23682458620E+03  0.23682458620E+03  0.00000000000E+00 0. -1.
          2   -1    0    0  501    0  0.00000000000E+00 -0.00000000000E+00 -0.70832596251E+03  0.70832596251E+03  0.00000000000E+00 0. -1.
         25    1    1    2    0    0  0.47370324291E+01 -0.49369553800E+02 -0.77237469510E+02  0.15508197515E+03  0.12500000000E+03 0.  0.
          2    1    1    2  501    0  0.18924466225E+02  0.60046110293E+02 -0.58963191588E+03  0.59298353013E+03  0.00000000000E+00 0. -1.
          1    1    1    2  502    0 -0.23661498654E+02 -0.10676556493E+02  0.19536800908E+03  0.19708504344E+03  0.00000000000E+00 0. -1.
<mgrwt>
<rscale>  0 0.40198286E+02</rscale>
<asrwt>0</asrwt>
<pdfrwt beam="2">  1        2 0.10897322E+00 0.62248907E+02</pdfrwt>
<pdfrwt beam="1">  1        1 0.36434552E-01 0.25958724E+02</pdfrwt>
<totfact> 0.67665922E+02</totfact>
</mgrwt>
</event>
<event>
 5    1  0.7156190E-003  0.9091334E+02  0.7546771E-02  0.1486392E+00
          2   -1    0    0  501    0  0.00000000000E+00  0.00000000000E+00  0.12377520986E+04  0.12377520986E+04  0.00000000000E+00 0.  1.
          1   -1    0    0  502    0 -0.00000000000E+00 -0.00000000000E+00 -0.36797485481E+03  0.36797485481E+03  0.00000000000E+00 0. -1.
         25    1    1    2    0    0 -0.39150088698E+02 -0.82761336624E+02  0.99639238587E+02  0.18421494551E+03  0.12500000000E+03 0.  0.
          2    1    1    2  501    0 -0.17090938434E+02  0.11242910494E+02  0.10893728855E+04  0.10895649531E+04  0.00000000000E+00 0.  1.
          1    1    1    2  502    0  0.56241027132E+02  0.71518426130E+02 -0.31923488032E+03  0.33194705484E+03  0.00000000000E+00 0. -1.
<mgrwt>
<rscale>  0 0.43125934E+02</rscale>
<asrwt>0</asrwt>
<pdfrwt beam="1">  1        2 0.19042340E+00 0.20457351E+02</pdfrwt>
<pdfrwt beam="2">  1        1 0.56611517E-01 0.90913344E+02</pdfrwt>
<totfact> 0.21172121E+02</totfact>
</mgrwt>
</event>
<event>
 5    1  0.7156190E-003  0.3163614E+03  0.7546771E-02  0.1168959E+00
          2   -1    0    0  501    0  0.00000000000E+00  0.00000000000E+00  0.18862816019E+04  0.18862816019E+04  0.00000000000E+00 0. -1.
          1   -1    0    0  502    0 -0.00000000000E+00 -0.00000000000E+00 -0.75362697878E+03  0.75362697878E+03  0.00000000000E+00 0. -1.
         25    1    1    2    0    0 -0.23747844001E+03  0.15261036674E+03  0.20914734975E+02  0.30943231836E+03  0.12500000000E+03 0.  0.
          2    1    1    2  501    0  0.20411598406E+03 -0.24801020109E+03  0.17017878308E+04  0.17318355049E+04  0.00000000000E+00 0. -1.
          1    1    1    2  502    0  0.33362455946E+02  0.95399834342E+02 -0.59004794266E+03  0.59864075746E+03  0.00000000000E+00 0. -1.
<mgrwt>
<rscale>  0 0.17881036E+03</rscale>
<asrwt>0</asrwt>
<pdfrwt beam="1">  1        2 0.29019717E+00 0.31636144E+03</pdfrwt>
<pdfrwt beam="2">  1        1 0.11594261E+00 0.10106524E+03</pdfrwt>
<totfact> 0.30567309E+01</totfact>
</mgrwt>
</event>
<event>
 5    1  0.7156190E-003  0.4143809E+02  0.7546771E-02  0.1597885E+00
         -3   -1    0    0    0  501 -0.00000000000E+00  0.00000000000E+00  0.30121982043E+02  0.30121982043E+02  0.00000000000E+00 0.  1.
          2   -1    0    0  502    0  0.00000000000E+00 -0.00000000000E+00 -0.86265918893E+03  0.86265918893E+03  0.00000000000E+00 0. -1.
         25    1    1    2    0    0  0.22684484494E+02  0.33504131387E+02 -0.51531850852E+03  0.53180379641E+03  0.12500000000E+03 0.  0.
          2    1    1    2  502    0 -0.20178187310E+02  0.81069990890E+01 -0.31852882239E+03  0.31927025131E+03  0.00000000000E+00 0. -1.
         -3    1    1    2    0  501 -0.25062971841E+01 -0.41611130476E+02  0.13101240213E+01  0.41707123252E+02  0.00000000000E+00 0.  1.
<mgrwt>
<rscale>  0 0.30018448E+02</rscale>
<asrwt>0</asrwt>
<pdfrwt beam="2">  1        2 0.13271677E+00 0.21745866E+02</pdfrwt>
<pdfrwt beam="1">  1       -3 0.46341520E-02 0.41438093E+02</pdfrwt>
<totfact> 0.44555578E+03</totfact>
</mgrwt>
</event>
<event>
 5    1  0.7156190E-003  0.4076038E+02  0.7546771E-02  0.1583307E+00
          2   -1    0    0  501    0  0.00000000000E+00  0.00000000000E+00  0.19658164755E+04  0.19658164755E+04  0.00000000000E+00 0. -1.
          1   -1    0    0  502    0 -0.00000000000E+00 -0.00000000000E+00 -0.24609262033E+02  0.24609262033E+02  0.00000000000E+00 0. -1.
         25    1    1    2    0    0  0.51597463390E+02  0.14029309600E+02  0.22112938337E+03  0.25958105468E+03  0.12500000000E+03 0.  0.
          2    1    1    2  501    0 -0.40025034211E+02  0.71786515042E+01  0.16968267669E+04  0.16973139407E+04  0.00000000000E+00 0. -1.
          1    1    1    2  502    0 -0.11572429179E+02 -0.21207961105E+02  0.23251063236E+02  0.33530742206E+02  0.00000000000E+00 0. -1.
<mgrwt>
<rscale>  0 0.31380964E+02</rscale>
<asrwt>0</asrwt>
<pdfrwt beam="1">  1        2 0.30243318E+00 0.40760377E+02</pdfrwt>
<pdfrwt beam="2">  1        1 0.37860419E-02 0.24159858E+02</pdfrwt>
<totfact> 0.24145998E+03</totfact>
</mgrwt>
</event>
<event>
 5    1  0.7156190E-003  0.1279066E+03  0.7546771E-02  0.1384811E+00
          3   -1    0    0  502    0 -0.00000000000E+00  0.00000000000E+00  0.59345807568E+02  0.59345807568E+02  0.00000000000E+00 0. -1.
          2   -1    0    0  501    0  0.00000000000E+00 -0.00000000000E+00 -0.86990587469E+03  0.86990587469E+03  0.00000000000E+00 0. -1.
         25    1    1    2    0    0  0.53446368669E+02 -0.93166348558E+02 -0.22105692697E+03  0.27573111502E+03  0.12500000000E+03 0.  0.
          2    1    1    2  501    0 -0.82230905722E+02  0.10531598271E+03 -0.60433880450E+03  0.61893357373E+03  0.00000000000E+00 0. -1.
          3    1    1    2  502    0  0.28784537053E+02 -0.12149634147E+02  0.14835664347E+02  0.34586993507E+02  0.00000000000E+00 0. -1.
<mgrwt>
<rscale>  0 0.63215999E+02</rscale>
<asrwt>0</asrwt>
<pdfrwt beam="2">  1        2 0.13383166E+00 0.12790655E+03</pdfrwt>
<pdfrwt beam="1">  1        3 0.91301250E-02 0.31243610E+02</pdfrwt>
<totfact> 0.13514234E+03</totfact>
</mgrwt>
</event>
<event>
 5    1  0.7156190E-003  0.9054721E+02  0.7546771E-02  0.1320030E+00
         -1   -1    0    0    0  501 -0.00000000000E+00  0.00000000000E+00  0.48608106994E+03  0.48608106994E+03  0.00000000000E+00 0.  1.
          2   -1    0    0  502    0  0.00000000000E+00 -0.00000000000E+00 -0.55186382910E+03  0.55186382910E+03  0.00000000000E+00 0. -1.
         25    1    1    2    0    0  0.34864278388E+02 -0.15026076563E+03 -0.15833863621E+03  0.25394869425E+03  0.12500000000E+03 0.  0.
          2    1    1    2  502    0  0.13752674523E+02  0.75325172359E+02 -0.33682693312E+03  0.34542061392E+03  0.00000000000E+00 0. -1.
         -1    1    1    2    0  501 -0.48616952910E+02  0.74935593271E+02  0.42938281016E+03  0.43857559087E+03  0.00000000000E+00 0.  1.
<mgrwt>
<rscale>  0 0.83266026E+02</rscale>
<asrwt>0</asrwt>
<pdfrwt beam="2">  1        2 0.84902127E-01 0.76570344E+02</pdfrwt>
<pdfrwt beam="1">  1       -1 0.74781704E-01 0.90547210E+02</pdfrwt>
<totfact> 0.12673418E+02</totfact>
</mgrwt>
</event>
<event>
 5    1  0.7156190E-003  0.5330169E+02  0.7546771E-02  0.1559029E+00
          2   -1    0    0  502    0  0.00000000000E+00  0.00000000000E+00  0.10266958407E+04  0.10266958407E+04  0.00000000000E+00 0. -1.
         -2   -1    0    0    0  501 -0.00000000000E+00 -0.00000000000E+00 -0.46532510910E+02  0.46532510910E+02  0.00000000000E+00 0.  1.
         25    1    1    2    0    0  0.66609316128E+02 -0.84724044316E+00  0.17338663657E+03  0.22388712458E+03  0.12500000000E+03 0.  0.
          2    1    1    2  502    0 -0.51053317740E+02 -0.13994891064E+02  0.82155035601E+03  0.82325408331E+03  0.00000000000E+00 0. -1.
         -2    1    1    2    0  501 -0.15555998388E+02  0.14842131507E+02 -0.14773662811E+02  0.26087143699E+02  0.00000000000E+00 0.  1.
<mgrwt>
<rscale>  0 0.33852933E+02</rscale>
<asrwt>0</asrwt>
<pdfrwt beam="1">  1        2 0.15795319E+00 0.53301694E+02</pdfrwt>
<pdfrwt beam="2">  1       -2 0.71588486E-02 0.21500650E+02</pdfrwt>
<totfact> 0.24676127E+03</totfact>
</mgrwt>
</event>
<event>
 5    1  0.7156190E-003  0.5263699E+02  0.7546771E-02  0.1446437E+00
          2   -1    0    0  502    0  0.00000000000E+00  0.00000000000E+00  0.20816298075E+04  0.20816298075E+04  0.00000000000E+00 0. -1.
         -2   -1    0    0    0  501 -0.00000000000E+00 -0.00000000000E+00 -0.96542790362E+01  0.96542790362E+01  0.00000000000E+00 0.  1.
         25    1    1    2    0    0 -0.52113294099E+02 -0.46496284545E+02  0.16511557917E+04  0.16573527531E+04  0.12500000000E+03 0.  0.
          2    1    1    2  502    0  0.46752488368E+02 -0.58014125462E+01  0.27314447894E+03  0.27717748453E+03  0.00000000000E+00 0. -1.
         -2    1    1    2    0  501  0.53608057307E+01  0.52297697091E+02  0.14767525787E+03  0.15675384891E+03  0.00000000000E+00 0.  1.
<mgrwt>
<rscale>  0 0.49797430E+02</rscale>
<asrwt>0</asrwt>
<pdfrwt beam="1">  1        2 0.32025038E+00 0.47111056E+02</pdfrwt>
<pdfrwt beam="2">  1       -2 0.14852754E-02 0.52636987E+02</pdfrwt>
<totfact> 0.78094856E+03</totfact>
</mgrwt>
</event>
<event>
 5    1  0.7156190E-003  0.8093514E+02  0.7546771E-02  0.1453615E+00
         -1   -1    0    0    0  501 -0.00000000000E+00  0.00000000000E+00  0.31585556322E+02  0.31585556322E+02  0.00000000000E+00 0.  1.
          2   -1    0    0  502    0  0.00000000000E+00 -0.00000000000E+00 -0.59600319563E+03  0.59600319563E+03  0.00000000000E+00 0. -1.
         25    1    1    2    0    0 -0.28230480317E+02  0.77057610198E+02 -0.23216720718E+03  0.27615475263E+03  0.12500000000E+03 0.  0.
          2    1    1    2  502    0 -0.45369403103E+00 -0.81723342893E+02 -0.27956120673E+03  0.29126170177E+03  0.00000000000E+00 0. -1.
         -1    1    1    2    0  501  0.28684174348E+02  0.46657326953E+01 -0.52689225398E+02  0.60172297552E+02  0.00000000000E+00 0.  1.
<mgrwt>
<rscale>  0 0.48498133E+02</rscale>
<asrwt>0</asrwt>
<pdfrwt beam="2">  1        2 0.91692785E-01 0.80935141E+02</pdfrwt>
<pdfrwt beam="1">  1       -1 0.48593171E-02 0.29061158E+02</pdfrwt>
<totfact> 0.86896200E+03</totfact>
</mgrwt>
</event>
<event>
 5    1  0.7156190E-003  0.9865317E+02  0.7546771E-02  0.1288436E+00
          2   -1    0    0  501    0  0.00000000000E+00  0.00000000000E+00  0.16176208286E+04  0.16176208286E+04  0.00000000000E+00 0. -1.
          3   -1    0    0  502    0 -0.00000000000E+00 -0.00000000000E+00 -0.74881951264E+02  0.74881951264E+02  0.00000000000E+00 0. -1.
         25    1    1    2    0    0  0.42579754489E+02 -0.31629070887E+02  0.22740124773E+03  0.26485800174E+03  0.12500000000E+03 0.  0.
          2    1    1    2  501    0 -0.43602141023E+02 -0.83118091116E+02  0.13093786525E+04  0.13127384429E+04  0.00000000000E+00 0. -1.
          3    1    1    2  502    0  0.10223865338E+01  0.11474716200E+03  0.59589770602E+01  0.11490633520E+03  0.00000000000E+00 0. -1.
<mgrwt>
<rscale>  0 0.96226922E+02</rscale>
<asrwt>0</asrwt>
<pdfrwt beam="1">  1        2 0.24886472E+00 0.93860342E+02</pdfrwt>
<pdfrwt beam="2">  1        3 0.11520301E-01 0.98653172E+02</pdfrwt>
<totfact> 0.43325493E+02</totfact>
</mgrwt>
</event>
<event>
 5    1  0.7156190E-003  0.4326701E+02  0.7546771E-02  0.1598019E+00
          2   -1    0    0  502    0  0.00000000000E+00  0.00000000000E+00  0.72587432823E+03  0.72587432823E+03  0.00000000000E+00 0. -1.
         -1   -1    0    0    0  501 -0.00000000000E+00 -0.00000000000E+00 -0.18443142688E+02  0.18443142688E+02  0.00000000000E+00 0.  1.
         25    1    1    2    0    0 -0.17100284983E+02  0.32164012796E+02  0.54123580191E+03  0.55667597104E+03  0.12500000000E+03 0.  0.
          2    1    1    2  502    0  0.16948375037E+02  0.12074826429E+02  0.12651168826E+03  0.12821176278E+03  0.00000000000E+00 0. -1.
         -1    1    1    2    0  501  0.15190994583E+00 -0.44238839226E+02  0.39683695375E+02  0.59429737096E+02  0.00000000000E+00 0.  1.
<mgrwt>
<rscale>  0 0.30006314E+02</rscale>
<asrwt>0</asrwt>
<pdfrwt beam="1">  1        2 0.11167295E+00 0.20809826E+02</pdfrwt>
<pdfrwt beam="2">  1       -1 0.28374071E-02 0.43267007E+02</pdfrwt>
<totfact> 0.16325474E+04</totfact>
</mgrwt>
</event>
<event>
 5    1  0.7156190E-003  0.9366706E+02  0.7546771E-02  0.1350088E+00
          2   -1    0    0  501    0  0.00000000000E+00  0.00000000000E+00  0.15877384673E+04  0.15877384673E+04  0.00000000000E+00 0. -1.
          2   -1    0    0  502    0 -0.00000000000E+00 -0.00000000000E+00 -0.86705369150E+03  0.86705369150E+03  0.00000000000E+00 0. -1.
         25    1    1    2    0    0 -0.35031724908E+02 -0.31293576066E+02  0.18689310416E+03  0.22969663044E+03  0.12500000000E+03 0.  0.
          2    1    1    2  501    0  0.91940662609E+02  0.33081530803E+02  0.13767517357E+04  0.13802147713E+04  0.00000000000E+00 0. -1.
          2    1    1    2  502    0 -0.56908937701E+02 -0.17879547363E+01 -0.84296006409E+03  0.84488075704E+03  0.00000000000E+00 0. -1.
<mgrwt>
<rscale>  0 0.73028233E+02</rscale>
<asrwt>0</asrwt>
<pdfrwt beam="1">  1        2 0.24426746E+00 0.93667057E+02</pdfrwt>
<pdfrwt beam="2">  1        2 0.13339288E+00 0.56937018E+02</pdfrwt>
<totfact> 0.71377853E+01</totfact>
</mgrwt>
</event>
<event>
 5    1  0.7156190E-003  0.6826673E+02  0.7546771E-02  0.1500271E+00
          1   -1    0    0  502    0  0.00000000000E+00  0.00000000000E+00  0.14806248498E+02  0.14806248498E+02  0.00000000000E+00 0. -1.
         -1   -1    0    0    0  501 -0.00000000000E+00 -0.00000000000E+00 -0.12517029274E+04  0.12517029274E+04  0.00000000000E+00 0.  1.
         25    1    1    2    0    0  0.51756425919E+02 -0.61395020162E+02 -0.59665274377E+03  0.61487199707E+03  0.12500000000E+03 0.  0.
          1    1    1    2  502    0 -0.19065628068E+01  0.24670326432E+02 -0.46710710682E+03  0.46776202200E+03  0.00000000000E+00 0. -1.
         -1    1    1    2    0  501 -0.49849863112E+02  0.36724693730E+02 -0.17313682835E+03  0.18387515686E+03  0.00000000000E+00 0.  1.
<mgrwt>
<rscale>  0 0.41099687E+02</rscale>
<asrwt>0</asrwt>
<pdfrwt beam="1">  1        1 0.22778851E-02 0.24743888E+02</pdfrwt>
<pdfrwt beam="2">  1       -1 0.19256962E+00 0.68266728E+02</pdfrwt>
<totfact> 0.76989071E+02</totfact>
</mgrwt>
</event>
<event>
 5    1  0.7156190E-003  0.5941223E+03  0.7546771E-02  0.9917676E-01
          1   -1    0    0  502    0  0.00000000000E+00  0.00000000000E+00  0.20240397343E+04  0.20240397343E+04  0.00000000000E+00 0. -1.
         -2   -1    0    0    0  501 -0.00000000000E+00 -0.00000000000E+00 -0.43598619854E+02  0.43598619854E+02  0.00000000000E+00 0.  1.
         25    1    1    2    0    0 -0.30812131714E+02 -0.21174337803E+03  0.39908378432E+03  0.46976325155E+03  0.12500000000E+03 0.  0.
          1    1    1    2  502    0  0.46005042613E+02  0.16879363177E+03  0.13997392402E+04  0.14106302473E+04  0.00000000000E+00 0. -1.
         -2    1    1    2    0  501 -0.15192910900E+02  0.42949746259E+02  0.18161808999E+03  0.18724485535E+03  0.00000000000E+00 0.  1.
<mgrwt>
<rscale>  0 0.59412234E+03</rscale>
<asrwt>0</asrwt>
<pdfrwt beam="1">  1        1 0.31139066E+00 0.59412234E+03</pdfrwt>
<pdfrwt beam="2">  1       -2 0.67074815E-02 0.59412234E+03</pdfrwt>
<totfact> 0.34295167E+02</totfact>
</mgrwt>
</event>
<event>
 5    1  0.7156190E-003  0.1821814E+03  0.7546771E-02  0.1230891E+00
          2   -1    0    0  502    0  0.00000000000E+00  0.00000000000E+00  0.15880484557E+04  0.15880484557E+04  0.00000000000E+00 0. -1.
         -3   -1    0    0    0  501 -0.00000000000E+00 -0.00000000000E+00 -0.47190926869E+03  0.47190926869E+03  0.00000000000E+00 0.  1.
         25    1    1    2    0    0  0.64069118089E+02 -0.12185032064E+03 -0.16152180345E+03  0.24630599977E+03  0.12500000000E+03 0.  0.
          2    1    1    2  502    0  0.56224571181E+00  0.18380251443E+03  0.15325314515E+04  0.15435142792E+04  0.00000000000E+00 0. -1.
         -3    1    1    2    0  501 -0.64631363801E+02 -0.61952193791E+02 -0.25487046101E+03  0.27013744538E+03  0.00000000000E+00 0.  1.
<mgrwt>
<rscale>  0 0.12771203E+03</rscale>
<asrwt>0</asrwt>
<pdfrwt beam="1">  1        2 0.24431515E+00 0.18218141E+03</pdfrwt>
<pdfrwt beam="2">  1       -3 0.72601427E-01 0.89528138E+02</pdfrwt>
<totfact> 0.14109321E+01</totfact>
</mgrwt>
</event>
<event>
 5    1  0.7156190E-003  0.6533511E+02  0.7546771E-02  0.1469702E+00
         -1   -1    0    0    0  501 -0.00000000000E+00  0.00000000000E+00  0.13502389995E+02  0.13502389995E+02  0.00000000000E+00 0.  1.
          2   -1    0    0  502    0  0.00000000000E+00 -0.00000000000E+00 -0.16937790304E+04  0.16937790304E+04  0.00000000000E+00 0. -1.
         25    1    1    2    0    0  0.44427456158E+02 -0.36148775308E+02 -0.42697854611E+03  0.44857130052E+03  0.12500000000E+03 0.  0.
          2    1    1    2  502    0 -0.33213656892E-01 -0.32038238221E+02 -0.50137193219E+03  0.50239453042E+03  0.00000000000E+00 0. -1.
         -1    1    1    2    0  501 -0.44394242501E+02  0.68187013529E+02 -0.75192616209E+03  0.75631558943E+03  0.00000000000E+00 0.  1.
<mgrwt>
<rscale>  0 0.45751754E+02</rscale>
<asrwt>0</asrwt>
<pdfrwt beam="2">  1        2 0.26058141E+00 0.32038255E+02</pdfrwt>
<pdfrwt beam="1">  1       -1 0.20772906E-02 0.65335111E+02</pdfrwt>
<totfact> 0.81481534E+03</totfact>
</mgrwt>
</event>
<event>
 5    1  0.7156190E-003  0.1324726E+03  0.7546771E-02  0.1334519E+00
         -1   -1    0    0    0  501 -0.00000000000E+00  0.00000000000E+00  0.31513384217E+02  0.31513384217E+02  0.00000000000E+00 0.  1.
          2   -1    0    0  502    0  0.00000000000E+00 -0.00000000000E+00 -0.42692352427E+04  0.42692352427E+04  0.00000000000E+00 0. -1.
         25    1    1    2    0    0  0.96135812549E+02 -0.58858298832E+01 -0.88263644796E+03  0.89663194049E+03  0.12500000000E+03 0.  0.
          2    1    1    2  502    0  0.44601476936E+02  0.11456386392E+02 -0.31757476440E+04  0.31760814912E+04  0.00000000000E+00 0. -1.
         -1    1    1    2    0  501 -0.14073728948E+03 -0.55705565093E+01 -0.17933776656E+03  0.22803519524E+03  0.00000000000E+00 0.  1.
<mgrwt>
<rscale>  0 0.78104244E+02</rscale>
<asrwt>0</asrwt>
<pdfrwt beam="2">  1        2 0.65680537E+00 0.46049327E+02</pdfrwt>
<pdfrwt beam="1">  1       -1 0.48482133E-02 0.13247257E+03</pdfrwt>
<totfact> 0.81147983E+01</totfact>
</mgrwt>
</event>
<event>
 5    1  0.7156190E-003  0.5370900E+02  0.7546771E-02  0.1563635E+00
         -3   -1    0    0    0  501 -0.00000000000E+00  0.00000000000E+00  0.44265866631E+02  0.44265866631E+02  0.00000000000E+00 0.  1.
          2   -1    0    0  502    0  0.00000000000E+00 -0.00000000000E+00 -0.12275274856E+04  0.12275274856E+04  0.00000000000E+00 0. -1.
         25    1    1    2    0    0  0.42317845052E+02 -0.11130430794E+02 -0.42877259735E+03  0.44876009931E+03  0.12500000000E+03 0.  0.
          2    1    1    2  502    0  0.17575356777E+01 -0.20650111002E+02 -0.76699461194E+03  0.76727456022E+03  0.00000000000E+00 0. -1.
         -3    1    1    2    0  501 -0.44075380730E+02  0.31780541796E+02  0.12505590310E+02  0.55758692706E+02  0.00000000000E+00 0.  1.
<mgrwt>
<rscale>  0 0.33363252E+02</rscale>
<asrwt>0</asrwt>
<pdfrwt beam="2">  1        2 0.18885036E+00 0.20724768E+02</pdfrwt>
<pdfrwt beam="1">  1       -3 0.68101341E-02 0.53708999E+02</pdfrwt>
<totfact> 0.16497430E+03</totfact>
</mgrwt>
</event>
<event>
 5    1  0.7156190E-003  0.3733336E+02  0.7546771E-02  0.1563814E+00
          2   -1    0    0  502    0  0.00000000000E+00  0.00000000000E+00  0.26655536492E+04  0.26655536492E+04  0.00000000000E+00 0. -1.
          2   -1    0    0  501    0 -0.00000000000E+00 -0.00000000000E+00 -0.18051341773E+03  0.18051341773E+03  0.00000000000E+00 0. -1.
         25    1    1    2    0    0  0.14671563544E+02 -0.19523565606E+02  0.16718749588E+04  0.16767192079E+04  0.12500000000E+03 0.  0.
          2    1    1    2  501    0  0.10171441621E+02  0.35948488606E+02 -0.17590536543E+03  0.17982894551E+03  0.00000000000E+00 0. -1.
          2    1    1    2  502    0 -0.24843005165E+02 -0.16424922999E+02  0.98907063810E+03  0.98951891349E+03  0.00000000000E+00 0. -1.
<mgrwt>
<rscale>  0 0.33344460E+02</rscale>
<asrwt>0</asrwt>
<pdfrwt beam="1">  1        2 0.41008515E+00 0.29781756E+02</pdfrwt>
<pdfrwt beam="2">  1        2 0.27771297E-01 0.37333360E+02</pdfrwt>
<totfact> 0.12664319E+02</totfact>
</mgrwt>
</event>
<event>
 5    1  0.7156190E-003  0.1156285E+03  0.7546771E-02  0.1331328E+00
          1   -1    0    0  502    0 -0.00000000000E+00  0.00000000000E+00  0.60266771152E+03  0.60266771152E+03  0.00000000000E+00 0. -1.
          2   -1    0    0  501    0  0.00000000000E+00 -0.00000000000E+00 -0.49291906587E+03  0.49291906587E+03  0.00000000000E+00 0. -1.
         25    1    1    2    0    0  0.84325892687E+02  0.68772222874E+02  0.18274232889E+03  0.24669866960E+03  0.12500000000E+03 0.  0.
          2    1    1    2  501    0 -0.11391708410E+03 -0.23300029442E+02 -0.45164373258E+03  0.46637115541E+03  0.00000000000E+00 0. -1.
          1    1    1    2  502    0  0.29591191410E+02 -0.45472193431E+02  0.37865004934E+03  0.38251695237E+03  0.00000000000E+00 0. -1.
<mgrwt>
<rscale>  0 0.79203292E+02</rscale>
<asrwt>0</asrwt>
<pdfrwt beam="2">  1        2 0.75833702E-01 0.11562849E+03</pdfrwt>
<pdfrwt beam="1">  1        1 0.92718110E-01 0.54252733E+02</pdfrwt>
<totfact> 0.32270925E+02</totfact>
</mgrwt>
</event>
<event>
 5    1  0.1032646E-002  0.9173697E+02  0.7546771E-02  0.1400279E+00
          2   -1    0    0  502    0  0.00000000000E+00  0.00000000000E+00  0.24060871907E+04  0.24060871907E+04  0.00000000000E+00 0. -1.
         -1   -1    0    0    0  501 -0.00000000000E+00 -0.00000000000E+00 -0.11064875417E+02  0.11064875417E+02  0.00000000000E+00 0.  1.
         25    1    1    2    0    0  0.67901400867E+01 -0.12245009706E+03  0.15001126241E+04  0.15102989827E+04  0.12500000000E+03 0.  0.
          2    1    1    2  502    0  0.39041837678E+01  0.38290068339E+02  0.56155754776E+03  0.56287498740E+03  0.00000000000E+00 0. -1.
         -1    1    1    2    0  501 -0.10694323855E+02  0.84160028716E+02  0.33335214343E+03  0.34397809600E+03  0.00000000000E+00 0.  1.
<mgrwt>
<rscale>  0 0.59420762E+02</rscale>
<asrwt>0</asrwt>
<pdfrwt beam="1">  1        2 0.37016684E+00 0.38488596E+02</pdfrwt>
<pdfrwt beam="2">  1       -1 0.17022904E-02 0.91736966E+02</pdfrwt>
<totfact> 0.50288109E+03</totfact>
</mgrwt>
</event>
<event>
 5    1  0.7156190E-003  0.1079750E+03  0.7546771E-02  0.1417602E+00
          2   -1    0    0  502    0  0.00000000000E+00  0.00000000000E+00  0.68634787287E+03  0.68634787287E+03  0.00000000000E+00 0. -1.
         -1   -1    0    0    0  501 -0.00000000000E+00 -0.00000000000E+00 -0.10898089205E+03  0.10898089205E+03  0.00000000000E+00 0.  1.
         25    1    1    2    0    0  0.64655464511E+02  0.61567940393E+02  0.90882468551E+02  0.17848126923E+03  0.12500000000E+03 0.  0.
          2    1    1    2  502    0  0.89978202671E+01  0.27105368703E+02  0.49997336913E+03  0.50078841003E+03  0.00000000000E+00 0. -1.
         -1    1    1    2    0  501 -0.73653284778E+02 -0.88673309096E+02 -0.13488856859E+02  0.11605908566E+03  0.00000000000E+00 0.  1.
<mgrwt>
<rscale>  0 0.55531473E+02</rscale>
<asrwt>0</asrwt>
<pdfrwt beam="1">  1        2 0.10559198E+00 0.28559793E+02</pdfrwt>
<pdfrwt beam="2">  1       -1 0.16766292E-01 0.10797503E+03</pdfrwt>
<totfact> 0.13578192E+03</totfact>
</mgrwt>
</event>
<event>
 5    1  0.7156190E-003  0.1823625E+03  0.7546771E-02  0.1204197E+00
          2   -1    0    0  501    0  0.00000000000E+00  0.00000000000E+00  0.25375997377E+04  0.25375997377E+04  0.00000000000E+00 0. -1.
          2   -1    0    0  502    0 -0.00000000000E+00 -0.00000000000E+00 -0.81678353720E+03  0.81678353720E+03  0.00000000000E+00 0. -1.
         25    1    1    2    0    0 -0.68271609020E+02  0.52370597707E+02  0.14422305191E+03  0.20935372173E+03  0.12500000000E+03 0.  0.
          2    1    1    2  501    0  0.10248734365E+03 -0.16583368549E+03  0.23522787534E+04  0.23603431532E+04  0.00000000000E+00 0. -1.
          2    1    1    2  502    0 -0.34215734633E+02  0.11346308778E+03 -0.77568560484E+03  0.78468640000E+03  0.00000000000E+00 0. -1.
<mgrwt>
<rscale>  0 0.14700936E+03</rscale>
<asrwt>0</asrwt>
<pdfrwt beam="1">  1        2 0.39039996E+00 0.18236247E+03</pdfrwt>
<pdfrwt beam="2">  1        2 0.12565901E+00 0.11850987E+03</pdfrwt>
<totfact> 0.22436310E+01</totfact>
</mgrwt>
</event>
<event>
 5    1  0.7156190E-003  0.1137407E+03  0.7546771E-02  0.1378127E+00
          2   -1    0    0  501    0  0.00000000000E+00  0.00000000000E+00  0.22343906346E+03  0.22343906346E+03  0.00000000000E+00 0. -1.
          2   -1    0    0  502    0 -0.00000000000E+00 -0.00000000000E+00 -0.13571546724E+04  0.13571546724E+04  0.00000000000E+00 0.  1.
         25    1    1    2    0    0  0.24430819017E+02 -0.10190381246E+03 -0.55627106705E+03  0.57969280826E+03  0.12500000000E+03 0.  0.
          2    1    1    2  501    0  0.10767823736E+02  0.11362413859E+03  0.19587010761E+03  0.22669691210E+03  0.00000000000E+00 0. -1.
          2    1    1    2  502    0 -0.35198642753E+02 -0.11720326130E+02 -0.77331464947E+03  0.77420401548E+03  0.00000000000E+00 0.  1.
<mgrwt>
<rscale>  0 0.64958671E+02</rscale>
<asrwt>0</asrwt>
<pdfrwt beam="1">  1        2 0.34375241E-01 0.11374074E+03</pdfrwt>
<pdfrwt beam="2">  1        2 0.20879302E+00 0.37098659E+02</pdfrwt>
<totfact> 0.43679749E+02</totfact>
</mgrwt>
</event>
<event>
 5    1  0.7156190E-003  0.8738631E+02  0.7546771E-02  0.1434281E+00
          2   -1    0    0  501    0  0.00000000000E+00  0.00000000000E+00  0.75987374995E+03  0.75987374995E+03  0.00000000000E+00 0. -1.
          1   -1    0    0  502    0 -0.00000000000E+00 -0.00000000000E+00 -0.38027241224E+03  0.38027241224E+03  0.00000000000E+00 0. -1.
         25    1    1    2    0    0 -0.84105590751E+02  0.61342474953E+01 -0.13616072129E+03  0.20316525640E+03  0.12500000000E+03 0.  0.
          2    1    1    2  501    0  0.79382562538E+02 -0.36847567355E+02  0.72257033225E+03  0.72785109707E+03  0.00000000000E+00 0. -1.
          1    1    1    2  502    0  0.47230282136E+01  0.30713319860E+02 -0.20680827325E+03  0.20912980872E+03  0.00000000000E+00 0. -1.
<mgrwt>
<rscale>  0 0.52110196E+02</rscale>
<asrwt>0</asrwt>
<pdfrwt beam="1">  1        2 0.11690365E+00 0.87386310E+02</pdfrwt>
<pdfrwt beam="2">  1        1 0.58503448E-01 0.31074347E+02</pdfrwt>
<totfact> 0.35520652E+02</totfact>
</mgrwt>
</event>
<event>
 5    1  0.7156190E-003  0.1578367E+03  0.7546771E-02  0.1322334E+00
         -1   -1    0    0    0  501 -0.00000000000E+00  0.00000000000E+00  0.21617746434E+04  0.21617746434E+04  0.00000000000E+00 0.  1.
          1   -1    0    0  502    0  0.00000000000E+00 -0.00000000000E+00 -0.87401595841E+02  0.87401595841E+02  0.00000000000E+00 0. -1.
         25    1    1    2    0    0  0.48647242102E+02 -0.15799996377E+03  0.39969233290E+03  0.45023272171E+03  0.12500000000E+03 0.  0.
          1    1    1    2  502    0 -0.83685739728E+02  0.13301631996E+03  0.37978459361E+02  0.16167562520E+03  0.00000000000E+00 0. -1.
         -1    1    1    2    0  501  0.35038497626E+02  0.24983643810E+02  0.16367022553E+04  0.16372678923E+04  0.00000000000E+00 0.  1.
<mgrwt>
<rscale>  0 0.82415156E+02</rscale>
<asrwt>0</asrwt>
<pdfrwt beam="2">  1        1 0.13446401E-01 0.15783666E+03</pdfrwt>
<pdfrwt beam="1">  1       -1 0.33258068E+00 0.43033461E+02</pdfrwt>
<totfact> 0.13156455E+01</totfact>
</mgrwt>
</event>
<event>
 5    1  0.7156190E-003  0.7881414E+02  0.7546771E-02  0.1333038E+00
          1   -1    0    0  502    0  0.00000000000E+00  0.00000000000E+00  0.65677064948E+03  0.65677064948E+03  0.00000000000E+00 0. -1.
         -3   -1    0    0    0  501 -0.00000000000E+00 -0.00000000000E+00 -0.47803607284E+02  0.47803607284E+02  0.00000000000E+00 0.  1.
         25    1    1    2    0    0 -0.60825609273E+02  0.42661870550E+02  0.22163604542E+03  0.26507984942E+03  0.12500000000E+03 0.  0.
          1    1    1    2  502    0 -0.35163185909E+01 -0.87474787794E+02  0.33245719243E+03  0.34379061621E+03  0.00000000000E+00 0. -1.
         -3    1    1    2    0  501  0.64341927863E+02  0.44812917244E+02  0.54873804349E+02  0.95703791131E+02  0.00000000000E+00 0.  1.
<mgrwt>
<rscale>  0 0.78611661E+02</rscale>
<asrwt>0</asrwt>
<pdfrwt beam="1">  1        1 0.10104163E+00 0.78814142E+02</pdfrwt>
<pdfrwt beam="2">  1       -3 0.73544016E-02 0.78409701E+02</pdfrwt>
<totfact> 0.19197659E+03</totfact>
</mgrwt>
</event>
<event>
 5    1  0.7156190E-003  0.2868988E+03  0.7546771E-02  0.1091979E+00
         -2   -1    0    0    0  501 -0.00000000000E+00  0.00000000000E+00  0.96533168480E+01  0.96533168480E+01  0.00000000000E+00 0.  1.
          1   -1    0    0  502    0  0.00000000000E+00 -0.00000000000E+00 -0.21316752736E+04  0.21316752736E+04  0.00000000000E+00 0. -1.
         25    1    1    2    0    0 -0.96099950440E+02 -0.22701558180E+01 -0.79740771223E+03  0.81284956394E+03  0.12500000000E+03 0.  0.
          1    1    1    2  502    0  0.23025519980E+02  0.44174906072E+01 -0.52707121136E+03  0.52759240958E+03  0.00000000000E+00 0. -1.
         -2    1    1    2    0  501  0.73074430459E+02 -0.21473347892E+01 -0.79754303318E+03  0.80088661694E+03  0.00000000000E+00 0.  1.
<mgrwt>
<rscale>  0 0.28689885E+03</rscale>
<asrwt>0</asrwt>
<pdfrwt beam="2">  1        1 0.32794992E+00 0.28689885E+03</pdfrwt>
<pdfrwt beam="1">  1       -2 0.14851262E-02 0.28689885E+03</pdfrwt>
<totfact> 0.29133209E+03</totfact>
</mgrwt>
</event>
<event>
 5    1  0.7156190E-003  0.5648819E+02  0.7546771E-02  0.1462307E+00
          1   -1    0    0  502    0  0.00000000000E+00  0.00000000000E+00  0.90184748749E+03  0.90184748749E+03  0.00000000000E+00 0. -1.
          1   -1    0    0  501    0 -0.00000000000E+00 -0.00000000000E+00 -0.45946836995E+03  0.45946836995E+03  0.00000000000E+00 0. -1.
         25    1    1    2    0    0  0.29658791269E+00  0.18184244525E+02  0.79165578836E+03  0.80166990835E+03  0.12500000000E+03 0.  0.
          1    1    1    2  501    0 -0.13757842318E+02 -0.54876280012E+02 -0.44899331500E+03  0.45254356834E+03  0.00000000000E+00 0. -1.
          1    1    1    2  502    0  0.13461254405E+02  0.36692035486E+02  0.99716644176E+02  0.10710238076E+03  0.00000000000E+00 0. -1.
<mgrwt>
<rscale>  0 0.46986694E+02</rscale>
<asrwt>0</asrwt>
<pdfrwt beam="1">  1        1 0.13874577E+00 0.39083383E+02</pdfrwt>
<pdfrwt beam="2">  1        1 0.70687442E-01 0.56488187E+02</pdfrwt>
<totfact> 0.13349820E+02</totfact>
</mgrwt>
</event>
<event>
 5    1  0.7156190E-003  0.6139728E+02  0.7546771E-02  0.1456741E+00
          1   -1    0    0  502    0 -0.00000000000E+00  0.00000000000E+00  0.66311226599E+03  0.66311226599E+03  0.00000000000E+00 0. -1.
          2   -1    0    0  501    0  0.00000000000E+00 -0.00000000000E+00 -0.15726961640E+03  0.15726961640E+03  0.00000000000E+00 0. -1.
         25    1    1    2    0    0  0.50574732931E+02 -0.20330165020E+02  0.18643703392E+03  0.23098676767E+03  0.12500000000E+03 0.  0.
          2    1    1    2  501    0 -0.59914699012E+02 -0.15929309128E+02 -0.12705160601E+03  0.14137052252E+03  0.00000000000E+00 0. -1.
          1    1    1    2  502    0  0.93399660811E+01  0.36259474148E+02  0.44645722168E+03  0.44802459221E+03  0.00000000000E+00 0. -1.
<mgrwt>
<rscale>  0 0.47946880E+02</rscale>
<asrwt>0</asrwt>
<pdfrwt beam="2">  1        2 0.24195326E-01 0.61397276E+02</pdfrwt>
<pdfrwt beam="1">  1        1 0.10201727E+00 0.37443083E+02</pdfrwt>
<totfact> 0.95769677E+02</totfact>
</mgrwt>
</event>
<event>
 5    1  0.7156190E-003  0.7312775E+02  0.7546771E-02  0.1357710E+00
         -2   -1    0    0    0  501 -0.00000000000E+00  0.00000000000E+00  0.98625615311E+02  0.98625615311E+02  0.00000000000E+00 0.  1.
          1   -1    0    0  502    0  0.00000000000E+00 -0.00000000000E+00 -0.51767590005E+03  0.51767590005E+03  0.00000000000E+00 0. -1.
         25    1    1    2    0    0  0.35776886864E+02 -0.41722378562E+02 -0.14296442331E+03  0.19769817611E+03  0.12500000000E+03 0.  0.
          1    1    1    2  502    0 -0.69046568927E+02 -0.24088162302E+02 -0.32301866750E+03  0.33119288610E+03  0.00000000000E+00 0. -1.
         -2    1    1    2    0  501  0.33269682063E+02  0.65810540864E+02  0.46932806077E+02  0.87410453148E+02  0.00000000000E+00 0.  1.
<mgrwt>
<rscale>  0 0.70705549E+02</rscale>
<asrwt>0</asrwt>
<pdfrwt beam="2">  1        1 0.79642446E-01 0.73127753E+02</pdfrwt>
<pdfrwt beam="1">  1       -2 0.15173172E-01 0.68363575E+02</pdfrwt>
<totfact> 0.12351259E+03</totfact>
</mgrwt>
</event>
<event>
 5    1  0.7156190E-003  0.7552347E+02  0.7546771E-02  0.1445365E+00
         -1   -1    0    0    0  501 -0.00000000000E+00  0.00000000000E+00  0.14559475393E+02  0.14559475393E+02  0.00000000000E+00 0.  1.
          2   -1    0    0  502    0  0.00000000000E+00 -0.00000000000E+00 -0.12653152624E+04  0.12653152624E+04  0.00000000000E+00 0. -1.
         25    1    1    2    0    0  0.73560402418E+02  0.34202605993E+02 -0.85783015485E+03  0.87067705013E+03  0.12500000000E+03 0.  0.
          2    1    1    2  502    0 -0.74581816415E+02 -0.11217364501E+01 -0.32738289971E+03  0.33577264429E+03  0.00000000000E+00 0. -1.
         -1    1    1    2    0  501  0.10214139972E+01 -0.33080869542E+02 -0.65542732414E+02  0.73425043333E+02  0.00000000000E+00 0.  1.
<mgrwt>
<rscale>  0 0.49995727E+02</rscale>
<asrwt>0</asrwt>
<pdfrwt beam="2">  1        2 0.19466392E+00 0.75523470E+02</pdfrwt>
<pdfrwt beam="1">  1       -1 0.22399189E-02 0.33096635E+02</pdfrwt>
<totfact> 0.10010505E+04</totfact>
</mgrwt>
</event>
<event>
 5    1  0.7156190E-003  0.9256825E+02  0.7546771E-02  0.1298185E+00
          2   -1    0    0  501    0  0.00000000000E+00  0.00000000000E+00  0.29273690375E+04  0.29273690375E+04  0.00000000000E+00 0.  1.
          1   -1    0    0  502    0 -0.00000000000E+00 -0.00000000000E+00 -0.11163215349E+04  0.11163215349E+04  0.00000000000E+00 0. -1.
         25    1    1    2    0    0 -0.70968908975E+02 -0.88240752797E+02  0.50808853519E+03  0.53535219817E+03  0.12500000000E+03 0.  0.
          2    1    1    2  501    0  0.91321033431E+02 -0.21463268167E+01  0.24028331373E+04  0.24045688228E+04  0.00000000000E+00 0.  1.
          1    1    1    2  502    0 -0.20352124456E+02  0.90387079613E+02 -0.10998741699E+04  0.11037695515E+04  0.00000000000E+00 0. -1.
<mgrwt>
<rscale>  0 0.91955219E+02</rscale>
<asrwt>0</asrwt>
<pdfrwt beam="1">  1        2 0.45036446E+00 0.91346253E+02</pdfrwt>
<pdfrwt beam="2">  1        1 0.17174178E+00 0.92568246E+02</pdfrwt>
<totfact> 0.52826062E+00</totfact>
</mgrwt>
</event>
<event>
 5    1  0.7156190E-003  0.9301835E+02  0.7546771E-02  0.1404716E+00
         -1   -1    0    0    0  501 -0.00000000000E+00  0.00000000000E+00  0.18944225439E+03  0.18944225439E+03  0.00000000000E+00 0.  1.
          2   -1    0    0  502    0  0.00000000000E+00 -0.00000000000E+00 -0.16738329256E+03  0.16738329256E+03  0.00000000000E+00 0. -1.
         25    1    1    2    0    0 -0.91232294445E+02  0.36463000939E+02  0.11647513440E+03  0.19708967228E+03  0.12500000000E+03 0.  0.
          2    1    1    2  502    0  0.34269244861E+01 -0.36491968810E+02 -0.48070741179E+02  0.60450010393E+02  0.00000000000E+00 0. -1.
         -1    1    1    2    0  501  0.87805369958E+02  0.28967870658E-01 -0.46345431388E+02  0.99285864267E+02  0.00000000000E+00 0.  1.
<mgrwt>
<rscale>  0 0.58389702E+02</rscale>
<asrwt>0</asrwt>
<pdfrwt beam="2">  1        2 0.25751276E-01 0.36652525E+02</pdfrwt>
<pdfrwt beam="1">  1       -1 0.29144962E-01 0.93018346E+02</pdfrwt>
<totfact> 0.23581385E+03</totfact>
</mgrwt>
</event>
<event>
 5    1  0.7156190E-003  0.1244460E+03  0.7546771E-02  0.1295858E+00
         -1   -1    0    0    0  501  0.00000000000E+00  0.00000000000E+00  0.84224855685E+03  0.84224855685E+03  0.00000000000E+00 0.  1.
         -1   -1    0    0    0  502 -0.00000000000E+00 -0.00000000000E+00 -0.88602639681E+02  0.88602639681E+02  0.00000000000E+00 0.  1.
         25    1    1    2    0    0  0.67627788939E+02 -0.75659817163E+02  0.20550661067E+03  0.26106683588E+03  0.12500000000E+03 0.  0.
         -1    1    1    2    0  501 -0.26254613966E+02  0.13141318960E+03  0.57863791843E+03  0.59395334143E+03  0.00000000000E+00 0.  1.
         -1    1    1    2    0  502 -0.41373174973E+02 -0.55753372435E+02 -0.30498611931E+02  0.75831019213E+02  0.00000000000E+00 0.  1.
<mgrwt>
<rscale>  0 0.92951466E+02</rscale>
<asrwt>0</asrwt>
<pdfrwt beam="1">  1       -1 0.12957670E+00 0.12444600E+03</pdfrwt>
<pdfrwt beam="2">  1       -1 0.13631176E-01 0.69427503E+02</pdfrwt>
<totfact> 0.16970694E+02</totfact>
</mgrwt>
</event>
<event>
 5    1  0.7156190E-003  0.1395452E+03  0.7546771E-02  0.1309244E+00
          2   -1    0    0  501    0  0.00000000000E+00  0.00000000000E+00  0.33696711769E+03  0.33696711769E+03  0.00000000000E+00 0. -1.
          2   -1    0    0  502    0 -0.00000000000E+00 -0.00000000000E+00 -0.10385987903E+04  0.10385987903E+04  0.00000000000E+00 0. -1.
         25    1    1    2    0    0  0.11104612226E+03 -0.15377507443E+03 -0.32829885640E+03  0.39922819778E+03  0.12500000000E+03 0.  0.
          2    1    1    2  501    0 -0.68777991125E+02  0.11896837007E+03  0.28464784924E+03  0.31608271578E+03  0.00000000000E+00 0. -1.
          2    1    1    2  502    0 -0.42268131134E+02  0.34806704356E+02 -0.65798066544E+03  0.66025499443E+03  0.00000000000E+00 0. -1.
<mgrwt>
<rscale>  0 0.87411591E+02</rscale>
<asrwt>0</asrwt>
<pdfrwt beam="1">  1        2 0.51841096E-01 0.13954519E+03</pdfrwt>
<pdfrwt beam="2">  1        2 0.15978443E+00 0.54754923E+02</pdfrwt>
<totfact> 0.40523266E+02</totfact>
</mgrwt>
</event>
<event>
 5    1  0.7156190E-003  0.1203831E+03  0.7546771E-02  0.1328248E+00
         -2   -1    0    0    0  501 -0.00000000000E+00  0.00000000000E+00  0.11934523924E+03  0.11934523924E+03  0.00000000000E+00 0.  1.
          1   -1    0    0  502    0  0.00000000000E+00 -0.00000000000E+00 -0.56192987987E+03  0.56192987987E+03  0.00000000000E+00 0. -1.
         25    1    1    2    0    0 -0.77284175941E+02  0.34168913089E+01 -0.29734449785E+03  0.33169755712E+03  0.12500000000E+03 0.  0.
          1    1    1    2  502    0 -0.44322977733E+02  0.30035870764E+02 -0.20365990563E+03  0.21058023898E+03  0.00000000000E+00 0. -1.
         -2    1    1    2    0  501  0.12160715367E+03 -0.33452762073E+02  0.58419762846E+02  0.13899732302E+03  0.00000000000E+00 0.  1.
<mgrwt>
<rscale>  0 0.80283735E+02</rscale>
<asrwt>0</asrwt>
<pdfrwt beam="2">  1        1 0.86450751E-01 0.53541385E+02</pdfrwt>
<pdfrwt beam="1">  1       -2 0.18360806E-01 0.12038310E+03</pdfrwt>
<totfact> 0.84241467E+02</totfact>
</mgrwt>
</event>
<event>
 5    1  0.7156190E-003  0.4329797E+02  0.7546771E-02  0.1548907E+00
         -2   -1    0    0    0  501 -0.00000000000E+00  0.00000000000E+00  0.69115420426E+01  0.69115420426E+01  0.00000000000E+00 0.  1.
          2   -1    0    0  502    0  0.00000000000E+00 -0.00000000000E+00 -0.17731575307E+04  0.17731575307E+04  0.00000000000E+00 0. -1.
         25    1    1    2    0    0 -0.15200388276E+02 -0.16786089291E+02 -0.92173463097E+03  0.93044750229E+03  0.12500000000E+03 0.  0.
          2    1    1    2  502    0 -0.25950419133E+02 -0.11130342720E+02 -0.56613766528E+03  0.56684139301E+03  0.00000000000E+00 0. -1.
         -2    1    1    2    0  501  0.41150807408E+02  0.27916432011E+02 -0.27837369241E+03  0.28278017744E+03  0.00000000000E+00 0.  1.
<mgrwt>
<rscale>  0 0.34965552E+02</rscale>
<asrwt>0</asrwt>
<pdfrwt beam="2">  1        2 0.27279362E+00 0.28236657E+02</pdfrwt>
<pdfrwt beam="1">  1       -2 0.10633136E-02 0.43297967E+02</pdfrwt>
<totfact> 0.17930321E+04</totfact>
</mgrwt>
</event>
<event>
 5    1  0.7156190E-003  0.7547431E+02  0.7546771E-02  0.1394792E+00
          2   -1    0    0  501    0  0.00000000000E+00  0.00000000000E+00  0.13573342181E+04  0.13573342181E+04  0.00000000000E+00 0. -1.
          2   -1    0    0  502    0 -0.00000000000E+00 -0.00000000000E+00 -0.30287413833E+04  0.30287413833E+04  0.00000000000E+00 0. -1.
         25    1    1    2    0    0  0.30687697333E+02 -0.13690304049E+02 -0.14468897818E+03  0.19413670338E+03  0.12500000000E+03 0.  0.
          2    1    1    2  501    0 -0.75553160963E+02 -0.56757797421E+01  0.13313243950E+04  0.13334785860E+04  0.00000000000E+00 0. -1.
          2    1    1    2  502    0  0.44865463631E+02  0.19366083791E+02 -0.28580425820E+04  0.28584603121E+04  0.00000000000E+00 0. -1.
<mgrwt>
<rscale>  0 0.60730394E+02</rscale>
<asrwt>0</asrwt>
<pdfrwt beam="1">  1        2 0.20882065E+00 0.75474306E+02</pdfrwt>
<pdfrwt beam="2">  1        2 0.46596021E+00 0.48866707E+02</pdfrwt>
<totfact> 0.74005466E+00</totfact>
</mgrwt>
</event>
<event>
 5    1  0.7156190E-003  0.1942680E+03  0.7546771E-02  0.1290489E+00
         -3   -1    0    0    0  501 -0.00000000000E+00  0.00000000000E+00  0.17714206004E+03  0.17714206004E+03  0.00000000000E+00 0.  1.
          1   -1    0    0  502    0  0.00000000000E+00 -0.00000000000E+00 -0.46701565762E+03  0.46701565762E+03  0.00000000000E+00 0. -1.
         25    1    1    2    0    0 -0.13042011812E+03 -0.10329085702E+03 -0.11044602174E+03  0.23558805588E+03  0.12500000000E+03 0.  0.
          1    1    1    2  502    0  0.15812523168E+03  0.14095431143E+03 -0.24763489734E+03  0.32587535836E+03  0.00000000000E+00 0. -1.
         -3    1    1    2    0  501 -0.27705113557E+02 -0.37663454414E+02  0.68207321489E+02  0.82694303433E+02  0.00000000000E+00 0.  1.
<mgrwt>
<rscale>  0 0.95305633E+02</rscale>
<asrwt>0</asrwt>
<pdfrwt beam="2">  1        1 0.71848560E-01 0.19426798E+03</pdfrwt>
<pdfrwt beam="1">  1       -3 0.27252626E-01 0.46755846E+02</pdfrwt>
<totfact> 0.30810651E+02</totfact>
</mgrwt>
</event>
<event>
 5    1  0.7156190E-003  0.6203510E+02  0.7546771E-02  0.1490006E+00
         -1   -1    0    0    0  502 -0.00000000000E+00  0.00000000000E+00  0.57529586443E+02  0.57529586443E+02  0.00000000000E+00 0.  1.
         -2   -1    0    0    0  501  0.00000000000E+00 -0.00000000000E+00 -0.41559330148E+03  0.41559330148E+03  0.00000000000E+00 0.  1.
         25    1    1    2    0    0 -0.26885960009E+02 -0.83450336991E+02 -0.19986562091E+03  0.25151159021E+03  0.12500000000E+03 0.  0.
         -2    1    1    2    0  501  0.12545720951E+02  0.26404342224E+02 -0.16011251724E+03  0.16275933945E+03  0.00000000000E+00 0.  1.
         -1    1    1    2    0  502  0.14340239057E+02  0.57045994767E+02  0.19144231097E+01  0.58851958260E+02  0.00000000000E+00 0.  1.
<mgrwt>
<rscale>  0 0.42585083E+02</rscale>
<asrwt>0</asrwt>
<pdfrwt beam="2">  1       -2 0.63937431E-01 0.29233276E+02</pdfrwt>
<pdfrwt beam="1">  1       -1 0.88507056E-02 0.62035104E+02</pdfrwt>
<totfact> 0.11586505E+03</totfact>
</mgrwt>
</event>
<event>
 5    1  0.7156190E-003  0.1234386E+03  0.7546771E-02  0.1275516E+00
          1   -1    0    0  502    0  0.00000000000E+00  0.00000000000E+00  0.22265722146E+04  0.22265722146E+04  0.00000000000E+00 0. -1.
         -1   -1    0    0    0  501 -0.00000000000E+00 -0.00000000000E+00 -0.44717120212E+03  0.44717120212E+03  0.00000000000E+00 0.  1.
         25    1    1    2    0    0  0.12353963770E+03 -0.10972677649E+03  0.72059113325E+02  0.21936162695E+03  0.12500000000E+03 0.  0.
          1    1    1    2  502    0 -0.41872578050E+01  0.84691354458E+02  0.20700168594E+04  0.20717528706E+04  0.00000000000E+00 0. -1.
         -1    1    1    2    0  501 -0.11935237990E+03  0.25035422036E+02 -0.36267496028E+03  0.38262891913E+03  0.00000000000E+00 0.  1.
<mgrwt>
<rscale>  0 0.10230813E+03</rscale>
<asrwt>0</asrwt>
<pdfrwt beam="1">  1        1 0.34254957E+00 0.84794803E+02</pdfrwt>
<pdfrwt beam="2">  1       -1 0.68795571E-01 0.12343862E+03</pdfrwt>
<totfact> 0.64143311E+00</totfact>
</mgrwt>
</event>
<event>
 5    1  0.7156190E-003  0.2751289E+02  0.7546771E-02  0.1672407E+00
          2   -1    0    0  502    0  0.00000000000E+00  0.00000000000E+00  0.36648711072E+03  0.36648711072E+03  0.00000000000E+00 0. -1.
          2   -1    0    0  501    0 -0.00000000000E+00 -0.00000000000E+00 -0.10958595686E+03  0.10958595686E+03  0.00000000000E+00 0. -1.
         25    1    1    2    0    0  0.12945231667E+02 -0.17790182069E+02  0.86035891891E+02  0.15333376763E+03  0.12500000000E+03 0.  0.
          2    1    1    2  501    0  0.14767631041E+02  0.15388293335E+02 -0.73635105168E+02  0.76661667158E+02  0.00000000000E+00 0. -1.
          2    1    1    2  502    0 -0.27712862708E+02  0.24018887346E+01  0.24450036714E+03  0.24607763280E+03  0.00000000000E+00 0. -1.
<mgrwt>
<rscale>  0 0.24223836E+02</rscale>
<asrwt>0</asrwt>
<pdfrwt beam="1">  1        2 0.56382632E-01 0.27512890E+02</pdfrwt>
<pdfrwt beam="2">  1        2 0.16859378E-01 0.21327975E+02</pdfrwt>
<totfact> 0.40440479E+03</totfact>
</mgrwt>
</event>
<event>
 5    1  0.7156190E-003  0.1293977E+03  0.7546771E-02  0.1433898E+00
          1   -1    0    0  502    0 -0.00000000000E+00  0.00000000000E+00  0.40902475378E+03  0.40902475378E+03  0.00000000000E+00 0. -1.
          2   -1    0    0  501    0  0.00000000000E+00 -0.00000000000E+00 -0.35029163993E+03  0.35029163993E+03  0.00000000000E+00 0. -1.
         25    1    1    2    0    0 -0.12823251123E+03 -0.29610916499E+02 -0.71970797701E+02  0.19525670036E+03  0.12500000000E+03 0.  0.
          2    1    1    2  501    0  0.84829832064E+01 -0.19260811602E+02 -0.20407902184E+03  0.20516136825E+03  0.00000000000E+00 0. -1.
          1    1    1    2  502    0  0.11974952803E+03  0.48871728100E+02  0.33478293339E+03  0.35889832510E+03  0.00000000000E+00 0. -1.
<mgrwt>
<rscale>  0 0.52185457E+02</rscale>
<asrwt>0</asrwt>
<pdfrwt beam="2">  1        2 0.53891021E-01 0.21046137E+02</pdfrwt>
<pdfrwt beam="1">  1        1 0.62926885E-01 0.12939771E+03</pdfrwt>
<totfact> 0.74167106E+02</totfact>
</mgrwt>
</event>
<event>
 5    1  0.7156190E-003  0.9063897E+02  0.7546771E-02  0.1431746E+00
         -2   -1    0    0    0  501 -0.00000000000E+00  0.00000000000E+00  0.25623897901E+03  0.25623897901E+03  0.00000000000E+00 0.  1.
          2   -1    0    0  502    0  0.00000000000E+00 -0.00000000000E+00 -0.32558030315E+04  0.32558030315E+04  0.00000000000E+00 0. -1.
         25    1    1    2    0    0 -0.63935170337E+02 -0.43724145095E+02 -0.19504604143E+03  0.24426924724E+03  0.12500000000E+03 0.  0.
          2    1    1    2  502    0  0.87735575356E+02  0.24590110628E+02 -0.30344520236E+04  0.30358197062E+04  0.00000000000E+00 0. -1.
         -2    1    1    2    0  501 -0.23800405019E+02  0.19134034466E+02  0.22993401257E+03  0.23195305708E+03  0.00000000000E+00 0.  1.
<mgrwt>
<rscale>  0 0.52611164E+02</rscale>
<asrwt>0</asrwt>
<pdfrwt beam="2">  1        2 0.50089279E+00 0.90638973E+02</pdfrwt>
<pdfrwt beam="1">  1       -2 0.39421380E-01 0.30538018E+02</pdfrwt>
<totfact> 0.10550037E+01</totfact>
</mgrwt>
</event>
<event>
 5    1  0.7156190E-003  0.6579177E+02  0.7546771E-02  0.1442489E+00
         -3   -1    0    0    0  502 -0.00000000000E+00  0.00000000000E+00  0.79815472821E+03  0.79815472821E+03  0.00000000000E+00 0.  1.
         -2   -1    0    0    0  501  0.00000000000E+00 -0.00000000000E+00 -0.73887814611E+02  0.73887814611E+02  0.00000000000E+00 0. -1.
         25    1    1    2    0    0  0.23268651864E+02  0.21346205549E+02  0.20153538797E+03  0.23924590541E+03  0.12500000000E+03 0.  0.
         -2    1    1    2    0  501  0.34786704466E+02  0.17214063113E+02 -0.45785900592E+02  0.60023224418E+02  0.00000000000E+00 0. -1.
         -3    1    1    2    0  502 -0.58055356330E+02 -0.38560268662E+02  0.56851742621E+03  0.57277341299E+03  0.00000000000E+00 0.  1.
<mgrwt>
<rscale>  0 0.50532836E+02</rscale>
<asrwt>0</asrwt>
<pdfrwt beam="2">  1       -2 0.11367357E-01 0.38812869E+02</pdfrwt>
<pdfrwt beam="1">  1       -3 0.12279303E+00 0.65791774E+02</pdfrwt>
<totfact> 0.10565950E+02</totfact>
</mgrwt>
</event>
<event>
 5    1  0.7568536E-003  0.1175592E+03  0.7546771E-02  0.1384198E+00
         -2   -1    0    0    0  501 -0.00000000000E+00  0.00000000000E+00  0.91093450561E+02  0.91093450561E+02  0.00000000000E+00 0.  1.
          1   -1    0    0  502    0  0.00000000000E+00 -0.00000000000E+00 -0.33033113910E+03  0.33033113910E+03  0.00000000000E+00 0. -1.
         25    1    1    2    0    0  0.13857855916E+03 -0.85321524656E+01 -0.12520374388E+03  0.22489506924E+03  0.12500000000E+03 0.  0.
          1    1    1    2  502    0 -0.32124751204E+02 -0.11623370761E+02 -0.73137358439E+02  0.80722831883E+02  0.00000000000E+00 0. -1.
         -2    1    1    2    0  501 -0.10645380796E+03  0.20155523226E+02 -0.40896586217E+02  0.11580668854E+03  0.00000000000E+00 0.  1.
<mgrwt>
<rscale>  0 0.63373192E+02</rscale>
<asrwt>0</asrwt>
<pdfrwt beam="2">  1        1 0.50820175E-01 0.34162880E+02</pdfrwt>
<pdfrwt beam="1">  1       -2 0.14014377E-01 0.11755922E+03</pdfrwt>
<totfact> 0.25233774E+03</totfact>
</mgrwt>
</event>
<event>
 5    1  0.7156190E-003  0.1783344E+03  0.7546771E-02  0.1200209E+00
         -1   -1    0    0    0  501 -0.00000000000E+00  0.00000000000E+00  0.37279693478E+03  0.37279693478E+03  0.00000000000E+00 0.  1.
          1   -1    0    0  502    0  0.00000000000E+00 -0.00000000000E+00 -0.70136292480E+03  0.70136292480E+03  0.00000000000E+00 0. -1.
         25    1    1    2    0    0  0.53497604304E+02  0.92214597210E+02 -0.26575524191E+03  0.31243619222E+03  0.12500000000E+03 0.  0.
          1    1    1    2  502    0  0.12285041429E+03 -0.30288828225E+02 -0.37615761007E+03  0.39686796926E+03  0.00000000000E+00 0. -1.
         -1    1    1    2    0  501 -0.17634801860E+03 -0.61925768985E+02  0.31334686197E+03  0.36485569810E+03  0.00000000000E+00 0.  1.
<mgrwt>
<rscale>  0 0.15021486E+03</rscale>
<asrwt>0</asrwt>
<pdfrwt beam="2">  1        1 0.10790199E+00 0.12652920E+03</pdfrwt>
<pdfrwt beam="1">  1       -1 0.57353375E-01 0.17833436E+03</pdfrwt>
<totfact> 0.93773604E+01</totfact>
</mgrwt>
</event>
<event>
 5    1  0.7156190E-003  0.2131752E+03  0.7546771E-02  0.1291467E+00
         -1   -1    0    0    0  501 -0.00000000000E+00  0.00000000000E+00  0.13074152316E+03  0.13074152316E+03  0.00000000000E+00 0.  1.
          2   -1    0    0  502    0  0.00000000000E+00 -0.00000000000E+00 -0.18577009492E+04  0.18577009492E+04  0.00000000000E+00 0. -1.
         25    1    1    2    0    0  0.69877403044E+02  0.18891973292E+03 -0.65828412316E+02  0.24603230847E+03  0.12500000000E+03 0.  0.
          2    1    1    2  502    0 -0.34248518477E+02 -0.21157369658E+03 -0.16817996258E+04  0.16954015369E+04  0.00000000000E+00 0. -1.
         -1    1    1    2    0  501 -0.35628884567E+02  0.22653963653E+02  0.20668612058E+02  0.47008626964E+02  0.00000000000E+00 0.  1.
<mgrwt>
<rscale>  0 0.94870902E+02</rscale>
<asrwt>0</asrwt>
<pdfrwt beam="2">  1        2 0.28580015E+00 0.21317523E+03</pdfrwt>
<pdfrwt beam="1">  1       -1 0.20114080E-01 0.42221079E+02</pdfrwt>
<totfact> 0.19350415E+02</totfact>
</mgrwt>
</event>
<event>
 5    1  0.7376404E-003  0.1124044E+03  0.7546771E-02  0.1394989E+00
         -1   -1    0    0    0  501 -0.00000000000E+00  0.00000000000E+00  0.72898746985E+02  0.72898746985E+02  0.00000000000E+00 0.  1.
          2   -1    0    0  502    0  0.00000000000E+00 -0.00000000000E+00 -0.35991743330E+03  0.35991743330E+03  0.00000000000E+00 0. -1.
         25    1    1    2    0    0 -0.93514324727E+02 -0.75246274450E+02 -0.11423635815E+03  0.20756174087E+03  0.12500000000E+03 0.  0.
          2    1    1    2  502    0  0.10167167495E+03  0.43517854138E+02 -0.14457110876E+03  0.18202125866E+03  0.00000000000E+00 0. -1.
         -1    1    1    2    0  501 -0.81573502253E+01  0.31728420312E+02 -0.28211219399E+02  0.43233180755E+02  0.00000000000E+00 0.  1.
<mgrwt>
<rscale>  0 0.60682760E+02</rscale>
<asrwt>0</asrwt>
<pdfrwt beam="2">  1        2 0.55371914E-01 0.11240438E+03</pdfrwt>
<pdfrwt beam="1">  1       -1 0.11215192E-01 0.32760266E+02</pdfrwt>
<totfact> 0.45342102E+03</totfact>
</mgrwt>
</event>
<event>
 5    1  0.7156190E-003  0.9560531E+02  0.7546771E-02  0.1305462E+00
          2   -1    0    0  501    0  0.00000000000E+00  0.00000000000E+00  0.45123370439E+03  0.45123370439E+03  0.00000000000E+00 0. -1.
          2   -1    0    0  502    0 -0.00000000000E+00 -0.00000000000E+00 -0.22305174674E+04  0.22305174674E+04  0.00000000000E+00 0. -1.
         25    1    1    2    0    0 -0.18286801566E+02 -0.12954189444E+02  0.69425238883E+01  0.12718261192E+03  0.12500000000E+03 0.  0.
          2    1    1    2  501    0  0.68357869885E+02  0.78801285002E+02  0.37628396280E+03  0.39047671064E+03  0.00000000000E+00 0. -1.
          2    1    1    2  502    0 -0.50071068320E+02 -0.65847095557E+02 -0.21625102497E+04  0.21640918493E+04  0.00000000000E+00 0. -1.
<mgrwt>
<rscale>  0 0.88930736E+02</rscale>
<asrwt>0</asrwt>
<pdfrwt beam="1">  1        2 0.69420571E-01 0.95605315E+02</pdfrwt>
<pdfrwt beam="2">  1        2 0.34315653E+00 0.82722137E+02</pdfrwt>
<totfact> 0.70945238E+01</totfact>
</mgrwt>
</event>
<event>
 5    1  0.7156190E-003  0.6042719E+02  0.7546771E-02  0.1409526E+00
          2   -1    0    0  502    0  0.00000000000E+00  0.00000000000E+00  0.23775747971E+04  0.23775747971E+04  0.00000000000E+00 0. -1.
         -2   -1    0    0    0  501 -0.00000000000E+00 -0.00000000000E+00 -0.11104870321E+03  0.11104870321E+03  0.00000000000E+00 0.  1.
         25    1    1    2    0    0 -0.67999935973E+02 -0.39065530832E+02  0.40758686063E+03  0.43347682285E+03  0.12500000000E+03 0.  0.
          2    1    1    2  502    0  0.92580424428E+01  0.53539694644E+02  0.19473007015E+04  0.19480585803E+04  0.00000000000E+00 0. -1.
         -2    1    1    2    0  501  0.58741893530E+02 -0.14474163812E+02 -0.88361468261E+02  0.10708809713E+03  0.00000000000E+00 0.  1.
<mgrwt>
<rscale>  0 0.57299786E+02</rscale>
<asrwt>0</asrwt>
<pdfrwt beam="1">  1        2 0.36578070E+00 0.54334246E+02</pdfrwt>
<pdfrwt beam="2">  1       -2 0.17084418E-01 0.60427185E+02</pdfrwt>
<totfact> 0.14893325E+02</totfact>
</mgrwt>
</event>
<event>
 5    1  0.7156190E-003  0.5404287E+02  0.7546771E-02  0.1565103E+00
          3   -1    0    0  502    0 -0.00000000000E+00  0.00000000000E+00  0.96736124197E+02  0.96736124197E+02  0.00000000000E+00 0. -1.
          2   -1    0    0  501    0  0.00000000000E+00 -0.00000000000E+00 -0.11480703897E+04  0.11480703897E+04  0.00000000000E+00 0. -1.
         25    1    1    2    0    0  0.42306969450E+02  0.37489088300E+02 -0.10789005253E+03  0.17452958156E+03  0.12500000000E+03 0.  0.
          2    1    1    2  501    0  0.84134724026E+01 -0.18592016671E+02 -0.99518756891E+03  0.99539677863E+03  0.00000000000E+00 0. -1.
          3    1    1    2  502    0 -0.50720441853E+02 -0.18897071629E+02  0.51743355924E+02  0.74880153713E+02  0.00000000000E+00 0. -1.
<mgrwt>
<rscale>  0 0.33209307E+02</rscale>
<asrwt>0</asrwt>
<pdfrwt beam="2">  1        2 0.17662622E+00 0.20407097E+02</pdfrwt>
<pdfrwt beam="1">  1        3 0.14882480E-01 0.54042868E+02</pdfrwt>
<totfact> 0.51133798E+02</totfact>
</mgrwt>
</event>
<event>
 5    1  0.7156190E-003  0.5547392E+02  0.7546771E-02  0.1457101E+00
          1   -1    0    0  502    0 -0.00000000000E+00  0.00000000000E+00  0.15291887502E+04  0.15291887502E+04  0.00000000000E+00 0. -1.
          2   -1    0    0  501    0  0.00000000000E+00 -0.00000000000E+00 -0.31093812832E+04  0.31093812832E+04  0.00000000000E+00 0. -1.
         25    1    1    2    0    0 -0.30339844187E+02 -0.68362719860E+02 -0.84277330510E+03  0.85526943789E+03  0.12500000000E+03 0.  0.
          2    1    1    2  501    0 -0.16120460279E+02  0.38059015815E+02 -0.22596657715E+04  0.22600437511E+04  0.00000000000E+00 0. -1.
          1    1    1    2  502    0  0.46460304465E+02  0.30303704045E+02  0.15222465436E+04  0.15232568444E+04  0.00000000000E+00 0. -1.
<mgrwt>
<rscale>  0 0.47883859E+02</rscale>
<asrwt>0</asrwt>
<pdfrwt beam="2">  1        2 0.47836634E+00 0.41332287E+02</pdfrwt>
<pdfrwt beam="1">  1        1 0.23525981E+00 0.55473921E+02</pdfrwt>
<totfact> 0.26993671E+00</totfact>
</mgrwt>
</event>
<event>
 5    1  0.7156190E-003  0.3989895E+02  0.7546771E-02  0.1572002E+00
         -1   -1    0    0    0  501 -0.00000000000E+00  0.00000000000E+00  0.83898788919E+01  0.83898788919E+01  0.00000000000E+00 0.  1.
          2   -1    0    0  502    0  0.00000000000E+00 -0.00000000000E+00 -0.13714396898E+04  0.13714396898E+04  0.00000000000E+00 0. -1.
         25    1    1    2    0    0 -0.13334443373E+02 -0.29034607610E+02 -0.87222715163E+03  0.88171765314E+03  0.12500000000E+03 0.  0.
          2    1    1    2  502    0  0.38179031947E+02  0.19897482010E+02 -0.42486023546E+03  0.42703602652E+03  0.00000000000E+00 0. -1.
         -1    1    1    2    0  501 -0.24844588573E+02  0.91371256001E+01 -0.65962423813E+02  0.71075889026E+02  0.00000000000E+00 0.  1.
<mgrwt>
<rscale>  0 0.32499003E+02</rscale>
<asrwt>0</asrwt>
<pdfrwt beam="2">  1        2 0.21099069E+00 0.39898946E+02</pdfrwt>
<pdfrwt beam="1">  1       -1 0.12907508E-02 0.26471506E+02</pdfrwt>
<totfact> 0.18911175E+04</totfact>
</mgrwt>
</event>
<event>
 5    1  0.7156190E-003  0.6221286E+02  0.7546771E-02  0.1493983E+00
          1   -1    0    0  502    0 -0.00000000000E+00  0.00000000000E+00  0.13294860797E+04  0.13294860797E+04  0.00000000000E+00 0. -1.
          2   -1    0    0  501    0  0.00000000000E+00 -0.00000000000E+00 -0.13191316445E+04  0.13191316445E+04  0.00000000000E+00 0. -1.
         25    1    1    2    0    0  0.16342710525E+02  0.36736938295E+02  0.16630210570E+03  0.21189166379E+03  0.12500000000E+03 0.  0.
          2    1    1    2  501    0  0.26747615005E+02  0.94125499515E+01 -0.12953076383E+04  0.12956179641E+04  0.00000000000E+00 0. -1.
          1    1    1    2  502    0 -0.43090325530E+02 -0.46149488246E+02  0.11393599678E+04  0.11411080964E+04  0.00000000000E+00 0. -1.
<mgrwt>
<rscale>  0 0.42000868E+02</rscale>
<asrwt>0</asrwt>
<pdfrwt beam="2">  1        2 0.20294333E+00 0.28355440E+02</pdfrwt>
<pdfrwt beam="1">  1        1 0.20453632E+00 0.62212856E+02</pdfrwt>
<totfact> 0.29274390E+01</totfact>
</mgrwt>
</event>
<event>
 5    1  0.7156190E-003  0.4724207E+02  0.7546771E-02  0.1461268E+00
          1   -1    0    0  502    0  0.00000000000E+00  0.00000000000E+00  0.44567533865E+03  0.44567533865E+03  0.00000000000E+00 0. -1.
         -2   -1    0    0    0  501 -0.00000000000E+00 -0.00000000000E+00 -0.35838119326E+02  0.35838119326E+02  0.00000000000E+00 0.  1.
         25    1    1    2    0    0 -0.47169549758E+02  0.35590578415E+02  0.31274308567E+03  0.34194282173E+03  0.12500000000E+03 0.  0.
          1    1    1    2  502    0  0.16265490159E+01 -0.48146380324E+02  0.70411323904E+02  0.85313973849E+02  0.00000000000E+00 0. -1.
         -2    1    1    2    0  501  0.45543000743E+02  0.12555801910E+02  0.26682809745E+02  0.54256662394E+02  0.00000000000E+00 0.  1.
<mgrwt>
<rscale>  0 0.47163879E+02</rscale>
<asrwt>0</asrwt>
<pdfrwt beam="1">  1        1 0.68565433E-01 0.47085818E+02</pdfrwt>
<pdfrwt beam="2">  1       -2 0.55135571E-02 0.47242069E+02</pdfrwt>
<totfact> 0.68441730E+03</totfact>
</mgrwt>
</event>
<event>
 5    1  0.7156190E-003  0.2681667E+02  0.7546771E-02  0.1692447E+00
         -1   -1    0    0    0  501 -0.00000000000E+00  0.00000000000E+00  0.21717643167E+02  0.21717643167E+02  0.00000000000E+00 0.  1.
          2   -1    0    0  502    0  0.00000000000E+00 -0.00000000000E+00 -0.17278192150E+04  0.17278192150E+04  0.00000000000E+00 0. -1.
         25    1    1    2    0    0  0.55863590558E+01 -0.14504465276E+02 -0.16000577717E+04  0.16050082429E+04  0.12500000000E+03 0.  0.
          2    1    1    2  502    0  0.20962780611E+02  0.18282937796E+02 -0.11336739057E+03  0.11672989861E+03  0.00000000000E+00 0. -1.
         -1    1    1    2    0  501 -0.26549139667E+02 -0.37784725209E+01  0.73235904434E+01  0.27798716672E+02  0.00000000000E+00 0.  1.
<mgrwt>
<rscale>  0 0.22942289E+02</rscale>
<asrwt>0</asrwt>
<pdfrwt beam="2">  1        2 0.26581834E+00 0.19627667E+02</pdfrwt>
<pdfrwt beam="1">  1       -1 0.33411759E-02 0.26816668E+02</pdfrwt>
<totfact> 0.37253185E+03</totfact>
</mgrwt>
</event>
<event>
 5    1  0.7156190E-003  0.1531977E+03  0.7546771E-02  0.1324354E+00
          1   -1    0    0  502    0  0.00000000000E+00  0.00000000000E+00  0.22976980932E+04  0.22976980932E+04  0.00000000000E+00 0. -1.
         -1   -1    0    0    0  501 -0.00000000000E+00 -0.00000000000E+00 -0.28870535956E+03  0.28870535956E+03  0.00000000000E+00 0.  1.
         25    1    1    2    0    0 -0.11205563657E+03  0.28050010818E+02  0.12629123876E+04  0.12743296149E+04  0.12500000000E+03 0.  0.
          1    1    1    2  502    0 -0.29613139575E+02  0.31928790590E+02  0.10076640944E+04  0.10086046365E+04  0.00000000000E+00 0. -1.
         -1    1    1    2    0  501  0.14166877615E+03 -0.59978801407E+02 -0.26158374832E+03  0.30346920130E+03  0.00000000000E+00 0.  1.
<mgrwt>
<rscale>  0 0.81678506E+02</rscale>
<asrwt>0</asrwt>
<pdfrwt beam="1">  1        1 0.35349200E+00 0.43547511E+02</pdfrwt>
<pdfrwt beam="2">  1       -1 0.44416211E-01 0.15319770E+03</pdfrwt>
<totfact> 0.14415282E+01</totfact>
</mgrwt>
</event>
<event>
 5    1  0.7156190E-003  0.1087829E+03  0.7546771E-02  0.1433813E+00
          1   -1    0    0  502    0 -0.00000000000E+00  0.00000000000E+00  0.14200596279E+04  0.14200596279E+04  0.00000000000E+00 0. -1.
          2   -1    0    0  501    0  0.00000000000E+00 -0.00000000000E+00 -0.21707779561E+03  0.21707779561E+03  0.00000000000E+00 0. -1.
         25    1    1    2    0    0 -0.94531244290E+00  0.88040045252E+02  0.82814067553E+03  0.84213652198E+03  0.12500000000E+03 0.  0.
          2    1    1    2  501    0 -0.13829008789E+02 -0.10826980663E+03 -0.19560896149E+03  0.22400102305E+03  0.00000000000E+00 0. -1.
          1    1    1    2  502    0  0.14774321232E+02  0.20229761376E+02  0.57045011826E+03  0.57099987849E+03  0.00000000000E+00 0. -1.
<mgrwt>
<rscale>  0 0.52202088E+02</rscale>
<asrwt>0</asrwt>
<pdfrwt beam="2">  1        2 0.33396585E-01 0.10878290E+03</pdfrwt>
<pdfrwt beam="1">  1        1 0.21847071E+00 0.25050425E+02</pdfrwt>
<totfact> 0.21221352E+02</totfact>
</mgrwt>
</event>
<event>
 5    1  0.7156190E-003  0.7306345E+02  0.7546771E-02  0.1362943E+00
          1   -1    0    0  502    0 -0.00000000000E+00  0.00000000000E+00  0.96548711590E+03  0.96548711590E+03  0.00000000000E+00 0. -1.
          2   -1    0    0  501    0  0.00000000000E+00 -0.00000000000E+00 -0.59680301822E+03  0.59680301822E+03  0.00000000000E+00 0.  1.
         25    1    1    2    0    0 -0.10431686552E+03 -0.81932060244E+02  0.44195826581E+03  0.47806587375E+03  0.12500000000E+03 0.  0.
          2    1    1    2  501    0  0.43115734769E+02  0.58646401597E+02 -0.57432168376E+03  0.57891602451E+03  0.00000000000E+00 0.  1.
          1    1    1    2  502    0  0.61201130747E+02  0.23285658647E+02  0.50104751563E+03  0.50530823585E+03  0.00000000000E+00 0. -1.
<mgrwt>
<rscale>  0 0.69168557E+02</rscale>
<asrwt>0</asrwt>
<pdfrwt beam="2">  1        2 0.91815849E-01 0.73063447E+02</pdfrwt>
<pdfrwt beam="1">  1        1 0.14853648E+00 0.65481297E+02</pdfrwt>
<totfact> 0.13283449E+02</totfact>
</mgrwt>
</event>
<event>
 5    1  0.7156190E-003  0.2098659E+03  0.7546771E-02  0.1236603E+00
          1   -1    0    0  502    0  0.00000000000E+00  0.00000000000E+00  0.22126213905E+04  0.22126213905E+04  0.00000000000E+00 0. -1.
         -1   -1    0    0    0  501 -0.00000000000E+00 -0.00000000000E+00 -0.14651692441E+03  0.14651692441E+03  0.00000000000E+00 0.  1.
         25    1    1    2    0    0  0.55253965262E+02  0.20625083575E+03  0.11127204603E+03  0.27129112804E+03  0.12500000000E+03 0.  0.
          1    1    1    2  502    0  0.66088155207E+02 -0.31692146123E+02  0.18488526060E+04  0.18503048384E+04  0.00000000000E+00 0. -1.
         -1    1    1    2    0  501 -0.12134212047E+03 -0.17455868963E+03  0.10597981407E+03  0.23754234847E+03  0.00000000000E+00 0.  1.
<mgrwt>
<rscale>  0 0.12402399E+03</rscale>
<asrwt>0</asrwt>
<pdfrwt beam="1">  1        1 0.34040327E+00 0.73294177E+02</pdfrwt>
<pdfrwt beam="2">  1       -1 0.22541067E-01 0.20986593E+03</pdfrwt>
<totfact> 0.48177972E+01</totfact>
</mgrwt>
</event>
<event>
 5    1  0.7156190E-003  0.3509337E+02  0.7546771E-02  0.1550533E+00
         -1   -1    0    0    0  501 -0.00000000000E+00  0.00000000000E+00  0.40139486296E+03  0.40139486296E+03  0.00000000000E+00 0.  1.
          2   -1    0    0  502    0  0.00000000000E+00 -0.00000000000E+00 -0.27777915674E+02  0.27777915674E+02  0.00000000000E+00 0. -1.
         25    1    1    2    0    0  0.11577694234E+02  0.56814095881E+01  0.19711212360E+03  0.23376165359E+03  0.12500000000E+03 0.  0.
          2    1    1    2  502    0  0.18658644455E+02 -0.29722036722E+02  0.38464932341E+02  0.52068181260E+02  0.00000000000E+00 0. -1.
         -1    1    1    2    0  501 -0.30236338689E+02  0.24040627133E+02  0.13803989135E+03  0.14334294378E+03  0.00000000000E+00 0.  1.
<mgrwt>
<rscale>  0 0.34783313E+02</rscale>
<asrwt>0</asrwt>
<pdfrwt beam="2">  1        2 0.42735258E-02 0.35093368E+02</pdfrwt>
<pdfrwt beam="1">  1       -1 0.61753052E-01 0.34475997E+02</pdfrwt>
<totfact> 0.51161068E+03</totfact>
</mgrwt>
</event>
<event>
 5    1  0.7156190E-003  0.5957862E+02  0.7546771E-02  0.1498149E+00
          2   -1    0    0  502    0  0.00000000000E+00  0.00000000000E+00  0.42543351499E+04  0.42543351499E+04  0.00000000000E+00 0. -1.
         -2   -1    0    0    0  501 -0.00000000000E+00 -0.00000000000E+00 -0.38260004315E+01  0.38260004315E+01  0.00000000000E+00 0.  1.
         25    1    1    2    0    0  0.49118579579E+02  0.50459008537E+01  0.16037239177E+04  0.16093456745E+04  0.12500000000E+03 0.  0.
          2    1    1    2  502    0  0.20076053177E+02  0.20606071630E+02  0.57980101139E+03  0.58051431585E+03  0.00000000000E+00 0. -1.
         -2    1    1    2    0  501 -0.69194632756E+02 -0.25651972484E+02  0.20669842204E+04  0.20683011600E+04  0.00000000000E+00 0.  1.
<mgrwt>
<rscale>  0 0.41400728E+02</rscale>
<asrwt>0</asrwt>
<pdfrwt beam="1">  1        2 0.65450931E+00 0.28769048E+02</pdfrwt>
<pdfrwt beam="2">  1       -2 0.58861886E-03 0.59578624E+02</pdfrwt>
<totfact> 0.16989975E+03</totfact>
</mgrwt>
</event>
<event>
 5    1  0.7156190E-003  0.1122551E+03  0.7546771E-02  0.1273189E+00
          1   -1    0    0  501    0  0.00000000000E+00  0.00000000000E+00  0.25369034848E+03  0.25369034848E+03  0.00000000000E+00 0. -1.
          1   -1    0    0  502    0 -0.00000000000E+00 -0.00000000000E+00 -0.65028812160E+03  0.65028812160E+03  0.00000000000E+00 0. -1.
         25    1    1    2    0    0  0.36670504364E+02  0.16313742425E+03 -0.86106471836E+01  0.20894422300E+03  0.12500000000E+03 0.  0.
          1    1    1    2  501    0 -0.74616964197E+02 -0.59361110956E+02  0.13233590643E+03  0.16310801627E+03  0.00000000000E+00 0. -1.
          1    1    1    2  502    0  0.37946459832E+02 -0.10377631330E+03 -0.52032303236E+03  0.53192623081E+03  0.00000000000E+00 0. -1.
<mgrwt>
<rscale>  0 0.10345729E+03</rscale>
<asrwt>0</asrwt>
<pdfrwt beam="1">  1        1 0.39029285E-01 0.95349005E+02</pdfrwt>
<pdfrwt beam="2">  1        1 0.10004432E+00 0.11225508E+03</pdfrwt>
<totfact> 0.41881782E+02</totfact>
</mgrwt>
</event>
<event>
 5    1  0.7156190E-003  0.2198081E+03  0.7546771E-02  0.1173029E+00
          3   -1    0    0  502    0 -0.00000000000E+00  0.00000000000E+00  0.62334769251E+03  0.62334769251E+03  0.00000000000E+00 0. -1.
          2   -1    0    0  501    0  0.00000000000E+00 -0.00000000000E+00 -0.27163251201E+04  0.27163251201E+04  0.00000000000E+00 0. -1.
         25    1    1    2    0    0 -0.89819921504E+02 -0.12188146853E+03 -0.47971859057E+03  0.51834123588E+03  0.12500000000E+03 0.  0.
          2    1    1    2  501    0  0.94201500796E+02 -0.10201351271E+03 -0.21942695730E+04  0.21986585999E+04  0.00000000000E+00 0. -1.
          3    1    1    2  502    0 -0.43815792920E+01  0.22389498124E+03  0.58101073599E+03  0.62267297692E+03  0.00000000000E+00 0. -1.
<mgrwt>
<rscale>  0 0.17470382E+03</rscale>
<asrwt>0</asrwt>
<pdfrwt beam="2">  1        2 0.41789617E+00 0.13885489E+03</pdfrwt>
<pdfrwt beam="1">  1        3 0.95899646E-01 0.21980808E+03</pdfrwt>
<totfact> 0.20589044E+00</totfact>
</mgrwt>
</event>
<event>
 5    1  0.7156190E-003  0.1433271E+03  0.7546771E-02  0.1248488E+00
          2   -1    0    0  502    0  0.00000000000E+00  0.00000000000E+00  0.21501595177E+04  0.21501595177E+04  0.00000000000E+00 0. -1.
          2   -1    0    0  501    0 -0.00000000000E+00 -0.00000000000E+00 -0.82237184095E+03  0.82237184095E+03  0.00000000000E+00 0. -1.
         25    1    1    2    0    0 -0.18862911269E+02  0.20934539340E+03  0.24799214387E+03  0.34829069264E+03  0.12500000000E+03 0.  0.
          2    1    1    2  501    0  0.65327725830E+02 -0.12629338758E+03 -0.76443996917E+03  0.77755141179E+03  0.00000000000E+00 0. -1.
          2    1    1    2  502    0 -0.46464814561E+02 -0.83052005822E+02  0.18442355021E+04  0.18466892542E+04  0.00000000000E+00 0. -1.
<mgrwt>
<rscale>  0 0.11678999E+03</rscale>
<asrwt>0</asrwt>
<pdfrwt beam="1">  1        2 0.33079377E+00 0.95166247E+02</pdfrwt>
<pdfrwt beam="2">  1        2 0.12651875E+00 0.14332709E+03</pdfrwt>
<totfact> 0.38180206E+01</totfact>
</mgrwt>
</event>
<event>
 5    1  0.7156190E-003  0.7178813E+02  0.7546771E-02  0.1407444E+00
          1   -1    0    0  502    0  0.00000000000E+00  0.00000000000E+00  0.31376799298E+04  0.31376799298E+04  0.00000000000E+00 0. -1.
         -2   -1    0    0    0  501 -0.00000000000E+00 -0.00000000000E+00 -0.16164101297E+03  0.16164101297E+03  0.00000000000E+00 0.  1.
         25    1    1    2    0    0  0.49503334975E+02 -0.61046348479E+01  0.25068163692E+03  0.28452439232E+03  0.12500000000E+03 0.  0.
          1    1    1    2  502    0  0.10172778058E+01 -0.46474993890E+02  0.28606911635E+04  0.28610688375E+04  0.00000000000E+00 0. -1.
         -2    1    1    2    0  501 -0.50520612780E+02  0.52579628737E+02 -0.13533388360E+03  0.15372771294E+03  0.00000000000E+00 0.  1.
<mgrwt>
<rscale>  0 0.57768090E+02</rscale>
<asrwt>0</asrwt>
<pdfrwt beam="1">  1        1 0.48271995E+00 0.46486126E+02</pdfrwt>
<pdfrwt beam="2">  1       -2 0.24867850E-01 0.71788134E+02</pdfrwt>
<totfact> 0.97180200E+00</totfact>
</mgrwt>
</event>
<event>
 5    1  0.7156190E-003  0.1122614E+03  0.7546771E-02  0.1389851E+00
         -1   -1    0    0    0  501 -0.00000000000E+00  0.00000000000E+00  0.67666934632E+02  0.67666934632E+02  0.00000000000E+00 0.  1.
          2   -1    0    0  502    0  0.00000000000E+00 -0.00000000000E+00 -0.13111133621E+04  0.13111133621E+04  0.00000000000E+00 0. -1.
         25    1    1    2    0    0 -0.24690903073E+02 -0.98405975578E+02 -0.34225922854E+03  0.37823241036E+03  0.12500000000E+03 0.  0.
          2    1    1    2  502    0 -0.52118392026E+01  0.11496086209E+03 -0.94103732771E+03  0.94804768616E+03  0.00000000000E+00 0. -1.
         -1    1    1    2    0  501  0.29902742275E+02 -0.16554886515E+02  0.39850128761E+02  0.52500200241E+02  0.00000000000E+00 0.  1.
<mgrwt>
<rscale>  0 0.61943823E+02</rscale>
<asrwt>0</asrwt>
<pdfrwt beam="2">  1        2 0.20170975E+00 0.11226136E+03</pdfrwt>
<pdfrwt beam="1">  1       -1 0.10410297E-01 0.34179501E+02</pdfrwt>
<totfact> 0.10452204E+03</totfact>
</mgrwt>
</event>
<event>
 5    1  0.7156190E-003  0.2210720E+03  0.7546771E-02  0.1292856E+00
          3   -1    0    0  502    0 -0.00000000000E+00  0.00000000000E+00  0.51076134661E+02  0.51076134661E+02  0.00000000000E+00 0. -1.
          2   -1    0    0  501    0  0.00000000000E+00 -0.00000000000E+00 -0.19901511645E+04  0.19901511645E+04  0.00000000000E+00 0. -1.
         25    1    1    2    0    0 -0.21040621251E+03  0.79224044220E+02 -0.65210383329E+03  0.70100758400E+03  0.12500000000E+03 0.  0.
          2    1    1    2  501    0  0.21704687013E+03 -0.39587788534E+02 -0.12806756154E+04  0.12995409069E+04  0.00000000000E+00 0. -1.
          3    1    1    2  502    0 -0.66406576160E+01 -0.39636255686E+02 -0.62955811450E+01  0.40678808246E+02  0.00000000000E+00 0. -1.
<mgrwt>
<rscale>  0 0.94258134E+02</rscale>
<asrwt>0</asrwt>
<pdfrwt beam="2">  1        2 0.30617711E+00 0.22107202E+03</pdfrwt>
<pdfrwt beam="1">  1        3 0.78578666E-02 0.40188694E+02</pdfrwt>
<totfact> 0.42048110E+02</totfact>
</mgrwt>
</event>
<event>
 5    1  0.7156190E-003  0.5220452E+02  0.7546771E-02  0.1446404E+00
         -1   -1    0    0    0  501  0.00000000000E+00  0.00000000000E+00  0.97532500327E+03  0.97532500327E+03  0.00000000000E+00 0.  1.
         -1   -1    0    0    0  502 -0.00000000000E+00 -0.00000000000E+00 -0.16966605721E+02  0.16966605721E+02  0.00000000000E+00 0.  1.
         25    1    1    2    0    0  0.33577212882E+02  0.10637875946E+02  0.54714111358E+03  0.56234241508E+03  0.12500000000E+03 0.  0.
         -1    1    1    2    0  502 -0.24661354171E+02  0.46012278642E+02  0.93399873167E+02  0.10699929197E+03  0.00000000000E+00 0.  1.
         -1    1    1    2    0  501 -0.89158587110E+01 -0.56650154588E+02  0.31781741080E+03  0.32294990193E+03  0.00000000000E+00 0.  1.
<mgrwt>
<rscale>  0 0.49803582E+02</rscale>
<asrwt>0</asrwt>
<pdfrwt beam="1">  1       -1 0.15004996E+00 0.47513063E+02</pdfrwt>
<pdfrwt beam="2">  1       -1 0.26102478E-02 0.52204523E+02</pdfrwt>
<totfact> 0.13615539E+03</totfact>
</mgrwt>
</event>
<event>
 5    1  0.7156190E-003  0.5905601E+02  0.7546771E-02  0.1427477E+00
         -2   -1    0    0    0  501 -0.00000000000E+00  0.00000000000E+00  0.48075682803E+03  0.48075682803E+03  0.00000000000E+00 0.  1.
          2   -1    0    0  502    0  0.00000000000E+00 -0.00000000000E+00 -0.13834535958E+04  0.13834535958E+04  0.00000000000E+00 0. -1.
         25    1    1    2    0    0  0.70390931247E+02 -0.54489048515E+02  0.14298495412E+02  0.15412133720E+03  0.12500000000E+03 0.  0.
          2    1    1    2  502    0 -0.21979233912E+02  0.54662115167E+02 -0.13114007545E+04  0.13127234943E+04  0.00000000000E+00 0. -1.
         -2    1    1    2    0  501 -0.48411697335E+02 -0.17306665244E+00  0.39440549132E+03  0.39736559234E+03  0.00000000000E+00 0.  1.
<mgrwt>
<rscale>  0 0.53469803E+02</rscale>
<asrwt>0</asrwt>
<pdfrwt beam="2">  1        2 0.21283901E+00 0.59056007E+02</pdfrwt>
<pdfrwt beam="1">  1       -2 0.73962589E-01 0.48412007E+02</pdfrwt>
<totfact> 0.31156361E+01</totfact>
</mgrwt>
</event>
<event>
 5    1  0.7156190E-003  0.5326871E+02  0.7546771E-02  0.1541064E+00
         -1   -1    0    0    0  501 -0.00000000000E+00  0.00000000000E+00  0.86828380970E+02  0.86828380970E+02  0.00000000000E+00 0.  1.
          2   -1    0    0  502    0  0.00000000000E+00 -0.00000000000E+00 -0.66959903399E+03  0.66959903399E+03  0.00000000000E+00 0. -1.
         25    1    1    2    0    0 -0.49572892884E+02 -0.35028462851E+02 -0.68836682675E+02  0.15507402684E+03  0.12500000000E+03 0.  0.
          2    1    1    2  502    0 -0.20876565894E+01  0.24054787735E+02 -0.54132256944E+03  0.54186078960E+03  0.00000000000E+00 0. -1.
         -1    1    1    2    0  501  0.51660549474E+02  0.10973675116E+02  0.27388599098E+02  0.59492598515E+02  0.00000000000E+00 0.  1.
<mgrwt>
<rscale>  0 0.35863411E+02</rscale>
<asrwt>0</asrwt>
<pdfrwt beam="2">  1        2 0.10301523E+00 0.24145209E+02</pdfrwt>
<pdfrwt beam="1">  1       -1 0.13358213E-01 0.53268715E+02</pdfrwt>
<totfact> 0.19155542E+03</totfact>
</mgrwt>
</event>
<event>
 5    1  0.7156190E-003  0.4699443E+03  0.7546771E-02  0.1021936E+00
          2   -1    0    0  502    0  0.00000000000E+00  0.00000000000E+00  0.11521337237E+04  0.11521337237E+04  0.00000000000E+00 0. -1.
         -2   -1    0    0    0  501 -0.00000000000E+00 -0.00000000000E+00 -0.47921443001E+02  0.47921443001E+02  0.00000000000E+00 0.  1.
         25    1    1    2    0    0  0.60956606601E+02 -0.19356721913E+03  0.68509867810E+03  0.72537519598E+03  0.12500000000E+03 0.  0.
          2    1    1    2  502    0 -0.31320210141E+02  0.11055298614E+03  0.32958939529E+03  0.34904453555E+03  0.00000000000E+00 0. -1.
         -2    1    1    2    0  501 -0.29636396460E+02  0.83014232991E+02  0.89524207286E+02  0.12563543515E+03  0.00000000000E+00 0.  1.
<mgrwt>
<rscale>  0 0.46994430E+03</rscale>
<asrwt>0</asrwt>
<pdfrwt beam="1">  1        2 0.17725132E+00 0.46994430E+03</pdfrwt>
<pdfrwt beam="2">  1       -2 0.73725306E-02 0.46994430E+03</pdfrwt>
<totfact> 0.22883461E+03</totfact>
</mgrwt>
</event>
<event>
 5    1  0.7156190E-003  0.5786653E+02  0.7546771E-02  0.1498024E+00
          2   -1    0    0  502    0  0.00000000000E+00  0.00000000000E+00  0.10090000058E+04  0.10090000058E+04  0.00000000000E+00 0.  1.
          2   -1    0    0  501    0 -0.00000000000E+00 -0.00000000000E+00 -0.19223762662E+04  0.19223762662E+04  0.00000000000E+00 0. -1.
         25    1    1    2    0    0 -0.36453674191E+02  0.77730162951E+02 -0.12000395203E+04  0.12095828615E+04  0.12500000000E+03 0.  0.
          2    1    1    2  501    0  0.19334171078E+02 -0.22473639092E+02 -0.71642519693E+03  0.71703830959E+03  0.00000000000E+00 0. -1.
          2    1    1    2  502    0  0.17119503113E+02 -0.55256523859E+02  0.10030884568E+04  0.10047551010E+04  0.00000000000E+00 0.  1.
<mgrwt>
<rscale>  0 0.41418604E+02</rscale>
<asrwt>0</asrwt>
<pdfrwt beam="1">  1        2 0.15523077E+00 0.57866531E+02</pdfrwt>
<pdfrwt beam="2">  1        2 0.29575019E+00 0.29645820E+02</pdfrwt>
<totfact> 0.45409734E+01</totfact>
</mgrwt>
</event>
<event>
 5    1  0.7156190E-003  0.8649195E+02  0.7546771E-02  0.1351031E+00
          1   -1    0    0  501    0  0.00000000000E+00  0.00000000000E+00  0.28443692247E+04  0.28443692247E+04  0.00000000000E+00 0. -1.
          1   -1    0    0  502    0 -0.00000000000E+00 -0.00000000000E+00 -0.19037421306E+04  0.19037421306E+04  0.00000000000E+00 0. -1.
         25    1    1    2    0    0  0.55516020014E+02  0.42129848798E+02  0.21541679195E+03  0.25862394880E+03  0.12500000000E+03 0.  0.
          1    1    1    2  501    0  0.30438708436E+02 -0.53055118560E+02  0.26059925810E+04  0.26067103201E+04  0.00000000000E+00 0. -1.
          1    1    1    2  502    0 -0.85954728450E+02  0.10925269761E+02 -0.18807822788E+04  0.18827770864E+04  0.00000000000E+00 0. -1.
<mgrwt>
<rscale>  0 0.72735300E+02</rscale>
<asrwt>0</asrwt>
<pdfrwt beam="1">  1        1 0.43759527E+00 0.61166662E+02</pdfrwt>
<pdfrwt beam="2">  1        1 0.29288340E+00 0.86491949E+02</pdfrwt>
<totfact> 0.63314378E-01</totfact>
</mgrwt>
</event>
<event>
 5    1  0.7156190E-003  0.4339274E+02  0.7546771E-02  0.1519722E+00
         -2   -1    0    0    0  501 -0.00000000000E+00  0.00000000000E+00  0.19168098014E+03  0.19168098014E+03  0.00000000000E+00 0.  1.
          1   -1    0    0  502    0  0.00000000000E+00 -0.00000000000E+00 -0.71421932447E+02  0.71421932447E+02  0.00000000000E+00 0. -1.
         25    1    1    2    0    0  0.18866643833E+02 -0.29838353151E+02  0.24025649709E+02  0.13209280606E+03  0.12500000000E+03 0.  0.
          1    1    1    2  502    0 -0.51292807263E+02  0.19222948728E+02  0.58931125419E+02  0.80457140006E+02  0.00000000000E+00 0. -1.
         -2    1    1    2    0  501  0.32426163430E+02  0.10615404423E+02  0.37302272566E+02  0.50552966525E+02  0.00000000000E+00 0.  1.
<mgrwt>
<rscale>  0 0.38477789E+02</rscale>
<asrwt>0</asrwt>
<pdfrwt beam="2">  1        1 0.10987990E-01 0.43392741E+02</pdfrwt>
<pdfrwt beam="1">  1       -2 0.29489381E-01 0.34119538E+02</pdfrwt>
<totfact> 0.44546326E+03</totfact>
</mgrwt>
</event>
<event>
 5    1  0.7156190E-003  0.6573339E+02  0.7546771E-02  0.1461943E+00
          2   -1    0    0  502    0  0.00000000000E+00  0.00000000000E+00  0.26061039548E+04  0.26061039548E+04  0.00000000000E+00 0. -1.
         -1   -1    0    0    0  501 -0.00000000000E+00 -0.00000000000E+00 -0.65149673427E+01  0.65149673427E+01  0.00000000000E+00 0.  1.
         25    1    1    2    0    0  0.57454441373E+02  0.57742052971E+02  0.15176955069E+04  0.15250114128E+04  0.12500000000E+03 0.  0.
          2    1    1    2  502    0 -0.23779507003E+02 -0.57814850977E+02  0.92652149143E+03  0.92862807196E+03  0.00000000000E+00 0. -1.
         -1    1    1    2    0  501 -0.33674934371E+02  0.72798005520E-01  0.15537198906E+03  0.15897943731E+03  0.00000000000E+00 0.  1.
<mgrwt>
<rscale>  0 0.47048621E+02</rscale>
<asrwt>0</asrwt>
<pdfrwt beam="1">  1        2 0.40093824E+00 0.65733389E+02</pdfrwt>
<pdfrwt beam="2">  1       -1 0.10023048E-02 0.33675013E+02</pdfrwt>
<totfact> 0.64709147E+03</totfact>
</mgrwt>
</event>
<event>
 5    1  0.7156190E-003  0.2309870E+03  0.7546771E-02  0.1154414E+00
          3   -1    0    0  502    0 -0.00000000000E+00  0.00000000000E+00  0.28459911143E+03  0.28459911143E+03  0.00000000000E+00 0. -1.
          1   -1    0    0  501    0  0.00000000000E+00 -0.00000000000E+00 -0.14472917854E+04  0.14472917854E+04  0.00000000000E+00 0. -1.
         25    1    1    2    0    0  0.22053733633E+03  0.13312713719E+03 -0.67224872722E+03  0.73068659672E+03  0.12500000000E+03 0.  0.
          1    1    1    2  501    0 -0.23351866311E+03  0.30231680985E+02 -0.69806152816E+03  0.73670538050E+03  0.00000000000E+00 0. -1.
          3    1    1    2  502    0  0.12981326776E+02 -0.16335881817E+03  0.20761758146E+03  0.26449891956E+03  0.00000000000E+00 0. -1.
<mgrwt>
<rscale>  0 0.19455773E+03</rscale>
<asrwt>0</asrwt>
<pdfrwt beam="2">  1        1 0.22266027E+00 0.23098698E+03</pdfrwt>
<pdfrwt beam="1">  1        3 0.43784479E-01 0.16387379E+03</pdfrwt>
<totfact> 0.22117473E+01</totfact>
</mgrwt>
</event>
<event>
 5    1  0.7156190E-003  0.1015192E+03  0.7546771E-02  0.1294386E+00
          2   -1    0    0  502    0  0.00000000000E+00  0.00000000000E+00  0.87118086524E+03  0.87118086524E+03  0.00000000000E+00 0.  1.
          2   -1    0    0  501    0 -0.00000000000E+00 -0.00000000000E+00 -0.43367124523E+03  0.43367124523E+03  0.00000000000E+00 0. -1.
         25    1    1    2    0    0  0.81320563524E+02  0.96122933521E+02 -0.52176109624E+02  0.18493241689E+03  0.12500000000E+03 0.  0.
          2    1    1    2  501    0 -0.10144326394E+03 -0.12224268547E+02 -0.30443576850E+03  0.32112506238E+03  0.00000000000E+00 0. -1.
          2    1    1    2  502    0  0.20122700420E+02 -0.83898664974E+02  0.79412149813E+03  0.79879463121E+03  0.00000000000E+00 0.  1.
<mgrwt>
<rscale>  0 0.93588895E+02</rscale>
<asrwt>0</asrwt>
<pdfrwt beam="1">  1        2 0.13402783E+00 0.86278091E+02</pdfrwt>
<pdfrwt beam="2">  1        2 0.66718653E-01 0.10151918E+03</pdfrwt>
<totfact> 0.38144075E+02</totfact>
</mgrwt>
</event>
<event>
 5    1  0.7156190E-003  0.3331855E+02  0.7546771E-02  0.1629389E+00
          1   -1    0    0  502    0 -0.00000000000E+00  0.00000000000E+00  0.15049476272E+04  0.15049476272E+04  0.00000000000E+00 0. -1.
          2   -1    0    0  501    0  0.00000000000E+00 -0.00000000000E+00 -0.95855488754E+02  0.95855488754E+02  0.00000000000E+00 0. -1.
         25    1    1    2    0    0  0.15997044656E+02  0.11970948740E+02  0.60900911023E+03  0.62202596842E+03  0.12500000000E+03 0.  0.
          2    1    1    2  501    0  0.18193735994E+02 -0.13150428708E+02 -0.87602261603E+02  0.90432859308E+02  0.00000000000E+00 0. -1.
          1    1    1    2  502    0 -0.34190780651E+02  0.11794799674E+01  0.88768528982E+03  0.88834428822E+03  0.00000000000E+00 0. -1.
<mgrwt>
<rscale>  0 0.27348846E+02</rscale>
<asrwt>0</asrwt>
<pdfrwt beam="2">  1        2 0.14746999E-01 0.22448737E+02</pdfrwt>
<pdfrwt beam="1">  1        1 0.23153039E+00 0.33318550E+02</pdfrwt>
<totfact> 0.41263046E+02</totfact>
</mgrwt>
</event>
<event>
 5    1  0.7156190E-003  0.4667612E+02  0.7546771E-02  0.1547791E+00
         -2   -1    0    0    0  501 -0.00000000000E+00  0.00000000000E+00  0.63001456944E+01  0.63001456944E+01  0.00000000000E+00 0.  1.
          1   -1    0    0  502    0  0.00000000000E+00 -0.00000000000E+00 -0.20437473014E+04  0.20437473014E+04  0.00000000000E+00 0. -1.
         25    1    1    2    0    0 -0.39909813773E+02  0.20172473635E+02 -0.14016718867E+04  0.14079448853E+04  0.12500000000E+03 0.  0.
          1    1    1    2  502    0  0.15728064901E+02  0.21180773065E+02 -0.43066888449E+03  0.43147616996E+03  0.00000000000E+00 0. -1.
         -2    1    1    2    0  501  0.24181748872E+02 -0.41353246700E+02 -0.20510638447E+03  0.21062639184E+03  0.00000000000E+00 0.  1.
<mgrwt>
<rscale>  0 0.35091282E+02</rscale>
<asrwt>0</asrwt>
<pdfrwt beam="2">  1        1 0.31442254E+00 0.26381758E+02</pdfrwt>
<pdfrwt beam="1">  1       -2 0.96925355E-03 0.46676119E+02</pdfrwt>
<totfact> 0.63549643E+03</totfact>
</mgrwt>
</event>
<event>
 5    1  0.7156190E-003  0.5299354E+02  0.7546771E-02  0.1545877E+00
         -2   -1    0    0    0  501 -0.00000000000E+00  0.00000000000E+00  0.12977532067E+03  0.12977532067E+03  0.00000000000E+00 0.  1.
          1   -1    0    0  502    0  0.00000000000E+00 -0.00000000000E+00 -0.12368796537E+03  0.12368796537E+03  0.00000000000E+00 0. -1.
         25    1    1    2    0    0  0.64113487583E+01 -0.60829289880E+02 -0.36086298516E+02  0.14376553426E+03  0.12500000000E+03 0.  0.
          1    1    1    2  502    0  0.18481218288E+02  0.14556421792E+02 -0.18139858465E+02  0.29706889940E+02  0.00000000000E+00 0. -1.
         -2    1    1    2    0  501 -0.24892567046E+02  0.46272868088E+02  0.60313512281E+02  0.79990861846E+02  0.00000000000E+00 0.  1.
<mgrwt>
<rscale>  0 0.35308565E+02</rscale>
<asrwt>0</asrwt>
<pdfrwt beam="2">  1        1 0.19028918E-01 0.23525408E+02</pdfrwt>
<pdfrwt beam="1">  1       -2 0.19965434E-01 0.52993542E+02</pdfrwt>
<totfact> 0.42772899E+03</totfact>
</mgrwt>
</event>
<event>
 5    1  0.7156190E-003  0.2228538E+03  0.7546771E-02  0.1193244E+00
          1   -1    0    0  502    0 -0.00000000000E+00  0.00000000000E+00  0.80972313286E+03  0.80972313286E+03  0.00000000000E+00 0. -1.
          2   -1    0    0  501    0  0.00000000000E+00 -0.00000000000E+00 -0.21815299730E+04  0.21815299730E+04  0.00000000000E+00 0. -1.
         25    1    1    2    0    0  0.53731034077E+02 -0.32258696783E+03  0.32672828505E+03  0.47887968018E+03  0.12500000000E+03 0.  0.
          2    1    1    2  501    0 -0.13656917422E+02  0.22094666104E+03 -0.20921746072E+04  0.21038532566E+04  0.00000000000E+00 0. -1.
          1    1    1    2  502    0 -0.40074116655E+02  0.10164030679E+03  0.39363948197E+03  0.40852016909E+03  0.00000000000E+00 0. -1.
<mgrwt>
<rscale>  0 0.15603822E+03</rscale>
<asrwt>0</asrwt>
<pdfrwt beam="2">  1        2 0.33561999E+00 0.22285381E+03</pdfrwt>
<pdfrwt beam="1">  1        1 0.12457279E+00 0.10925515E+03</pdfrwt>
<totfact> 0.19820047E+01</totfact>
</mgrwt>
</event>
<event>
 5    1  0.7156190E-003  0.6175851E+02  0.7546771E-02  0.1406781E+00
          1   -1    0    0  501    0  0.00000000000E+00  0.00000000000E+00  0.88859427670E+02  0.88859427670E+02  0.00000000000E+00 0. -1.
          1   -1    0    0  502    0 -0.00000000000E+00 -0.00000000000E+00 -0.52446502204E+03  0.52446502204E+03  0.00000000000E+00 0. -1.
         25    1    1    2    0    0  0.49084892583E+02 -0.54341382798E+02 -0.63655340221E+02  0.15823815881E+03  0.12500000000E+03 0.  0.
          1    1    1    2  501    0 -0.63286064178E+02  0.19137980393E+01  0.14403831289E+02  0.64932725939E+02  0.00000000000E+00 0. -1.
          1    1    1    2  502    0  0.14201171595E+02  0.52427584758E+02 -0.38635408544E+03  0.39015356497E+03  0.00000000000E+00 0. -1.
<mgrwt>
<rscale>  0 0.57918308E+02</rscale>
<asrwt>0</asrwt>
<pdfrwt beam="1">  1        1 0.13670681E-01 0.61758509E+02</pdfrwt>
<pdfrwt beam="2">  1        1 0.80686927E-01 0.54316893E+02</pdfrwt>
<totfact> 0.20636968E+03</totfact>
</mgrwt>
</event>
<event>
 5    1  0.7156190E-003  0.2375725E+03  0.7546771E-02  0.1222022E+00
          1   -1    0    0  501    0  0.00000000000E+00  0.00000000000E+00  0.68438671359E+03  0.68438671359E+03  0.00000000000E+00 0. -1.
          1   -1    0    0  502    0 -0.00000000000E+00 -0.00000000000E+00 -0.11304782474E+04  0.11304782474E+04  0.00000000000E+00 0. -1.
         25    1    1    2    0    0 -0.26818104039E+03 -0.71751735235E+02 -0.26936962670E+03  0.40651491698E+03  0.12500000000E+03 0.  0.
          1    1    1    2  501    0  0.23537626155E+03  0.39969462509E+01  0.59140883966E+03  0.63653937483E+03  0.00000000000E+00 0. -1.
          1    1    1    2  502    0  0.32804778836E+02  0.67754788984E+02 -0.76813074679E+03  0.77181066921E+03  0.00000000000E+00 0. -1.
<mgrwt>
<rscale>  0 0.13373152E+03</rscale>
<asrwt>0</asrwt>
<pdfrwt beam="1">  1        1 0.10529027E+00 0.23757248E+03</pdfrwt>
<pdfrwt beam="2">  1        1 0.17391973E+00 0.75278582E+02</pdfrwt>
<totfact> 0.49768813E+01</totfact>
</mgrwt>
</event>
<event>
 5    1  0.7156190E-003  0.3568753E+02  0.7546771E-02  0.1584715E+00
         -2   -1    0    0    0  501 -0.00000000000E+00  0.00000000000E+00  0.17952583048E+03  0.17952583048E+03  0.00000000000E+00 0.  1.
          1   -1    0    0  502    0  0.00000000000E+00 -0.00000000000E+00 -0.15923355029E+03  0.15923355029E+03  0.00000000000E+00 0. -1.
         25    1    1    2    0    0 -0.23993950862E+02 -0.11458617432E+02  0.14190817329E+03  0.19097104293E+03  0.12500000000E+03 0.  0.
          1    1    1    2  502    0  0.32995817470E+02 -0.14374357748E+02 -0.11377278067E+03  0.11932976055E+03  0.00000000000E+00 0. -1.
         -2    1    1    2    0  501 -0.90018666073E+01  0.25832975180E+02 -0.78431124174E+01  0.28458577292E+02  0.00000000000E+00 0.  1.
<mgrwt>
<rscale>  0 0.31245554E+02</rscale>
<asrwt>0</asrwt>
<pdfrwt beam="2">  1        1 0.24497469E-01 0.35687528E+02</pdfrwt>
<pdfrwt beam="1">  1       -2 0.27619358E-01 0.27356466E+02</pdfrwt>
<totfact> 0.18155686E+03</totfact>
</mgrwt>
</event>
<event>
 5    1  0.7156190E-003  0.7567343E+02  0.7546771E-02  0.1358661E+00
          2   -1    0    0  502    0  0.00000000000E+00  0.00000000000E+00  0.56954750835E+03  0.56954750835E+03  0.00000000000E+00 0. -1.
          2   -1    0    0  501    0 -0.00000000000E+00 -0.00000000000E+00 -0.12178663926E+04  0.12178663926E+04  0.00000000000E+00 0. -1.
         25    1    1    2    0    0  0.13802175195E+03  0.22294229062E+02  0.95600954202E+02  0.21050315700E+03  0.12500000000E+03 0.  0.
          2    1    1    2  501    0 -0.75055226448E+02 -0.41206597683E+01 -0.11566096081E+04  0.11590496332E+04  0.00000000000E+00 0. -1.
          2    1    1    2  502    0 -0.62966525504E+02 -0.18173569293E+02  0.41268976958E+03  0.41786111074E+03  0.00000000000E+00 0. -1.
<mgrwt>
<rscale>  0 0.70422925E+02</rscale>
<asrwt>0</asrwt>
<pdfrwt beam="1">  1        2 0.87622695E-01 0.65536722E+02</pdfrwt>
<pdfrwt beam="2">  1        2 0.18736406E+00 0.75673427E+02</pdfrwt>
<totfact> 0.18216697E+02</totfact>
</mgrwt>
</event>
<event>
 5    1  0.7156190E-003  0.1033810E+03  0.7546771E-02  0.1327500E+00
          2   -1    0    0  502    0  0.00000000000E+00  0.00000000000E+00  0.23154014703E+03  0.23154014703E+03  0.00000000000E+00 0. -1.
          2   -1    0    0  501    0 -0.00000000000E+00 -0.00000000000E+00 -0.37547069070E+03  0.37547069070E+03  0.00000000000E+00 0. -1.
         25    1    1    2    0    0  0.13425130480E+03 -0.33169911096E+02 -0.23627133030E+03  0.30095314812E+03  0.12500000000E+03 0.  0.
          2    1    1    2  501    0 -0.72730409798E+02  0.45577807007E+02 -0.83259462558E+02  0.11957920850E+03  0.00000000000E+00 0. -1.
          2    1    1    2  502    0 -0.61520895006E+02 -0.12407895912E+02  0.17560024919E+03  0.18647848111E+03  0.00000000000E+00 0. -1.
<mgrwt>
<rscale>  0 0.80549096E+02</rscale>
<asrwt>0</asrwt>
<pdfrwt beam="1">  1        2 0.35621561E-01 0.62759672E+02</pdfrwt>
<pdfrwt beam="2">  1        2 0.57764721E-01 0.10338099E+03</pdfrwt>
<totfact> 0.18809721E+03</totfact>
</mgrwt>
</event>
<event>
 5    1  0.7156190E-003  0.7798463E+02  0.7546771E-02  0.1468395E+00
          1   -1    0    0  502    0 -0.00000000000E+00  0.00000000000E+00  0.73234039445E+02  0.73234039445E+02  0.00000000000E+00 0. -1.
          2   -1    0    0  501    0  0.00000000000E+00 -0.00000000000E+00 -0.16220895447E+04  0.16220895447E+04  0.00000000000E+00 0. -1.
         25    1    1    2    0    0  0.71129432789E+02  0.68627079919E+01 -0.11912377056E+03  0.18687419748E+03  0.12500000000E+03 0.  0.
          2    1    1    2  501    0 -0.70576588044E+02 -0.33951515940E+02 -0.14632529604E+04  0.14653473944E+04  0.00000000000E+00 0. -1.
          1    1    1    2  502    0 -0.55284474464E+00  0.27088807948E+02  0.33521225769E+02  0.43101992186E+02  0.00000000000E+00 0. -1.
<mgrwt>
<rscale>  0 0.45966841E+02</rscale>
<asrwt>0</asrwt>
<pdfrwt beam="2">  1        2 0.24955224E+00 0.77984627E+02</pdfrwt>
<pdfrwt beam="1">  1        1 0.11266775E-01 0.27094449E+02</pdfrwt>
<totfact> 0.84008355E+02</totfact>
</mgrwt>
</event>
<event>
 5    1  0.7156190E-003  0.6264502E+02  0.7546771E-02  0.1450033E+00
          3   -1    0    0  502    0  0.00000000000E+00  0.00000000000E+00  0.92349153478E+01  0.92349153478E+01  0.00000000000E+00 0. -1.
         -3   -1    0    0    0  501 -0.00000000000E+00 -0.00000000000E+00 -0.21297203807E+04  0.21297203807E+04  0.00000000000E+00 0.  1.
         25    1    1    2    0    0  0.48218134541E+02 -0.65342797379E+02 -0.89770703308E+03  0.90999867412E+03  0.12500000000E+03 0.  0.
          3    1    1    2  502    0 -0.10550670843E+02  0.57154051647E+02 -0.31226956125E+03  0.31763214755E+03  0.00000000000E+00 0. -1.
         -3    1    1    2    0  501 -0.37667463697E+02  0.81887457321E+01 -0.91050887098E+03  0.91132447433E+03  0.00000000000E+00 0.  1.
<mgrwt>
<rscale>  0 0.49140570E+02</rscale>
<asrwt>0</asrwt>
<pdfrwt beam="1">  1        3 0.14207568E-02 0.62645021E+02</pdfrwt>
<pdfrwt beam="2">  1       -3 0.32764915E+00 0.38547288E+02</pdfrwt>
<totfact> 0.11840181E+02</totfact>
</mgrwt>
</event>
<event>
 5    1  0.7156190E-003  0.4523005E+02  0.7546771E-02  0.1500664E+00
          2   -1    0    0  502    0  0.00000000000E+00  0.00000000000E+00  0.28272827531E+03  0.28272827531E+03  0.00000000000E+00 0. -1.
         -1   -1    0    0    0  501 -0.00000000000E+00 -0.00000000000E+00 -0.47632323641E+02  0.47632323641E+02  0.00000000000E+00 0.  1.
         25    1    1    2    0    0 -0.33032125138E+02 -0.23473136530E+02  0.18878846653E+03  0.23001781349E+03  0.12500000000E+03 0.  0.
          2    1    1    2  502    0 -0.13324618013E+02  0.34780975306E+02  0.35423505481E+02  0.51401229840E+02  0.00000000000E+00 0. -1.
         -1    1    1    2    0  501  0.46356743151E+02 -0.11307838777E+02  0.10883979662E+02  0.48941555622E+02  0.00000000000E+00 0.  1.
<mgrwt>
<rscale>  0 0.41044324E+02</rscale>
<asrwt>0</asrwt>
<pdfrwt beam="1">  1        2 0.43496657E-01 0.37245962E+02</pdfrwt>
<pdfrwt beam="2">  1       -1 0.73280499E-02 0.45230045E+02</pdfrwt>
<totfact> 0.11076561E+04</totfact>
</mgrwt>
</event>
<event>
 5    1  0.7156190E-003  0.3692001E+02  0.7546771E-02  0.1540997E+00
          2   -1    0    0  502    0  0.00000000000E+00  0.00000000000E+00  0.43225811795E+03  0.43225811795E+03  0.00000000000E+00 0. -1.
         -1   -1    0    0    0  501 -0.00000000000E+00 -0.00000000000E+00 -0.33836904067E+02  0.33836904067E+02  0.00000000000E+00 0.  1.
         25    1    1    2    0    0 -0.11558061757E+02  0.25187810771E+02  0.12318797694E+03  0.17767468099E+03  0.12500000000E+03 0.  0.
          2    1    1    2  502    0 -0.34711542929E+02 -0.31284389782E+01  0.11838765273E+03  0.12341116101E+03  0.00000000000E+00 0. -1.
         -1    1    1    2    0  501  0.46269604686E+02 -0.22059371793E+02  0.15684558421E+03  0.16500918002E+03  0.00000000000E+00 0.  1.
<mgrwt>
<rscale>  0 0.35871225E+02</rscale>
<asrwt>0</asrwt>
<pdfrwt beam="1">  1        2 0.66501245E-01 0.34852236E+02</pdfrwt>
<pdfrwt beam="2">  1       -1 0.52056778E-02 0.36920008E+02</pdfrwt>
<totfact> 0.11543029E+04</totfact>
</mgrwt>
</event>
<event>
 5    1  0.7156190E-003  0.3761601E+02  0.7546771E-02  0.1609353E+00
         -3   -1    0    0    0  501 -0.00000000000E+00  0.00000000000E+00  0.92728490150E+03  0.92728490150E+03  0.00000000000E+00 0.  1.
          1   -1    0    0  502    0  0.00000000000E+00 -0.00000000000E+00 -0.38235639798E+03  0.38235639798E+03  0.00000000000E+00 0. -1.
         25    1    1    2    0    0  0.25982758666E+02 -0.28497817261E+02  0.72687874106E+00  0.13081573946E+03  0.12500000000E+03 0.  0.
          1    1    1    2  502    0 -0.36658979772E+02  0.88450086938E+01 -0.31604567019E+03  0.31828757535E+03  0.00000000000E+00 0. -1.
         -3    1    1    2    0  501  0.10676221106E+02  0.19652808567E+02  0.86024729496E+03  0.86053798468E+03  0.00000000000E+00 0.  1.
<mgrwt>
<rscale>  0 0.29005172E+02</rscale>
<asrwt>0</asrwt>
<pdfrwt beam="2">  1        1 0.58824061E-01 0.37616010E+02</pdfrwt>
<pdfrwt beam="1">  1       -3 0.14265922E+00 0.22365477E+02</pdfrwt>
<totfact> 0.13603095E+01</totfact>
</mgrwt>
</event>
<event>
 5    1  0.7156190E-003  0.1421179E+03  0.7546771E-02  0.1258972E+00
         -1   -1    0    0    0  501 -0.00000000000E+00  0.00000000000E+00  0.34307734382E+03  0.34307734382E+03  0.00000000000E+00 0.  1.
          1   -1    0    0  502    0  0.00000000000E+00 -0.00000000000E+00 -0.11136714353E+04  0.11136714353E+04  0.00000000000E+00 0. -1.
         25    1    1    2    0    0 -0.51001584109E+01  0.22089789804E+03  0.17170447270E+02  0.25444393731E+03  0.12500000000E+03 0.  0.
          1    1    1    2  502    0 -0.19515727010E+02 -0.13798667028E+03 -0.98086750873E+03  0.99071804993E+03  0.00000000000E+00 0. -1.
         -1    1    1    2    0  501  0.24615885421E+02 -0.82911227756E+02  0.19310296996E+03  0.21158679191E+03  0.00000000000E+00 0.  1.
<mgrwt>
<rscale>  0 0.11086716E+03</rscale>
<asrwt>0</asrwt>
<pdfrwt beam="2">  1        1 0.17133407E+00 0.14211793E+03</pdfrwt>
<pdfrwt beam="1">  1       -1 0.52781129E-01 0.86488228E+02</pdfrwt>
<totfact> 0.52582979E+01</totfact>
</mgrwt>
</event>
<event>
 5    1  0.7156190E-003  0.4523180E+02  0.7546771E-02  0.1557712E+00
          1   -1    0    0  502    0  0.00000000000E+00  0.00000000000E+00  0.80443463049E+03  0.80443463049E+03  0.00000000000E+00 0. -1.
         -2   -1    0    0    0  501 -0.00000000000E+00 -0.00000000000E+00 -0.15353035034E+02  0.15353035034E+02  0.00000000000E+00 0.  1.
         25    1    1    2    0    0  0.11072187516E+02  0.29187409222E+02  0.56606925050E+03  0.58054620363E+03  0.12500000000E+03 0.  0.
          1    1    1    2  502    0 -0.34023276265E+02 -0.40413440066E+02  0.19160538356E+03  0.19875475459E+03  0.00000000000E+00 0. -1.
         -2    1    1    2    0  501  0.22951088749E+02  0.11226030844E+02  0.31406961403E+02  0.40486707298E+02  0.00000000000E+00 0.  1.
<mgrwt>
<rscale>  0 0.33994843E+02</rscale>
<asrwt>0</asrwt>
<pdfrwt beam="1">  1        1 0.12375914E+00 0.45231804E+02</pdfrwt>
<pdfrwt beam="2">  1       -2 0.23620060E-02 0.25549486E+02</pdfrwt>
<totfact> 0.96558300E+03</totfact>
</mgrwt>
</event>
<event>
 5    1  0.7156190E-003  0.4639729E+02  0.7546771E-02  0.1559015E+00
          2   -1    0    0  501    0  0.00000000000E+00  0.00000000000E+00  0.12818397487E+03  0.12818397487E+03  0.00000000000E+00 0. -1.
          1   -1    0    0  502    0 -0.00000000000E+00 -0.00000000000E+00 -0.28066599909E+03  0.28066599909E+03  0.00000000000E+00 0. -1.
         25    1    1    2    0    0  0.40775228825E+02  0.19245766908E+02 -0.12499176024E+03  0.18243069631E+03  0.12500000000E+03 0.  0.
          2    1    1    2  501    0 -0.25800865706E+02 -0.38892005697E+02  0.92662955842E+02  0.10375305376E+03  0.00000000000E+00 0. -1.
          1    1    1    2  502    0 -0.14974363119E+02  0.19646238789E+02 -0.12015321983E+03  0.12266622390E+03  0.00000000000E+00 0. -1.
<mgrwt>
<rscale>  0 0.33854428E+02</rscale>
<asrwt>0</asrwt>
<pdfrwt beam="1">  1        2 0.19720612E-01 0.46397291E+02</pdfrwt>
<pdfrwt beam="2">  1        1 0.43179384E-01 0.24702353E+02</pdfrwt>
<totfact> 0.33637663E+03</totfact>
</mgrwt>
</event>
<event>
 5    1  0.7156190E-003  0.5879507E+02  0.7546771E-02  0.1444615E+00
          1   -1    0    0  501    0  0.00000000000E+00  0.00000000000E+00  0.77759683372E+02  0.77759683372E+02  0.00000000000E+00 0. -1.
          1   -1    0    0  502    0 -0.00000000000E+00 -0.00000000000E+00 -0.40713119869E+03  0.40713119869E+03  0.00000000000E+00 0. -1.
         25    1    1    2    0    0 -0.59435161747E+02 -0.50088139601E+01 -0.10887855643E+03  0.17617368339E+03  0.12500000000E+03 0.  0.
          1    1    1    2  501    0  0.18100183587E+02 -0.38729744445E+02  0.29267215950E+02  0.51809069478E+02  0.00000000000E+00 0. -1.
          1    1    1    2  502    0  0.41334978160E+02  0.43738558405E+02 -0.24976017483E+03  0.25690812919E+03  0.00000000000E+00 0. -1.
<mgrwt>
<rscale>  0 0.50135033E+02</rscale>
<asrwt>0</asrwt>
<pdfrwt beam="1">  1        1 0.11963028E-01 0.42750553E+02</pdfrwt>
<pdfrwt beam="2">  1        1 0.62635569E-01 0.58795066E+02</pdfrwt>
<totfact> 0.32662984E+03</totfact>
</mgrwt>
</event>
<event>
 5    1  0.7156190E-003  0.3787651E+02  0.7546771E-02  0.1602367E+00
          2   -1    0    0  502    0  0.00000000000E+00  0.00000000000E+00  0.33260457090E+03  0.33260457090E+03  0.00000000000E+00 0. -1.
         -2   -1    0    0    0  501 -0.00000000000E+00 -0.00000000000E+00 -0.23172139777E+03  0.23172139777E+03  0.00000000000E+00 0.  1.
         25    1    1    2    0    0 -0.29437640905E+02 -0.38417181998E+02  0.82270808968E+02  0.15727663712E+03  0.12500000000E+03 0.  0.
          2    1    1    2  502    0  0.34189702179E+02  0.15752187039E+02  0.21046454053E+03  0.21380456018E+03  0.00000000000E+00 0. -1.
         -2    1    1    2    0  501 -0.47520612735E+01  0.22664994959E+02 -0.19185217638E+03  0.19324477137E+03  0.00000000000E+00 0.  1.
<mgrwt>
<rscale>  0 0.29616498E+02</rscale>
<asrwt>0</asrwt>
<pdfrwt beam="1">  1        2 0.51169934E-01 0.37876509E+02</pdfrwt>
<pdfrwt beam="2">  1       -2 0.35649446E-01 0.23157808E+02</pdfrwt>
<totfact> 0.69073412E+02</totfact>
</mgrwt>
</event>
<event>
 5    1  0.7156190E-003  0.2170743E+03  0.7546771E-02  0.1224278E+00
          2   -1    0    0  501    0  0.00000000000E+00  0.00000000000E+00  0.10394991245E+04  0.10394991245E+04  0.00000000000E+00 0. -1.
          3   -1    0    0  502    0 -0.00000000000E+00 -0.00000000000E+00 -0.15526955705E+04  0.15526955705E+04  0.00000000000E+00 0.  1.
         25    1    1    2    0    0  0.17137417833E+03  0.12990778313E+03  0.21353705981E+03  0.32782345406E+03  0.12500000000E+03 0.  0.
          2    1    1    2  501    0 -0.21235338807E+03 -0.60655591295E+02  0.75184250825E+03  0.78360718436E+03  0.00000000000E+00 0. -1.
          3    1    1    2  502    0  0.40979209737E+02 -0.69252191839E+02 -0.14785760141E+04  0.14807640566E+04  0.00000000000E+00 0.  1.
<mgrwt>
<rscale>  0 0.13216513E+03</rscale>
<asrwt>0</asrwt>
<pdfrwt beam="1">  1        2 0.15992294E+00 0.21707434E+03</pdfrwt>
<pdfrwt beam="2">  1        3 0.23887624E+00 0.80468389E+02</pdfrwt>
<totfact> 0.15706818E+00</totfact>
</mgrwt>
</event>
<event>
 5    1  0.7156190E-003  0.4609943E+02  0.7546771E-02  0.1588426E+00
          1   -1    0    0  502    0  0.00000000000E+00  0.00000000000E+00  0.12804485984E+04  0.12804485984E+04  0.00000000000E+00 0. -1.
         -2   -1    0    0    0  501 -0.00000000000E+00 -0.00000000000E+00 -0.92847597908E+01  0.92847597908E+01  0.00000000000E+00 0.  1.
         25    1    1    2    0    0  0.31782523473E+02 -0.49278103452E+01  0.65333720149E+03  0.66596464693E+03  0.12500000000E+03 0.  0.
          1    1    1    2  502    0  0.19671891971E+02  0.64494525339E+01  0.37374303242E+03  0.37431595351E+03  0.00000000000E+00 0. -1.
         -2    1    1    2    0  501 -0.51454415444E+02 -0.15216421887E+01  0.24408360469E+03  0.24945275773E+03  0.00000000000E+00 0.  1.
<mgrwt>
<rscale>  0 0.30892671E+02</rscale>
<asrwt>0</asrwt>
<pdfrwt beam="1">  1        1 0.19699195E+00 0.20702144E+02</pdfrwt>
<pdfrwt beam="2">  1       -2 0.14284256E-02 0.46099434E+02</pdfrwt>
<totfact> 0.10863342E+04</totfact>
</mgrwt>
</event>
<event>
 5    1  0.7156190E-003  0.1321714E+03  0.7546771E-02  0.1377274E+00
          2   -1    0    0  502    0  0.00000000000E+00  0.00000000000E+00  0.17040747720E+04  0.17040747720E+04  0.00000000000E+00 0. -1.
         -2   -1    0    0    0  501 -0.00000000000E+00 -0.00000000000E+00 -0.21545074746E+02  0.21545074746E+02  0.00000000000E+00 0.  1.
         25    1    1    2    0    0 -0.13592088410E+03 -0.55369234160E+02  0.11470313977E+04  0.11631191969E+04  0.12500000000E+03 0.  0.
          2    1    1    2  502    0  0.98053347274E+01  0.30617210656E+02  0.21172285707E+03  0.21414977558E+03  0.00000000000E+00 0. -1.
         -2    1    1    2    0  501  0.12611554937E+03  0.24752023503E+02  0.32377544245E+03  0.34835087425E+03  0.00000000000E+00 0.  1.
<mgrwt>
<rscale>  0 0.65185724E+02</rscale>
<asrwt>0</asrwt>
<pdfrwt beam="1">  1        2 0.26216524E+00 0.32149000E+02</pdfrwt>
<pdfrwt beam="2">  1       -2 0.33146282E-02 0.13217141E+03</pdfrwt>
<totfact> 0.44193384E+03</totfact>
</mgrwt>
</event>
<event>
 5    1  0.7156190E-003  0.9164346E+02  0.7546771E-02  0.1313925E+00
          1   -1    0    0  502    0  0.00000000000E+00  0.00000000000E+00  0.84498734487E+03  0.84498734487E+03  0.00000000000E+00 0. -1.
          1   -1    0    0  501    0 -0.00000000000E+00 -0.00000000000E+00 -0.13920372551E+03  0.13920372551E+03  0.00000000000E+00 0. -1.
         25    1    1    2    0    0 -0.11822614931E+03  0.53977968591E+02  0.61060888026E+02  0.19037981910E+03  0.12500000000E+03 0.  0.
          1    1    1    2  501    0  0.75435692504E+02  0.26382184278E+02 -0.49262595219E+02  0.93879532586E+02  0.00000000000E+00 0. -1.
          1    1    1    2  502    0  0.42790456804E+02 -0.80360152869E+02  0.69398532656E+03  0.69993171870E+03  0.00000000000E+00 0. -1.
<mgrwt>
<rscale>  0 0.85579068E+02</rscale>
<asrwt>0</asrwt>
<pdfrwt beam="1">  1        1 0.12999805E+00 0.91643462E+02</pdfrwt>
<pdfrwt beam="2">  1        1 0.21415958E-01 0.79915977E+02</pdfrwt>
<totfact> 0.60339332E+02</totfact>
</mgrwt>
</event>
<event>
 5    1  0.7156190E-003  0.5204205E+02  0.7546771E-02  0.1455780E+00
          1   -1    0    0  502    0  0.00000000000E+00  0.00000000000E+00  0.25814594382E+02  0.25814594382E+02  0.00000000000E+00 0. -1.
         -2   -1    0    0    0  501 -0.00000000000E+00 -0.00000000000E+00 -0.66635191474E+03  0.66635191474E+03  0.00000000000E+00 0.  1.
         25    1    1    2    0    0  0.91622954535E+01  0.56677780039E+02 -0.21529057401E+03  0.25548258193E+03  0.12500000000E+03 0.  0.
          1    1    1    2  502    0 -0.42057800754E+02 -0.14493671426E+02 -0.15839871114E+03  0.16452682701E+03  0.00000000000E+00 0. -1.
         -2    1    1    2    0  501  0.32895505301E+02 -0.42184108613E+02 -0.26684803521E+03  0.27215710019E+03  0.00000000000E+00 0.  1.
<mgrwt>
<rscale>  0 0.48115450E+02</rscale>
<asrwt>0</asrwt>
<pdfrwt beam="1">  1        1 0.39714763E-02 0.44485111E+02</pdfrwt>
<pdfrwt beam="2">  1       -2 0.10251567E+00 0.52042053E+02</pdfrwt>
<totfact> 0.14296028E+03</totfact>
</mgrwt>
</event>
<event>
 5    1  0.7156190E-003  0.5880498E+02  0.7546771E-02  0.1499722E+00
         -1   -1    0    0    0  501 -0.00000000000E+00  0.00000000000E+00  0.91641719446E+02  0.91641719446E+02  0.00000000000E+00 0.  1.
          2   -1    0    0  502    0  0.00000000000E+00 -0.00000000000E+00 -0.21028377999E+04  0.21028377999E+04  0.00000000000E+00 0. -1.
         25    1    1    2    0    0  0.20815785516E+02 -0.39290677537E+02 -0.77244512557E+03  0.78375603747E+03  0.12500000000E+03 0.  0.
          2    1    1    2  502    0 -0.49451216588E+02  0.35914132452E+02 -0.13215937842E+04  0.13230061898E+04  0.00000000000E+00 0. -1.
         -1    1    1    2    0  501  0.28635431072E+02  0.33765450846E+01  0.82842829300E+02  0.87717292114E+02  0.00000000000E+00 0.  1.
<mgrwt>
<rscale>  0 0.41177323E+02</rscale>
<asrwt>0</asrwt>
<pdfrwt beam="2">  1        2 0.32351350E+00 0.58804978E+02</pdfrwt>
<pdfrwt beam="1">  1       -1 0.14098727E-01 0.28833816E+02</pdfrwt>
<totfact> 0.27917517E+02</totfact>
</mgrwt>
</event>
<event>
 5    1  0.7156190E-003  0.2154998E+03  0.7546771E-02  0.1338807E+00
         -1   -1    0    0    0  502 -0.00000000000E+00  0.00000000000E+00  0.94459084490E+03  0.94459084490E+03  0.00000000000E+00 0.  1.
         -2   -1    0    0    0  501  0.00000000000E+00 -0.00000000000E+00 -0.22065014318E+03  0.22065014318E+03  0.00000000000E+00 0. -1.
         25    1    1    2    0    0 -0.59419347369E+02  0.19983584643E+03  0.31511871338E+03  0.39798219543E+03  0.12500000000E+03 0.  0.
         -2    1    1    2    0  501  0.21809800859E+02  0.16370449319E+02 -0.15753143697E+03  0.15987436523E+03  0.00000000000E+00 0. -1.
         -1    1    1    2    0  502  0.37609546510E+02 -0.21620629575E+03  0.56635342531E+03  0.60738442742E+03  0.00000000000E+00 0.  1.
<mgrwt>
<rscale>  0 0.76659665E+02</rscale>
<asrwt>0</asrwt>
<pdfrwt beam="2">  1       -2 0.33946176E-01 0.27270112E+02</pdfrwt>
<pdfrwt beam="1">  1       -1 0.14532167E+00 0.21549982E+03</pdfrwt>
<totfact> 0.24229877E+01</totfact>
</mgrwt>
</event>
<event>
 5    1  0.7156190E-003  0.4844076E+02  0.7546771E-02  0.1484344E+00
         -2   -1    0    0    0  501 -0.00000000000E+00  0.00000000000E+00  0.81159349764E+03  0.81159349764E+03  0.00000000000E+00 0.  1.
          3   -1    0    0  502    0  0.00000000000E+00 -0.00000000000E+00 -0.66728631193E+02  0.66728631193E+02  0.00000000000E+00 0. -1.
         25    1    1    2    0    0  0.13651575835E+02 -0.50595096822E+02  0.20357271243E+03  0.24456712492E+03  0.12500000000E+03 0.  0.
          3    1    1    2  502    0 -0.42532577190E+02  0.24461540506E+02 -0.32364261606E+02  0.58777823332E+02  0.00000000000E+00 0. -1.
         -2    1    1    2    0  501  0.28881001355E+02  0.26133556316E+02  0.57365641562E+03  0.57497718058E+03  0.00000000000E+00 0.  1.
<mgrwt>
<rscale>  0 0.43436739E+02</rscale>
<asrwt>0</asrwt>
<pdfrwt beam="2">  1        3 0.10265944E-01 0.48440755E+02</pdfrwt>
<pdfrwt beam="1">  1       -2 0.12486053E+00 0.38949647E+02</pdfrwt>
<totfact> 0.12960090E+02</totfact>
</mgrwt>
</event>
<event>
 5    1  0.7156190E-003  0.4108420E+02  0.7546771E-02  0.1541344E+00
         -1   -1    0    0    0  501 -0.00000000000E+00  0.00000000000E+00  0.81633793569E+02  0.81633793569E+02  0.00000000000E+00 0.  1.
          2   -1    0    0  502    0  0.00000000000E+00 -0.00000000000E+00 -0.15230280226E+03  0.15230280226E+03  0.00000000000E+00 0. -1.
         25    1    1    2    0    0  0.75368942366E+01 -0.22654049105E+02 -0.89759975485E+02  0.15573009958E+03  0.12500000000E+03 0.  0.
          2    1    1    2  502    0 -0.25522790873E+02 -0.18030575775E+02  0.99401242039E+01  0.32792081147E+02  0.00000000000E+00 0. -1.
         -1    1    1    2    0  501  0.17985896637E+02  0.40684624880E+02  0.91508425876E+01  0.45414415107E+02  0.00000000000E+00 0.  1.
<mgrwt>
<rscale>  0 0.35830851E+02</rscale>
<asrwt>0</asrwt>
<pdfrwt beam="2">  1        2 0.23431200E-01 0.31249232E+02</pdfrwt>
<pdfrwt beam="1">  1       -1 0.12559045E-01 0.41084205E+02</pdfrwt>
<totfact> 0.93252895E+03</totfact>
</mgrwt>
</event>
<event>
 5    1  0.7156190E-003  0.5511940E+02  0.7546771E-02  0.1446857E+00
         -2   -1    0    0    0  501 -0.00000000000E+00  0.00000000000E+00  0.26091401878E+03  0.26091401878E+03  0.00000000000E+00 0.  1.
          2   -1    0    0  502    0  0.00000000000E+00 -0.00000000000E+00 -0.15515561097E+04  0.15515561097E+04  0.00000000000E+00 0. -1.
         25    1    1    2    0    0 -0.71977947667E+02  0.68312448795E+02 -0.44329837640E+03  0.47115376061E+03  0.12500000000E+03 0.  0.
          2    1    1    2  502    0  0.35569531295E+02 -0.27318565815E+02 -0.10908207926E+04  0.10917424134E+04  0.00000000000E+00 0. -1.
         -2    1    1    2    0  501  0.36408416372E+02 -0.40993882979E+02  0.24347707807E+03  0.24957395451E+03  0.00000000000E+00 0.  1.
<mgrwt>
<rscale>  0 0.49720101E+02</rscale>
<asrwt>0</asrwt>
<pdfrwt beam="2">  1        2 0.23870094E+00 0.44849700E+02</pdfrwt>
<pdfrwt beam="1">  1       -2 0.40140617E-01 0.55119397E+02</pdfrwt>
<totfact> 0.88034251E+01</totfact>
</mgrwt>
</event>
<event>
 5    1  0.7156190E-003  0.6282216E+02  0.7546771E-02  0.1438325E+00
          2   -1    0    0  502    0  0.00000000000E+00  0.00000000000E+00  0.43577979799E+03  0.43577979799E+03  0.00000000000E+00 0.  1.
         -3   -1    0    0    0  501 -0.00000000000E+00 -0.00000000000E+00 -0.12869517551E+03  0.12869517551E+03  0.00000000000E+00 0.  1.
         25    1    1    2    0    0  0.43646349063E+02  0.29875742432E+02 -0.33850180964E+02  0.13988709206E+03  0.12500000000E+03 0.  0.
          2    1    1    2  502    0  0.29369307064E+02 -0.29928096603E+02  0.34865297859E+03  0.35116541208E+03  0.00000000000E+00 0.  1.
         -3    1    1    2    0  501 -0.73015656127E+02  0.52354170608E-01 -0.77181751398E+01  0.73422469368E+02  0.00000000000E+00 0.  1.
<mgrwt>
<rscale>  0 0.51324700E+02</rscale>
<asrwt>0</asrwt>
<pdfrwt beam="1">  1        2 0.67043045E-01 0.41931458E+02</pdfrwt>
<pdfrwt beam="2">  1       -3 0.19799258E-01 0.62822162E+02</pdfrwt>
<totfact> 0.93575156E+02</totfact>
</mgrwt>
</event>
<event>
 5    1  0.7522647E-003  0.4906188E+03  0.7546771E-02  0.1016257E+00
         -1   -1    0    0    0  501 -0.00000000000E+00  0.00000000000E+00  0.15146488953E+03  0.15146488953E+03  0.00000000000E+00 0.  1.
          2   -1    0    0  502    0  0.00000000000E+00 -0.00000000000E+00 -0.39729795853E+03  0.39729795853E+03  0.00000000000E+00 0. -1.
         25    1    1    2    0    0  0.69870250022E+01 -0.18738552928E+03  0.53799859371E+01  0.22542426522E+03  0.12500000000E+03 0.  0.
          2    1    1    2  502    0 -0.28234223206E+02  0.31416918535E+02 -0.81943452636E+02  0.92189606573E+02  0.00000000000E+00 0. -1.
         -1    1    1    2    0  501  0.21247198204E+02  0.15596861074E+03 -0.16926960230E+03  0.23114897627E+03  0.00000000000E+00 0.  1.
<mgrwt>
<rscale>  0 0.49061876E+03</rscale>
<asrwt>0</asrwt>
<pdfrwt beam="2">  1        2 0.61122762E-01 0.49061876E+03</pdfrwt>
<pdfrwt beam="1">  1       -1 0.23302291E-01 0.49061876E+03</pdfrwt>
<totfact> 0.14408786E+03</totfact>
</mgrwt>
</event>
<event>
 5    1  0.7156190E-003  0.7977648E+02  0.7546771E-02  0.1439347E+00
          2   -1    0    0  501    0  0.00000000000E+00  0.00000000000E+00  0.17826977649E+03  0.17826977649E+03  0.00000000000E+00 0. -1.
          2   -1    0    0  502    0 -0.00000000000E+00 -0.00000000000E+00 -0.12619375718E+04  0.12619375718E+04  0.00000000000E+00 0. -1.
         25    1    1    2    0    0  0.96656620620E+02 -0.26375427366E+01 -0.46407868300E+03  0.49024838904E+03  0.12500000000E+03 0.  0.
          2    1    1    2  501    0 -0.74792934437E+02  0.27045306014E+02  0.15524526050E+03  0.17443199972E+03  0.00000000000E+00 0. -1.
          2    1    1    2  502    0 -0.21863686182E+02 -0.24407763278E+02 -0.77483437284E+03  0.77552695957E+03  0.00000000000E+00 0. -1.
<mgrwt>
<rscale>  0 0.51128635E+02</rscale>
<asrwt>0</asrwt>
<pdfrwt beam="1">  1        2 0.27426120E-01 0.79776475E+02</pdfrwt>
<pdfrwt beam="2">  1        2 0.19414424E+00 0.32768272E+02</pdfrwt>
<totfact> 0.62178790E+02</totfact>
</mgrwt>
</event>
<event>
 5    1  0.7156190E-003  0.4451230E+02  0.7546771E-02  0.1552151E+00
          1   -1    0    0  502    0  0.00000000000E+00  0.00000000000E+00  0.18800098024E+03  0.18800098024E+03  0.00000000000E+00 0. -1.
          1   -1    0    0  501    0 -0.00000000000E+00 -0.00000000000E+00 -0.13841500396E+04  0.13841500396E+04  0.00000000000E+00 0. -1.
         25    1    1    2    0    0  0.55207485398E+02  0.44479816277E+01 -0.51171560101E+02  0.14598349067E+03  0.12500000000E+03 0.  0.
          1    1    1    2  501    0 -0.40608671153E+02  0.18146278341E+02 -0.12838971511E+04  0.12846673679E+04  0.00000000000E+00 0. -1.
          1    1    1    2  502    0 -0.14598814245E+02 -0.22594259969E+02  0.13891965185E+03  0.14150016124E+03  0.00000000000E+00 0. -1.
<mgrwt>
<rscale>  0 0.34603384E+02</rscale>
<asrwt>0</asrwt>
<pdfrwt beam="1">  1        1 0.28923229E-01 0.26900297E+02</pdfrwt>
<pdfrwt beam="2">  1        1 0.21294615E+00 0.44512304E+02</pdfrwt>
<totfact> 0.18164003E+02</totfact>
</mgrwt>
</event>
<event>
 5    1  0.7156190E-003  0.8972858E+02  0.7546771E-02  0.1386932E+00
          2   -1    0    0  502    0  0.00000000000E+00  0.00000000000E+00  0.26247853010E+04  0.26247853010E+04  0.00000000000E+00 0. -1.
         -1   -1    0    0    0  501 -0.00000000000E+00 -0.00000000000E+00 -0.22042072123E+03  0.22042072123E+03  0.00000000000E+00 0.  1.
         25    1    1    2    0    0  0.52184471954E+02 -0.10853011321E+03 -0.17535690005E+02  0.17445487958E+03  0.12500000000E+03 0.  0.
          2    1    1    2  502    0 -0.13236711906E+02  0.88536209603E+02  0.25416620847E+04  0.25432380981E+04  0.00000000000E+00 0. -1.
         -1    1    1    2    0  501 -0.38947760048E+02  0.19993903606E+02 -0.11976181495E+03  0.12751304449E+03  0.00000000000E+00 0.  1.
<mgrwt>
<rscale>  0 0.62676256E+02</rscale>
<asrwt>0</asrwt>
<pdfrwt beam="1">  1        2 0.40381310E+00 0.89728583E+02</pdfrwt>
<pdfrwt beam="2">  1       -1 0.33910882E-01 0.43779952E+02</pdfrwt>
<totfact> 0.36978886E+01</totfact>
</mgrwt>
</event>
<event>
 5    1  0.7156190E-003  0.3632729E+03  0.7546771E-02  0.1308852E+00
          2   -1    0    0  501    0  0.00000000000E+00  0.00000000000E+00  0.21227096697E+04  0.21227096697E+04  0.00000000000E+00 0. -1.
          1   -1    0    0  502    0 -0.00000000000E+00 -0.00000000000E+00 -0.15004922578E+03  0.15004922578E+03  0.00000000000E+00 0. -1.
         25    1    1    2    0    0 -0.10918447553E+03 -0.35266187459E+03  0.83788628111E+03  0.92410500895E+03  0.12500000000E+03 0.  0.
          2    1    1    2  501    0  0.20990292387E+02  0.22284118797E+01  0.93598568187E+03  0.93622366711E+03  0.00000000000E+00 0. -1.
          1    1    1    2  502    0  0.88194183141E+02  0.35043346272E+03  0.19878848094E+03  0.41243021941E+03  0.00000000000E+00 0. -1.
<mgrwt>
<rscale>  0 0.87567429E+02</rscale>
<asrwt>0</asrwt>
<pdfrwt beam="1">  1        2 0.32657070E+00 0.21108249E+02</pdfrwt>
<pdfrwt beam="2">  1        1 0.23084498E-01 0.36327288E+03</pdfrwt>
<totfact> 0.25252930E+02</totfact>
</mgrwt>
</event>
<event>
 5    1  0.2012943E-002  0.9375084E+02  0.7546771E-02  0.1336520E+00
          1   -1    0    0  502    0  0.00000000000E+00  0.00000000000E+00  0.43341087519E+03  0.43341087519E+03  0.00000000000E+00 0. -1.
         -2   -1    0    0    0  501 -0.00000000000E+00 -0.00000000000E+00 -0.65390739292E+02  0.65390739292E+02  0.00000000000E+00 0.  1.
         25    1    1    2    0    0 -0.29911685643E+02  0.12772727843E+03  0.22196032172E+03  0.28653158815E+03  0.12500000000E+03 0.  0.
          1    1    1    2  502    0  0.45849278238E+02 -0.44571426294E+02  0.91193835766E+02  0.11137811292E+03  0.00000000000E+00 0. -1.
         -2    1    1    2    0  501 -0.15937592595E+02 -0.83155852140E+02  0.54865978419E+02  0.10089191341E+03  0.00000000000E+00 0.  1.
<mgrwt>
<rscale>  0 0.77425804E+02</rscale>
<asrwt>0</asrwt>
<pdfrwt beam="1">  1        1 0.66678594E-01 0.63943478E+02</pdfrwt>
<pdfrwt beam="2">  1       -2 0.10060114E-01 0.93750845E+02</pdfrwt>
<totfact> 0.30240145E+03</totfact>
</mgrwt>
</event>
<event>
 5    1  0.7156190E-003  0.1589893E+03  0.7546771E-02  0.1194957E+00
          1   -1    0    0  502    0  0.00000000000E+00  0.00000000000E+00  0.96643334129E+03  0.96643334129E+03  0.00000000000E+00 0. -1.
          1   -1    0    0  501    0 -0.00000000000E+00 -0.00000000000E+00 -0.33244390826E+03  0.33244390826E+03  0.00000000000E+00 0. -1.
         25    1    1    2    0    0  0.18244510580E+02  0.71087598850E+02  0.36542001629E+03  0.39311969829E+03  0.12500000000E+03 0.  0.
          1    1    1    2  501    0  0.12775055438E+03 -0.10675950936E+03 -0.28613978398E+03  0.33104950228E+03  0.00000000000E+00 0. -1.
          1    1    1    2  502    0 -0.14599506496E+03  0.35671910512E+02  0.55470920073E+03  0.57470804898E+03  0.00000000000E+00 0. -1.
<mgrwt>
<rscale>  0 0.15457839E+03</rscale>
<asrwt>0</asrwt>
<pdfrwt beam="1">  1        1 0.14868205E+00 0.15028987E+03</pdfrwt>
<pdfrwt beam="2">  1        1 0.51145217E-01 0.15898929E+03</pdfrwt>
<totfact> 0.16293499E+02</totfact>
</mgrwt>
</event>
<event>
 5    1  0.7156190E-003  0.7601920E+02  0.7546771E-02  0.1371508E+00
         -2   -1    0    0    0  501 -0.00000000000E+00  0.00000000000E+00  0.67869159143E+02  0.67869159143E+02  0.00000000000E+00 0.  1.
          2   -1    0    0  502    0  0.00000000000E+00 -0.00000000000E+00 -0.85492407523E+03  0.85492407523E+03  0.00000000000E+00 0. -1.
         25    1    1    2    0    0  0.16210678919E+02 -0.29515880877E+02 -0.33236826634E+03  0.35668983418E+03  0.12500000000E+03 0.  0.
          2    1    1    2  502    0  0.58610140487E+02  0.20666730480E+00 -0.47866934277E+03  0.48224426485E+03  0.00000000000E+00 0. -1.
         -2    1    1    2    0  501 -0.74820819406E+02  0.29309213573E+02  0.23982693017E+02  0.83859135347E+02  0.00000000000E+00 0.  1.
<mgrwt>
<rscale>  0 0.66749707E+02</rscale>
<asrwt>0</asrwt>
<pdfrwt beam="2">  1        2 0.13152679E+00 0.58610505E+02</pdfrwt>
<pdfrwt beam="1">  1       -2 0.10441409E-01 0.76019195E+02</pdfrwt>
<totfact> 0.19885021E+03</totfact>
</mgrwt>
</event>
<event>
 5    1  0.7156190E-003  0.4332437E+02  0.7546771E-02  0.1524118E+00
          1   -1    0    0  502    0 -0.00000000000E+00  0.00000000000E+00  0.33843442655E+03  0.33843442655E+03  0.00000000000E+00 0. -1.
          2   -1    0    0  501    0  0.00000000000E+00 -0.00000000000E+00 -0.93438197419E+03  0.93438197419E+03  0.00000000000E+00 0. -1.
         25    1    1    2    0    0 -0.83114878022E+01  0.12400611899E+02 -0.22793797783E+02  0.12793519149E+03  0.12500000000E+03 0.  0.
          2    1    1    2  501    0  0.41474609480E+02 -0.13632415415E+02 -0.85749713918E+03  0.85860778571E+03  0.00000000000E+00 0. -1.
          1    1    1    2  502    0 -0.33163121678E+02  0.12318035162E+01  0.28434338932E+03  0.28627342354E+03  0.00000000000E+00 0. -1.
<mgrwt>
<rscale>  0 0.37917832E+02</rscale>
<asrwt>0</asrwt>
<pdfrwt beam="2">  1        2 0.14375107E+00 0.43324366E+02</pdfrwt>
<pdfrwt beam="1">  1        1 0.52066835E-01 0.33185991E+02</pdfrwt>
<totfact> 0.32571128E+02</totfact>
</mgrwt>
</event>
<event>
 5    1  0.7156190E-003  0.4008838E+02  0.7546771E-02  0.1551123E+00
          1   -1    0    0  502    0  0.00000000000E+00  0.00000000000E+00  0.27930763568E+03  0.27930763568E+03  0.00000000000E+00 0. -1.
         -2   -1    0    0    0  501 -0.00000000000E+00 -0.00000000000E+00 -0.41283516410E+02  0.41283516410E+02  0.00000000000E+00 0.  1.
         25    1    1    2    0    0  0.20386810326E+02 -0.18957247235E+02  0.13450080842E+03  0.18571609172E+03  0.12500000000E+03 0.  0.
          1    1    1    2  502    0 -0.43690245793E+02 -0.41047337442E-01  0.93462410032E+02  0.10317006034E+03  0.00000000000E+00 0. -1.
         -2    1    1    2    0  501  0.23303435467E+02  0.18998294573E+02  0.10060900813E+02  0.31705000022E+02  0.00000000000E+00 0.  1.
<mgrwt>
<rscale>  0 0.34717592E+02</rscale>
<asrwt>0</asrwt>
<pdfrwt beam="1">  1        1 0.42970404E-01 0.40088380E+02</pdfrwt>
<pdfrwt beam="2">  1       -2 0.63513104E-02 0.30066348E+02</pdfrwt>
<totfact> 0.92511848E+03</totfact>
</mgrwt>
</event>
<event>
 5    1  0.7156190E-003  0.9826981E+02  0.7546771E-02  0.1393309E+00
         -2   -1    0    0    0  501 -0.00000000000E+00  0.00000000000E+00  0.18424862241E+03  0.18424862241E+03  0.00000000000E+00 0.  1.
          1   -1    0    0  502    0  0.00000000000E+00 -0.00000000000E+00 -0.19679257319E+04  0.19679257319E+04  0.00000000000E+00 0. -1.
         25    1    1    2    0    0 -0.15136429388E+02  0.61213884214E+02 -0.27582172102E+03  0.30932001698E+03  0.12500000000E+03 0.  0.
          1    1    1    2  502    0  0.15364604835E+01  0.37947121533E+02 -0.16601661982E+04  0.16606005391E+04  0.00000000000E+00 0. -1.
         -2    1    1    2    0  501  0.13599968904E+02 -0.99161005747E+02  0.15231080973E+03  0.18225379825E+03  0.00000000000E+00 0.  1.
<mgrwt>
<rscale>  0 0.61091013E+02</rscale>
<asrwt>0</asrwt>
<pdfrwt beam="2">  1        1 0.30275781E+00 0.37978214E+02</pdfrwt>
<pdfrwt beam="1">  1       -2 0.28345941E-01 0.98269808E+02</pdfrwt>
<totfact> 0.44432582E+01</totfact>
</mgrwt>
</event>
<event>
 5    1  0.7156190E-003  0.1049078E+03  0.7546771E-02  0.1419540E+00
          2   -1    0    0  502    0  0.00000000000E+00  0.00000000000E+00  0.12124363088E+04  0.12124363088E+04  0.00000000000E+00 0. -1.
          2   -1    0    0  501    0 -0.00000000000E+00 -0.00000000000E+00 -0.49165020983E+03  0.49165020983E+03  0.00000000000E+00 0. -1.
         25    1    1    2    0    0 -0.12705668586E+03  0.38289585196E+02  0.57029505099E+03  0.59872442655E+03  0.12500000000E+03 0.  0.
          2    1    1    2  501    0  0.10183287813E+03 -0.24063278238E+02 -0.47136128352E+03  0.48283582720E+03  0.00000000000E+00 0. -1.
          2    1    1    2  502    0  0.25223807724E+02 -0.14226306958E+02  0.62185233150E+03  0.62252626489E+03  0.00000000000E+00 0. -1.
<mgrwt>
<rscale>  0 0.55118356E+02</rscale>
<asrwt>0</asrwt>
<pdfrwt beam="1">  1        2 0.18652866E+00 0.28959080E+02</pdfrwt>
<pdfrwt beam="2">  1        2 0.75638494E-01 0.10490779E+03</pdfrwt>
<totfact> 0.22805850E+02</totfact>
</mgrwt>
</event>
<event>
 5    1  0.7156190E-003  0.7623578E+02  0.7546771E-02  0.1379114E+00
          2   -1    0    0  501    0  0.00000000000E+00  0.00000000000E+00  0.26367502592E+04  0.26367502592E+04  0.00000000000E+00 0. -1.
          2   -1    0    0  502    0 -0.00000000000E+00 -0.00000000000E+00 -0.17758926775E+03  0.17758926775E+03  0.00000000000E+00 0. -1.
         25    1    1    2    0    0  0.21572453432E+02 -0.12504730778E+03  0.56424347334E+01  0.17821065344E+03  0.12500000000E+03 0.  0.
          2    1    1    2  501    0 -0.28093896856E+02  0.70530810256E+02  0.25359498219E+04  0.25370859980E+04  0.00000000000E+00 0. -1.
          2    1    1    2  502    0  0.65214434246E+01  0.54516497522E+02 -0.82431265114E+02  0.99042875537E+02  0.00000000000E+00 0. -1.
<mgrwt>
<rscale>  0 0.64697286E+02</rscale>
<asrwt>0</asrwt>
<pdfrwt beam="1">  1        2 0.40565386E+00 0.76235785E+02</pdfrwt>
<pdfrwt beam="2">  1        2 0.27321428E-01 0.54905170E+02</pdfrwt>
<totfact> 0.11645232E+02</totfact>
</mgrwt>
</event>
<event>
 5    1  0.7156190E-003  0.3560741E+02  0.7546771E-02  0.1549495E+00
          1   -1    0    0  502    0  0.00000000000E+00  0.00000000000E+00  0.12327947560E+04  0.12327947560E+04  0.00000000000E+00 0. -1.
         -2   -1    0    0    0  501 -0.00000000000E+00 -0.00000000000E+00 -0.93221468835E+01  0.93221468835E+01  0.00000000000E+00 0.  1.
         25    1    1    2    0    0  0.89373848571E+01 -0.22539516643E+02  0.62751476784E+03  0.64030281158E+03  0.12500000000E+03 0.  0.
          1    1    1    2  502    0  0.31172017539E+02  0.17210267600E+02  0.40797817442E+03  0.40952909395E+03  0.00000000000E+00 0. -1.
         -2    1    1    2    0  501 -0.40109402396E+02  0.53292490434E+01  0.18797966682E+03  0.19228499732E+03  0.00000000000E+00 0.  1.
<mgrwt>
<rscale>  0 0.34899483E+02</rscale>
<asrwt>0</asrwt>
<pdfrwt beam="1">  1        1 0.18966060E+00 0.35607415E+02</pdfrwt>
<pdfrwt beam="2">  1       -2 0.14341774E-02 0.34205625E+02</pdfrwt>
<totfact> 0.10415640E+04</totfact>
</mgrwt>
</event>
<event>
 5    1  0.7156190E-003  0.5534208E+02  0.7546771E-02  0.1446865E+00
          1   -1    0    0  502    0 -0.00000000000E+00  0.00000000000E+00  0.14046081848E+04  0.14046081848E+04  0.00000000000E+00 0. -1.
          2   -1    0    0  501    0  0.00000000000E+00 -0.00000000000E+00 -0.28244964182E+03  0.28244964182E+03  0.00000000000E+00 0. -1.
         25    1    1    2    0    0 -0.66790714191E+02  0.17684445576E+02  0.53189942724E+02  0.15240705077E+03  0.12500000000E+03 0.  0.
          2    1    1    2  501    0  0.50066250126E+02  0.23732836640E+02 -0.22915542019E+03  0.23575852803E+03  0.00000000000E+00 0. -1.
          1    1    1    2  502    0  0.16724464065E+02 -0.41417282216E+02  0.12981240204E+04  0.12988922478E+04  0.00000000000E+00 0. -1.
<mgrwt>
<rscale>  0 0.49718597E+02</rscale>
<asrwt>0</asrwt>
<pdfrwt beam="2">  1        2 0.43453792E-01 0.55342084E+02</pdfrwt>
<pdfrwt beam="1">  1        1 0.21609356E+00 0.44666531E+02</pdfrwt>
<totfact> 0.15357391E+02</totfact>
</mgrwt>
</event>
<event>
 5    1  0.7156190E-003  0.5175247E+02  0.7546771E-02  0.1485754E+00
          1   -1    0    0  502    0 -0.00000000000E+00  0.00000000000E+00  0.38705575766E+03  0.38705575766E+03  0.00000000000E+00 0. -1.
          2   -1    0    0  501    0  0.00000000000E+00 -0.00000000000E+00 -0.25274372493E+04  0.25274372493E+04  0.00000000000E+00 0. -1.
         25    1    1    2    0    0 -0.52258953313E+02 -0.44915102641E+02 -0.40262134947E+03  0.42717363647E+03  0.12500000000E+03 0.  0.
          2    1    1    2  501    0  0.50789388282E+02  0.88466544135E+01 -0.21113551275E+04  0.21119844459E+04  0.00000000000E+00 0. -1.
          1    1    1    2  502    0  0.14695650310E+01  0.36068448228E+02  0.37359498532E+03  0.37533492461E+03  0.00000000000E+00 0. -1.
<mgrwt>
<rscale>  0 0.43222449E+02</rscale>
<asrwt>0</asrwt>
<pdfrwt beam="2">  1        2 0.38883649E+00 0.51752472E+02</pdfrwt>
<pdfrwt beam="1">  1        1 0.59547041E-01 0.36098374E+02</pdfrwt>
<totfact> 0.42880829E+01</totfact>
</mgrwt>
</event>
<event>
 5    1  0.7156190E-003  0.1604819E+03  0.7546771E-02  0.1214542E+00
          3   -1    0    0  502    0 -0.00000000000E+00  0.00000000000E+00  0.17383589562E+04  0.17383589562E+04  0.00000000000E+00 0. -1.
          2   -1    0    0  501    0  0.00000000000E+00 -0.00000000000E+00 -0.10609248241E+04  0.10609248241E+04  0.00000000000E+00 0. -1.
         25    1    1    2    0    0 -0.63577265718E+01  0.41751237447E+02  0.52455362929E+03  0.54089286972E+03  0.12500000000E+03 0.  0.
          2    1    1    2  501    0 -0.29246015960E+02  0.15779450994E+03 -0.10380256906E+04  0.10503579253E+04  0.00000000000E+00 0. -1.
          3    1    1    2  502    0  0.35603742532E+02 -0.19954574739E+03  0.11909061935E+04  0.12080329853E+04  0.00000000000E+00 0. -1.
<mgrwt>
<rscale>  0 0.13910234E+03</rscale>
<asrwt>0</asrwt>
<pdfrwt beam="2">  1        2 0.16321920E+00 0.16048189E+03</pdfrwt>
<pdfrwt beam="1">  1        3 0.26743984E+00 0.12057100E+03</pdfrwt>
<totfact> 0.10666420E+00</totfact>
</mgrwt>
</event>
<event>
 5    1  0.7156190E-003  0.1730289E+03  0.7546771E-02  0.1314709E+00
         -1   -1    0    0    0  501 -0.00000000000E+00  0.00000000000E+00  0.56173418734E+03  0.56173418734E+03  0.00000000000E+00 0.  1.
          1   -1    0    0  502    0  0.00000000000E+00 -0.00000000000E+00 -0.88394301761E+03  0.88394301761E+03  0.00000000000E+00 0. -1.
         25    1    1    2    0    0 -0.19033703127E+03  0.94577038057E+01 -0.19882202748E+03  0.30244475900E+03  0.12500000000E+03 0.  0.
          1    1    1    2  502    0  0.20286272136E+02 -0.36808804066E+02 -0.61803149246E+03  0.61945891435E+03  0.00000000000E+00 0. -1.
         -1    1    1    2    0  501  0.17005075913E+03  0.27351100260E+02  0.49464468968E+03  0.52377353159E+03  0.00000000000E+00 0.  1.
<mgrwt>
<rscale>  0 0.85277187E+02</rscale>
<asrwt>0</asrwt>
<pdfrwt beam="2">  1        1 0.13599123E+00 0.42028810E+02</pdfrwt>
<pdfrwt beam="1">  1       -1 0.86420644E-01 0.17302890E+03</pdfrwt>
<totfact> 0.31244511E+01</totfact>
</mgrwt>
</event>
<event>
 5    1  0.7156190E-003  0.5975355E+02  0.7546771E-02  0.1508417E+00
         -1   -1    0    0    0  501 -0.00000000000E+00  0.00000000000E+00  0.68984970207E+01  0.68984970207E+01  0.00000000000E+00 0.  1.
          2   -1    0    0  502    0  0.00000000000E+00 -0.00000000000E+00 -0.28398929428E+04  0.28398929428E+04  0.00000000000E+00 0. -1.
         25    1    1    2    0    0  0.66519519175E+02  0.71170762685E+01 -0.91355418610E+03  0.92448999462E+03  0.12500000000E+03 0.  0.
          2    1    1    2  502    0 -0.51778160452E+02 -0.29425905694E+02 -0.17253930496E+04  0.17264205853E+04  0.00000000000E+00 0. -1.
         -1    1    1    2    0  501 -0.14741358723E+02  0.22308829425E+02 -0.19404721009E+03  0.19588085988E+03  0.00000000000E+00 0.  1.
<mgrwt>
<rscale>  0 0.39972110E+02</rscale>
<asrwt>0</asrwt>
<pdfrwt beam="2">  1        2 0.43690687E+00 0.59753548E+02</pdfrwt>
<pdfrwt beam="1">  1       -1 0.10613066E-02 0.26739325E+02</pdfrwt>
<totfact> 0.43408143E+03</totfact>
</mgrwt>
</event>
<event>
 5    1  0.7156190E-003  0.1460317E+03  0.7546771E-02  0.1304116E+00
          1   -1    0    0  502    0 -0.00000000000E+00  0.00000000000E+00  0.24778759623E+03  0.24778759623E+03  0.00000000000E+00 0. -1.
          2   -1    0    0  501    0  0.00000000000E+00 -0.00000000000E+00 -0.10493762011E+04  0.10493762011E+04  0.00000000000E+00 0.  1.
         25    1    1    2    0    0 -0.70503011079E+02 -0.13454962569E+03 -0.14046568556E+03  0.24172274441E+03  0.12500000000E+03 0.  0.
          2    1    1    2  501    0  0.53724187319E+02 -0.10948549521E+02 -0.83005177394E+03  0.83186062923E+03  0.00000000000E+00 0.  1.
          1    1    1    2  502    0  0.16778823761E+02  0.14549817521E+03  0.16892885465E+03  0.22358042368E+03  0.00000000000E+00 0. -1.
<mgrwt>
<rscale>  0 0.89480123E+02</rscale>
<asrwt>0</asrwt>
<pdfrwt beam="2">  1        2 0.16144249E+00 0.54828451E+02</pdfrwt>
<pdfrwt beam="1">  1        1 0.38121168E-01 0.14603171E+03</pdfrwt>
<totfact> 0.40540922E+02</totfact>
</mgrwt>
</event>
<event>
 5    1  0.7156190E-003  0.1016471E+03  0.7546771E-02  0.1383244E+00
         -3   -1    0    0    0  501 -0.00000000000E+00  0.00000000000E+00  0.46017237999E+03  0.46017237999E+03  0.00000000000E+00 0. -1.
          1   -1    0    0  502    0  0.00000000000E+00 -0.00000000000E+00 -0.27490278090E+03  0.27490278090E+03  0.00000000000E+00 0. -1.
         25    1    1    2    0    0 -0.96851069005E+02 -0.25377287953E+02 -0.19465663076E+03  0.25207209328E+03  0.12500000000E+03 0.  0.
          1    1    1    2  502    0  0.10901967682E+03 -0.12535415476E+02  0.91761676708E+01  0.11012097270E+03  0.00000000000E+00 0. -1.
         -3    1    1    2    0  501 -0.12168607820E+02  0.37912703430E+02  0.37075006217E+03  0.37288209490E+03  0.00000000000E+00 0. -1.
<mgrwt>
<rscale>  0 0.63618814E+02</rscale>
<asrwt>0</asrwt>
<pdfrwt beam="2">  1        1 0.42292735E-01 0.10164713E+03</pdfrwt>
<pdfrwt beam="1">  1       -3 0.70795751E-01 0.39817686E+02</pdfrwt>
<totfact> 0.96346820E+01</totfact>
</mgrwt>
</event>
<event>
 5    1  0.7156190E-003  0.8121046E+02  0.7546771E-02  0.1473123E+00
         -2   -1    0    0    0  501  0.00000000000E+00  0.00000000000E+00  0.88660879670E+03  0.88660879670E+03  0.00000000000E+00 0.  1.
         -2   -1    0    0    0  502 -0.00000000000E+00 -0.00000000000E+00 -0.44594217664E+02  0.44594217664E+02  0.00000000000E+00 0.  1.
         25    1    1    2    0    0 -0.63808217866E+01  0.79598969475E+02  0.14250970675E+03  0.20569571543E+03  0.12500000000E+03 0.  0.
         -2    1    1    2    0  502  0.25151907910E+02 -0.20319333522E+00  0.42829688082E+01  0.25514771817E+02  0.00000000000E+00 0.  1.
         -2    1    1    2    0  501 -0.18771086124E+02 -0.79395776140E+02  0.69522190348E+03  0.69999252712E+03  0.00000000000E+00 0.  1.
<mgrwt>
<rscale>  0 0.45195847E+02</rscale>
<asrwt>0</asrwt>
<pdfrwt beam="1">  1       -2 0.13640134E+00 0.81210455E+02</pdfrwt>
<pdfrwt beam="2">  1       -2 0.68606495E-02 0.25152729E+02</pdfrwt>
<totfact> 0.26927866E+02</totfact>
</mgrwt>
</event>
<event>
 5    1  0.7156190E-003  0.5967645E+02  0.7546771E-02  0.1477265E+00
          2   -1    0    0  501    0  0.00000000000E+00  0.00000000000E+00  0.10362389393E+04  0.10362389393E+04  0.00000000000E+00 0. -1.
          1   -1    0    0  502    0 -0.00000000000E+00 -0.00000000000E+00 -0.42515666986E+03  0.42515666986E+03  0.00000000000E+00 0. -1.
         25    1    1    2    0    0 -0.57407684526E+02  0.65092830469E+02  0.50871053734E+02  0.16045430168E+03  0.12500000000E+03 0.  0.
          2    1    1    2  501    0  0.82755675213E+01 -0.32188681507E+02  0.92791658700E+03  0.92851159856E+03  0.00000000000E+00 0. -1.
          1    1    1    2  502    0  0.49132117005E+02 -0.32904148962E+02 -0.36770537134E+03  0.37242970887E+03  0.00000000000E+00 0. -1.
<mgrwt>
<rscale>  0 0.44535094E+02</rscale>
<asrwt>0</asrwt>
<pdfrwt beam="1">  1        2 0.15942137E+00 0.33235467E+02</pdfrwt>
<pdfrwt beam="2">  1        1 0.65408719E-01 0.59676447E+02</pdfrwt>
<totfact> 0.21914533E+02</totfact>
</mgrwt>
</event>
<event>
 5    1  0.7156190E-003  0.9216645E+02  0.7546771E-02  0.1436145E+00
          1   -1    0    0  502    0 -0.00000000000E+00  0.00000000000E+00  0.35289951596E+03  0.35289951596E+03  0.00000000000E+00 0. -1.
          2   -1    0    0  501    0  0.00000000000E+00 -0.00000000000E+00 -0.12547835460E+04  0.12547835460E+04  0.00000000000E+00 0. -1.
         25    1    1    2    0    0 -0.40016425090E+02  0.10403868172E+03 -0.95886607147E+02  0.19298860848E+03  0.12500000000E+03 0.  0.
          2    1    1    2  501    0 -0.96918592396E+01 -0.27388045324E+02 -0.11032945882E+04  0.11036770295E+04  0.00000000000E+00 0. -1.
          1    1    1    2  502    0  0.49708284330E+02 -0.76650636401E+02  0.29729716524E+03  0.31101742403E+03  0.00000000000E+00 0. -1.
<mgrwt>
<rscale>  0 0.51746004E+02</rscale>
<asrwt>0</asrwt>
<pdfrwt beam="2">  1        2 0.19304362E+00 0.29052318E+02</pdfrwt>
<pdfrwt beam="1">  1        1 0.54292233E-01 0.92166448E+02</pdfrwt>
<totfact> 0.21291372E+02</totfact>
</mgrwt>
</event>
<event>
 5    1  0.7156190E-003  0.4469628E+02  0.7546771E-02  0.1554082E+00
         -1   -1    0    0    0  501 -0.00000000000E+00  0.00000000000E+00  0.22344119461E+02  0.22344119461E+02  0.00000000000E+00 0.  1.
          1   -1    0    0  502    0  0.00000000000E+00 -0.00000000000E+00 -0.92469366430E+03  0.92469366430E+03  0.00000000000E+00 0. -1.
         25    1    1    2    0    0  0.49904441402E+02  0.35895581756E+02 -0.25530615793E+03  0.29083531480E+03  0.12500000000E+03 0.  0.
          1    1    1    2  502    0 -0.26134190072E+02 -0.41439326515E+01 -0.55913056787E+03  0.55975633985E+03  0.00000000000E+00 0. -1.
         -1    1    1    2    0  501 -0.23770251330E+02 -0.31751649105E+02 -0.87912819044E+02  0.96446129116E+02  0.00000000000E+00 0.  1.
<mgrwt>
<rscale>  0 0.34390324E+02</rscale>
<asrwt>0</asrwt>
<pdfrwt beam="2">  1        1 0.14226058E+00 0.26460689E+02</pdfrwt>
<pdfrwt beam="1">  1       -1 0.34375564E-02 0.44696280E+02</pdfrwt>
<totfact> 0.53172887E+03</totfact>
</mgrwt>
</event>
<event>
 5    1  0.7156190E-003  0.3392981E+02  0.7546771E-02  0.1629606E+00
          2   -1    0    0  501    0  0.00000000000E+00  0.00000000000E+00  0.41267601342E+03  0.41267601342E+03  0.00000000000E+00 0. -1.
          2   -1    0    0  502    0 -0.00000000000E+00 -0.00000000000E+00 -0.17351978020E+04  0.17351978020E+04  0.00000000000E+00 0. -1.
         25    1    1    2    0    0 -0.30886425235E+02  0.46170077447E+02 -0.28755017887E+03  0.31842699741E+03  0.12500000000E+03 0.  0.
          2    1    1    2  501    0  0.13697738529E+02 -0.17236795970E+02  0.39673464473E+03  0.39734508114E+03  0.00000000000E+00 0. -1.
          2    1    1    2  502    0  0.17188686706E+02 -0.28933281478E+02 -0.14317062544E+04  0.14321017369E+04  0.00000000000E+00 0. -1.
<mgrwt>
<rscale>  0 0.27331715E+02</rscale>
<asrwt>0</asrwt>
<pdfrwt beam="1">  1        2 0.63488618E-01 0.22016702E+02</pdfrwt>
<pdfrwt beam="2">  1        2 0.26695350E+00 0.33929815E+02</pdfrwt>
<totfact> 0.15160016E+02</totfact>
</mgrwt>
</event>
<event>
 5    1  0.7156190E-003  0.4250398E+02  0.7546771E-02  0.1596949E+00
          2   -1    0    0  502    0  0.00000000000E+00  0.00000000000E+00  0.23962199186E+04  0.23962199186E+04  0.00000000000E+00 0. -1.
         -1   -1    0    0    0  501 -0.00000000000E+00 -0.00000000000E+00 -0.55582209381E+01  0.55582209381E+01  0.00000000000E+00 0.  1.
         25    1    1    2    0    0  0.33424002832E+02  0.30773190880E+02  0.16723673763E+04  0.16776476968E+04  0.12500000000E+03 0.  0.
          2    1    1    2  502    0 -0.14367993346E+02 -0.40335500711E+02  0.66966641142E+03  0.67103389962E+03  0.00000000000E+00 0. -1.
         -1    1    1    2    0  501 -0.19056009486E+02  0.95623098305E+01  0.48627909936E+02  0.53096543122E+02  0.00000000000E+00 0.  1.
<mgrwt>
<rscale>  0 0.30103349E+02</rscale>
<asrwt>0</asrwt>
<pdfrwt beam="1">  1        2 0.36864839E+00 0.42503980E+02</pdfrwt>
<pdfrwt beam="2">  1       -1 0.85511282E-03 0.21320630E+02</pdfrwt>
<totfact> 0.98814195E+03</totfact>
</mgrwt>
</event>
<event>
 5    1  0.7156190E-003  0.4159351E+03  0.7546771E-02  0.1038397E+00
          2   -1    0    0  502    0  0.00000000000E+00  0.00000000000E+00  0.75657623614E+03  0.75657623614E+03  0.00000000000E+00 0. -1.
         -3   -1    0    0    0  501 -0.00000000000E+00 -0.00000000000E+00 -0.57166088232E+02  0.57166088232E+02  0.00000000000E+00 0.  1.
         25    1    1    2    0    0  0.14686549076E+03 -0.98647617458E+02  0.30560391410E+03  0.37459254814E+03  0.12500000000E+03 0.  0.
          2    1    1    2  502    0 -0.44842070872E+02  0.38974051684E+02  0.22744630896E+03  0.23507788387E+03  0.00000000000E+00 0. -1.
         -3    1    1    2    0  501 -0.10202341989E+03  0.59673565774E+02  0.16635992484E+03  0.20407189236E+03  0.00000000000E+00 0.  1.
<mgrwt>
<rscale>  0 0.41593511E+03</rscale>
<asrwt>0</asrwt>
<pdfrwt beam="1">  1        2 0.11639634E+00 0.41593511E+03</pdfrwt>
<pdfrwt beam="2">  1       -3 0.87947834E-02 0.41593511E+03</pdfrwt>
<totfact> 0.22577294E+03</totfact>
</mgrwt>
</event>
<event>
 5    1  0.7156190E-003  0.9307481E+02  0.7546771E-02  0.1409542E+00
          2   -1    0    0  502    0  0.00000000000E+00  0.00000000000E+00  0.47516177812E+03  0.47516177812E+03  0.00000000000E+00 0. -1.
          2   -1    0    0  501    0 -0.00000000000E+00 -0.00000000000E+00 -0.82606326880E+02  0.82606326880E+02  0.00000000000E+00 0.  1.
         25    1    1    2    0    0 -0.57177339055E+02 -0.55174159663E+02  0.54296553146E+02  0.15775471999E+03  0.12500000000E+03 0.  0.
          2    1    1    2  501    0 -0.30494700851E+02  0.17723446828E+02 -0.11809423986E+02  0.37195562132E+02  0.00000000000E+00 0.  1.
          2    1    1    2  502    0  0.87672039906E+02  0.37450712836E+02  0.35006832208E+03  0.36281782287E+03  0.00000000000E+00 0. -1.
<mgrwt>
<rscale>  0 0.57296131E+02</rscale>
<asrwt>0</asrwt>
<pdfrwt beam="1">  1        2 0.73101811E-01 0.93074805E+02</pdfrwt>
<pdfrwt beam="2">  1        2 0.12708666E-01 0.35271055E+02</pdfrwt>
<totfact> 0.43740029E+03</totfact>
</mgrwt>
</event>
<event>
 5    1  0.7156190E-003  0.5593233E+02  0.7546771E-02  0.1436309E+00
         -3   -1    0    0    0  501 -0.00000000000E+00  0.00000000000E+00  0.44327148840E+02  0.44327148840E+02  0.00000000000E+00 0.  1.
          1   -1    0    0  502    0  0.00000000000E+00 -0.00000000000E+00 -0.46637565534E+03  0.46637565534E+03  0.00000000000E+00 0. -1.
         25    1    1    2    0    0  0.65745014539E+02  0.46594980599E+02 -0.26923128286E+03  0.30757760455E+03  0.12500000000E+03 0.  0.
          1    1    1    2  502    0 -0.11273877230E+02 -0.46465985922E+02 -0.13890692533E+03  0.14690582718E+03  0.00000000000E+00 0. -1.
         -3    1    1    2    0  501 -0.54471137309E+02 -0.12899467623E+00 -0.13910298318E+02  0.56219372450E+02  0.00000000000E+00 0.  1.
<mgrwt>
<rscale>  0 0.51714159E+02</rscale>
<asrwt>0</asrwt>
<pdfrwt beam="2">  1        1 0.71750098E-01 0.47814100E+02</pdfrwt>
<pdfrwt beam="1">  1       -3 0.68195617E-02 0.55932335E+02</pdfrwt>
<totfact> 0.32480189E+03</totfact>
</mgrwt>
</event>
<event>
 5    1  0.7156190E-003  0.7333975E+02  0.7546771E-02  0.1434439E+00
          3   -1    0    0  502    0  0.00000000000E+00  0.00000000000E+00  0.72636279719E+02  0.72636279719E+02  0.00000000000E+00 0. -1.
         -2   -1    0    0    0  501 -0.00000000000E+00 -0.00000000000E+00 -0.14015644394E+04  0.14015644394E+04  0.00000000000E+00 0.  1.
         25    1    1    2    0    0  0.58040779980E+02 -0.42628901611E+02 -0.44264587512E+03  0.46556022828E+03  0.12500000000E+03 0.  0.
          3    1    1    2  502    0 -0.27069462534E+02 -0.25197377772E+02  0.53976274796E+02  0.65430129828E+02  0.00000000000E+00 0. -1.
         -2    1    1    2    0  501 -0.30971317446E+02  0.67826279382E+02 -0.94025855937E+03  0.94321036103E+03  0.00000000000E+00 0.  1.
<mgrwt>
<rscale>  0 0.52079230E+02</rscale>
<asrwt>0</asrwt>
<pdfrwt beam="1">  1        3 0.11174813E-01 0.36981937E+02</pdfrwt>
<pdfrwt beam="2">  1       -2 0.21562529E+00 0.73339754E+02</pdfrwt>
<totfact> 0.25403531E+01</totfact>
</mgrwt>
</event>
<event>
 5    1  0.7156190E-003  0.1250111E+03  0.7546771E-02  0.1247841E+00
          3   -1    0    0  502    0 -0.00000000000E+00  0.00000000000E+00  0.64281765976E+03  0.64281765976E+03  0.00000000000E+00 0. -1.
          2   -1    0    0  501    0  0.00000000000E+00 -0.00000000000E+00 -0.36142690896E+03  0.36142690896E+03  0.00000000000E+00 0. -1.
         25    1    1    2    0    0  0.30053099055E+02  0.12917020962E+03  0.75732769604E+02  0.19735395665E+03  0.12500000000E+03 0.  0.
          2    1    1    2  501    0 -0.11440372310E+03 -0.58847988546E+02 -0.28044015585E+03  0.30854169674E+03  0.00000000000E+00 0. -1.
          3    1    1    2  502    0  0.84350624046E+02 -0.70322221069E+02  0.48609813705E+03  0.49834891532E+03  0.00000000000E+00 0. -1.
<mgrwt>
<rscale>  0 0.11716916E+03</rscale>
<asrwt>0</asrwt>
<pdfrwt beam="2">  1        2 0.55604140E-01 0.12501111E+03</pdfrwt>
<pdfrwt beam="1">  1        3 0.98895024E-01 0.10981914E+03</pdfrwt>
<totfact> 0.50821238E+01</totfact>
</mgrwt>
</event>
<event>
 5    1  0.7156190E-003  0.3519353E+02  0.7546771E-02  0.1549197E+00
         -1   -1    0    0    0  501 -0.00000000000E+00  0.00000000000E+00  0.13185326071E+02  0.13185326071E+02  0.00000000000E+00 0.  1.
          2   -1    0    0  502    0  0.00000000000E+00 -0.00000000000E+00 -0.82227048028E+03  0.82227048028E+03  0.00000000000E+00 0. -1.
         25    1    1    2    0    0  0.11593039183E+02  0.93967287708E+01 -0.54568787076E+03  0.56002049013E+03  0.12500000000E+03 0.  0.
          2    1    1    2  502    0 -0.44414178700E+02  0.17873271668E+01 -0.17290854151E+03  0.17853060671E+03  0.00000000000E+00 0. -1.
         -1    1    1    2    0  501  0.32821139518E+02 -0.11184055938E+02 -0.90488741943E+02  0.96904709508E+02  0.00000000000E+00 0.  1.
<mgrwt>
<rscale>  0 0.34932973E+02</rscale>
<asrwt>0</asrwt>
<pdfrwt beam="2">  1        2 0.12650315E+00 0.35193528E+02</pdfrwt>
<pdfrwt beam="1">  1       -1 0.20285117E-02 0.34674347E+02</pdfrwt>
<totfact> 0.21454810E+04</totfact>
</mgrwt>
</event>
<event>
 5    1  0.7156190E-003  0.3797166E+02  0.7546771E-02  0.1549184E+00
          1   -1    0    0  502    0  0.00000000000E+00  0.00000000000E+00  0.16250501997E+04  0.16250501997E+04  0.00000000000E+00 0. -1.
         -2   -1    0    0    0  501 -0.00000000000E+00 -0.00000000000E+00 -0.66074295268E+01  0.66074295268E+01  0.00000000000E+00 0.  1.
         25    1    1    2    0    0  0.11529105815E+02  0.84454170487E+01  0.99481002211E+03  0.10027343743E+04  0.12500000000E+03 0.  0.
          1    1    1    2  502    0 -0.22735559112E+02 -0.38568415362E+02  0.45931162446E+03  0.46148845779E+03  0.00000000000E+00 0. -1.
         -2    1    1    2    0  501  0.11206453297E+02  0.30122998313E+02  0.16432112360E+03  0.16743479711E+03  0.00000000000E+00 0.  1.
<mgrwt>
<rscale>  0 0.34934355E+02</rscale>
<asrwt>0</asrwt>
<pdfrwt beam="1">  1        1 0.25000741E+00 0.37971661E+02</pdfrwt>
<pdfrwt beam="2">  1       -2 0.10165289E-02 0.32140000E+02</pdfrwt>
<totfact> 0.93753281E+03</totfact>
</mgrwt>
</event>
<event>
 5    1  0.7156190E-003  0.4719058E+02  0.7546771E-02  0.1470043E+00
          1   -1    0    0  501    0  0.00000000000E+00  0.00000000000E+00  0.67561263253E+03  0.67561263253E+03  0.00000000000E+00 0. -1.
          1   -1    0    0  502    0 -0.00000000000E+00 -0.00000000000E+00 -0.20783131846E+02  0.20783131846E+02  0.00000000000E+00 0. -1.
         25    1    1    2    0    0 -0.15870645801E+02  0.10986280845E+02  0.31086129316E+03  0.33560738870E+03  0.12500000000E+03 0.  0.
          1    1    1    2  501    0 -0.41242978688E+02 -0.22933982832E+02  0.19897718374E+03  0.20449662714E+03  0.00000000000E+00 0. -1.
          1    1    1    2  502    0  0.57113624488E+02  0.11947701987E+02  0.14499102378E+03  0.15629174854E+03  0.00000000000E+00 0. -1.
<mgrwt>
<rscale>  0 0.45695905E+02</rscale>
<asrwt>0</asrwt>
<pdfrwt beam="1">  1        1 0.10394039E+00 0.47190580E+02</pdfrwt>
<pdfrwt beam="2">  1        1 0.31974054E-02 0.44248571E+02</pdfrwt>
<totfact> 0.96582919E+03</totfact>
</mgrwt>
</event>
<event>
 5    1  0.7156190E-003  0.1018521E+03  0.7546771E-02  0.1283445E+00
         -3   -1    0    0    0  501 -0.00000000000E+00  0.00000000000E+00  0.51044582453E+03  0.51044582453E+03  0.00000000000E+00 0.  1.
          2   -1    0    0  502    0  0.00000000000E+00 -0.00000000000E+00 -0.11422836611E+04  0.11422836611E+04  0.00000000000E+00 0. -1.
         25    1    1    2    0    0  0.34374782544E+02  0.87969238763E+02 -0.20025821762E+03  0.25426082350E+03  0.12500000000E+03 0.  0.
          2    1    1    2  502    0 -0.10459298651E+03 -0.23549729755E+02 -0.90714082554E+03  0.91345430097E+03  0.00000000000E+00 0. -1.
         -3    1    1    2    0  501  0.70218203961E+02 -0.64419509008E+02  0.47556120659E+03  0.48501436115E+03  0.00000000000E+00 0.  1.
<mgrwt>
<rscale>  0 0.98517213E+02</rscale>
<asrwt>0</asrwt>
<pdfrwt beam="2">  1        2 0.17573595E+00 0.10185212E+03</pdfrwt>
<pdfrwt beam="1">  1       -3 0.78530127E-01 0.95291497E+02</pdfrwt>
<totfact> 0.21572103E+01</totfact>
</mgrwt>
</event>
<event>
 5    1  0.7156190E-003  0.7365000E+02  0.7546771E-02  0.1395148E+00
          2   -1    0    0  501    0  0.00000000000E+00  0.00000000000E+00  0.76529963814E+03  0.76529963814E+03  0.00000000000E+00 0. -1.
          1   -1    0    0  502    0 -0.00000000000E+00 -0.00000000000E+00 -0.46096405172E+03  0.46096405172E+03  0.00000000000E+00 0. -1.
         25    1    1    2    0    0 -0.13294601320E+02  0.77896596847E+02 -0.23881131510E+02  0.14979964842E+03  0.12500000000E+03 0.  0.
          2    1    1    2  501    0  0.48361181376E+02 -0.12438863671E+02  0.69775443485E+03  0.69953897714E+03  0.00000000000E+00 0. -1.
          1    1    1    2  502    0 -0.35066580056E+02 -0.65457733177E+02 -0.36953771692E+03  0.37692506430E+03  0.00000000000E+00 0. -1.
<mgrwt>
<rscale>  0 0.60644300E+02</rscale>
<asrwt>0</asrwt>
<pdfrwt beam="1">  1        2 0.11773841E+00 0.49935250E+02</pdfrwt>
<pdfrwt beam="2">  1        1 0.70917546E-01 0.73650000E+02</pdfrwt>
<totfact> 0.28126803E+02</totfact>
</mgrwt>
</event>
<event>
 5    1  0.7156190E-003  0.7451408E+02  0.7546771E-02  0.1444261E+00
          2   -1    0    0  502    0  0.00000000000E+00  0.00000000000E+00  0.97322032825E+03  0.97322032825E+03  0.00000000000E+00 0. -1.
         -2   -1    0    0    0  501 -0.00000000000E+00 -0.00000000000E+00 -0.21932187624E+02  0.21932187624E+02  0.00000000000E+00 0.  1.
         25    1    1    2    0    0 -0.62635479017E+02  0.41348571367E+02  0.56762742397E+03  0.58605358119E+03  0.12500000000E+03 0.  0.
          2    1    1    2  502    0 -0.12450751727E+02 -0.31445526884E+02  0.27249391687E+03  0.27458473576E+03  0.00000000000E+00 0. -1.
         -2    1    1    2    0  501  0.75086230744E+02 -0.99030444830E+01  0.11116679978E+03  0.13451419892E+03  0.00000000000E+00 0.  1.
<mgrwt>
<rscale>  0 0.50200808E+02</rscale>
<asrwt>0</asrwt>
<pdfrwt beam="1">  1        2 0.14972617E+00 0.33820739E+02</pdfrwt>
<pdfrwt beam="2">  1       -2 0.33741835E-02 0.74514076E+02</pdfrwt>
<totfact> 0.93844055E+03</totfact>
</mgrwt>
</event>
<event>
 5    1  0.7156190E-003  0.1336925E+03  0.7546771E-02  0.1327913E+00
          3   -1    0    0  502    0 -0.00000000000E+00  0.00000000000E+00  0.27315541447E+03  0.27315541447E+03  0.00000000000E+00 0. -1.
          1   -1    0    0  501    0  0.00000000000E+00 -0.00000000000E+00 -0.15213838495E+04  0.15213838495E+04  0.00000000000E+00 0. -1.
         25    1    1    2    0    0 -0.66178236355E+02  0.13049265236E+03 -0.19781344196E+03  0.27597653724E+03  0.12500000000E+03 0.  0.
          1    1    1    2  501    0 -0.29834986485E+02 -0.38052266187E+02 -0.12650170557E+04  0.12659408567E+04  0.00000000000E+00 0. -1.
          3    1    1    2  502    0  0.96013222841E+02 -0.92440386170E+02  0.21460206262E+03  0.25262187007E+03  0.00000000000E+00 0. -1.
<mgrwt>
<rscale>  0 0.80402464E+02</rscale>
<asrwt>0</asrwt>
<pdfrwt beam="2">  1        1 0.23405906E+00 0.48353918E+02</pdfrwt>
<pdfrwt beam="1">  1        3 0.42023909E-01 0.13369250E+03</pdfrwt>
<totfact> 0.24647612E+01</totfact>
</mgrwt>
</event>
<event>
 5    1  0.7156190E-003  0.6047586E+02  0.7546771E-02  0.1543289E+00
         -3   -1    0    0    0  501 -0.00000000000E+00  0.00000000000E+00  0.58826694500E+03  0.58826694500E+03  0.00000000000E+00 0.  1.
          2   -1    0    0  502    0  0.00000000000E+00 -0.00000000000E+00 -0.12677947795E+04  0.12677947795E+04  0.00000000000E+00 0. -1.
         25    1    1    2    0    0 -0.53267993755E+02  0.98919851242E+01 -0.45140720566E+02  0.14352008634E+03  0.12500000000E+03 0.  0.
          2    1    1    2  502    0  0.10399919295E+01  0.20937058210E+02 -0.11716645400E+04  0.11718520539E+04  0.00000000000E+00 0. -1.
         -3    1    1    2    0  501  0.52228001826E+02 -0.30829043334E+02  0.53727742601E+03  0.54068958431E+03  0.00000000000E+00 0.  1.
<mgrwt>
<rscale>  0 0.35605444E+02</rscale>
<asrwt>0</asrwt>
<pdfrwt beam="2">  1        2 0.19504535E+00 0.20962872E+02</pdfrwt>
<pdfrwt beam="1">  1       -3 0.90502608E-01 0.60475857E+02</pdfrwt>
<totfact> 0.14984888E+01</totfact>
</mgrwt>
</event>
<event>
 5    1  0.7156190E-003  0.1698241E+03  0.7546771E-02  0.1213199E+00
          1   -1    0    0  502    0 -0.00000000000E+00  0.00000000000E+00  0.45597864535E+03  0.45597864535E+03  0.00000000000E+00 0. -1.
          2   -1    0    0  501    0  0.00000000000E+00 -0.00000000000E+00 -0.14830112767E+04  0.14830112767E+04  0.00000000000E+00 0. -1.
         25    1    1    2    0    0  0.86603284965E+02 -0.94595106735E+02 -0.70865217538E+03  0.73093178126E+03  0.12500000000E+03 0.  0.
          2    1    1    2  501    0 -0.15099380726E+03  0.19056821850E+03 -0.73580220088E+03  0.77493241934E+03  0.00000000000E+00 0. -1.
          1    1    1    2  502    0  0.64390522291E+02 -0.95973111766E+02  0.41742174486E+03  0.43312572150E+03  0.00000000000E+00 0. -1.
<mgrwt>
<rscale>  0 0.14009631E+03</rscale>
<asrwt>0</asrwt>
<pdfrwt beam="2">  1        2 0.22815558E+00 0.16982408E+03</pdfrwt>
<pdfrwt beam="1">  1        1 0.70150562E-01 0.11557239E+03</pdfrwt>
<totfact> 0.10287420E+02</totfact>
</mgrwt>
</event>
<event>
 5    1  0.7156190E-003  0.1130577E+03  0.7546771E-02  0.1446051E+00
          2   -1    0    0  502    0  0.00000000000E+00  0.00000000000E+00  0.30636764385E+03  0.30636764385E+03  0.00000000000E+00 0. -1.
          2   -1    0    0  501    0 -0.00000000000E+00 -0.00000000000E+00 -0.17680126422E+04  0.17680126422E+04  0.00000000000E+00 0.  1.
         25    1    1    2    0    0  0.11884462327E+03 -0.66958696923E+00 -0.74609038383E+03  0.76576781969E+03  0.12500000000E+03 0.  0.
          2    1    1    2  501    0 -0.78511684976E+01 -0.20547751536E+02 -0.10011923479E+04  0.10014339561E+04  0.00000000000E+00 0.  1.
          2    1    1    2  502    0 -0.11099345477E+03  0.21217338505E+02  0.28563773337E+03  0.30717851028E+03  0.00000000000E+00 0. -1.
<mgrwt>
<rscale>  0 0.49868700E+02</rscale>
<asrwt>0</asrwt>
<pdfrwt beam="1">  1        2 0.47133483E-01 0.11305774E+03</pdfrwt>
<pdfrwt beam="2">  1        2 0.27200195E+00 0.21996612E+02</pdfrwt>
<totfact> 0.20963472E+02</totfact>
</mgrwt>
</event>
<event>
 5    1  0.7156190E-003  0.1101912E+03  0.7546771E-02  0.1330279E+00
          2   -1    0    0  501    0  0.00000000000E+00  0.00000000000E+00  0.24417587455E+04  0.24417587455E+04  0.00000000000E+00 0. -1.
          1   -1    0    0  502    0 -0.00000000000E+00 -0.00000000000E+00 -0.11345920582E+04  0.11345920582E+04  0.00000000000E+00 0. -1.
         25    1    1    2    0    0  0.14400879299E+03  0.85557619127E+02 -0.58005572031E+03  0.61656165735E+03  0.12500000000E+03 0.  0.
          2    1    1    2  501    0 -0.95264696710E+02 -0.55139451524E+02  0.24207126209E+04  0.24232138400E+04  0.00000000000E+00 0. -1.
          1    1    1    2  502    0 -0.48744096282E+02 -0.30418167604E+02 -0.53349021326E+03  0.53657530644E+03  0.00000000000E+00 0. -1.
<mgrwt>
<rscale>  0 0.79568864E+02</rscale>
<asrwt>0</asrwt>
<pdfrwt beam="1">  1        2 0.37565519E+00 0.11019122E+03</pdfrwt>
<pdfrwt beam="2">  1        1 0.17455263E+00 0.57456521E+02</pdfrwt>
<totfact> 0.94903422E+00</totfact>
</mgrwt>
</event>
<event>
 5    1  0.7156190E-003  0.1677534E+03  0.7546771E-02  0.1231253E+00
          2   -1    0    0  501    0  0.00000000000E+00  0.00000000000E+00  0.68998762285E+03  0.68998762285E+03  0.00000000000E+00 0. -1.
          3   -1    0    0  502    0 -0.00000000000E+00 -0.00000000000E+00 -0.12547691687E+03  0.12547691687E+03  0.00000000000E+00 0. -1.
         25    1    1    2    0    0  0.32437504877E+02 -0.17291536506E+03  0.34050368512E+02  0.21848648194E+03  0.12500000000E+03 0.  0.
          2    1    1    2  501    0  0.61200938945E+02  0.14811814183E+03  0.42279701258E+03  0.45215246623E+03  0.00000000000E+00 0. -1.
          3    1    1    2  502    0 -0.93638443822E+02  0.24797223222E+02  0.10766332489E+03  0.14482559155E+03  0.00000000000E+00 0. -1.
<mgrwt>
<rscale>  0 0.12747406E+03</rscale>
<asrwt>0</asrwt>
<pdfrwt beam="1">  1        2 0.10615194E+00 0.96866199E+02</pdfrwt>
<pdfrwt beam="2">  1        3 0.19304141E-01 0.16775341E+03</pdfrwt>
<totfact> 0.63998078E+02</totfact>
</mgrwt>
</event>
<event>
 5    1  0.7156190E-003  0.8292916E+02  0.7546771E-02  0.1382273E+00
          1   -1    0    0  502    0 -0.00000000000E+00  0.00000000000E+00  0.46709365667E+02  0.46709365667E+02  0.00000000000E+00 0. -1.
          2   -1    0    0  501    0  0.00000000000E+00 -0.00000000000E+00 -0.24872735139E+04  0.24872735139E+04  0.00000000000E+00 0. -1.
         25    1    1    2    0    0 -0.42610186888E+02  0.21816868432E+02 -0.89592686206E+03  0.90587060110E+03  0.12500000000E+03 0.  0.
          2    1    1    2  501    0  0.67371381599E+02 -0.64321625521E+02 -0.15700047163E+04  0.15727653938E+04  0.00000000000E+00 0. -1.
          1    1    1    2  502    0 -0.24761194711E+02  0.42504757089E+02  0.25367430116E+02  0.55346884730E+02  0.00000000000E+00 0. -1.
<mgrwt>
<rscale>  0 0.63870044E+02</rscale>
<asrwt>0</asrwt>
<pdfrwt beam="2">  1        2 0.38265749E+00 0.82929164E+02</pdfrwt>
<pdfrwt beam="1">  1        1 0.71860557E-02 0.49191169E+02</pdfrwt>
<totfact> 0.57120955E+02</totfact>
</mgrwt>
</event>
<event>
 5    1  0.7156190E-003  0.1243343E+03  0.7546771E-02  0.1258200E+00
          1   -1    0    0  502    0  0.00000000000E+00  0.00000000000E+00  0.15812980433E+04  0.15812980433E+04  0.00000000000E+00 0. -1.
         -1   -1    0    0    0  501 -0.00000000000E+00 -0.00000000000E+00 -0.27768818955E+04  0.27768818955E+04  0.00000000000E+00 0.  1.
         25    1    1    2    0    0  0.91420011911E+02 -0.19084278358E+03  0.47516444310E+03  0.53496246094E+03  0.12500000000E+03 0.  0.
          1    1    1    2  502    0 -0.31727076597E+02  0.11109564231E+03  0.10722270721E+04  0.10784339309E+04  0.00000000000E+00 0. -1.
         -1    1    1    2    0  501 -0.59692935315E+02  0.79747141273E+02 -0.27429753674E+04  0.27447835469E+04  0.00000000000E+00 0.  1.
<mgrwt>
<rscale>  0 0.11128962E+03</rscale>
<asrwt>0</asrwt>
<pdfrwt beam="1">  1        1 0.24327662E+00 0.12433433E+03</pdfrwt>
<pdfrwt beam="2">  1       -1 0.42721260E+00 0.99613518E+02</pdfrwt>
<totfact> 0.47057025E-02</totfact>
</mgrwt>
</event>
<event>
 5    1  0.7156190E-003  0.6875812E+02  0.7546771E-02  0.1372833E+00
         -1   -1    0    0    0  501 -0.00000000000E+00  0.00000000000E+00  0.47435701750E+02  0.47435701750E+02  0.00000000000E+00 0. -1.
          1   -1    0    0  502    0  0.00000000000E+00 -0.00000000000E+00 -0.21521351324E+04  0.21521351324E+04  0.00000000000E+00 0. -1.
         25    1    1    2    0    0  0.10120412857E+02  0.10921232143E+02 -0.83358582900E+03  0.84303738374E+03  0.12500000000E+03 0.  0.
          1    1    1    2  502    0  0.89654712981E+01 -0.76977327211E+02 -0.12842040698E+04  0.12865403148E+04  0.00000000000E+00 0. -1.
         -1    1    1    2    0  501 -0.19085884155E+02  0.66056095067E+02  0.13090468237E+02  0.69993135579E+02  0.00000000000E+00 0. -1.
<mgrwt>
<rscale>  0 0.66385855E+02</rscale>
<asrwt>0</asrwt>
<pdfrwt beam="2">  1        1 0.33109770E+00 0.64095439E+02</pdfrwt>
<pdfrwt beam="1">  1       -1 0.72978006E-02 0.68758117E+02</pdfrwt>
<totfact> 0.28964784E+02</totfact>
</mgrwt>
</event>
<event>
 5    1  0.7156190E-003  0.5995687E+02  0.7546771E-02  0.1411712E+00
         -2   -1    0    0    0  501 -0.00000000000E+00  0.00000000000E+00  0.53957086700E+02  0.53957086700E+02  0.00000000000E+00 0.  1.
          2   -1    0    0  502    0  0.00000000000E+00 -0.00000000000E+00 -0.32660259870E+03  0.32660259870E+03  0.00000000000E+00 0. -1.
         25    1    1    2    0    0 -0.26360643084E+02 -0.64477094706E+02 -0.10885251561E+03  0.17979446432E+03  0.12500000000E+03 0.  0.
          2    1    1    2  502    0 -0.26828472182E+02  0.56161472480E+02 -0.89744762378E+02  0.10921538484E+03  0.00000000000E+00 0. -1.
         -2    1    1    2    0  501  0.53189115266E+02  0.83156222269E+01 -0.74048234012E+02  0.91549836242E+02  0.00000000000E+00 0.  1.
<mgrwt>
<rscale>  0 0.56813657E+02</rscale>
<asrwt>0</asrwt>
<pdfrwt beam="2">  1        2 0.50246552E-01 0.59956869E+02</pdfrwt>
<pdfrwt beam="1">  1       -2 0.83010905E-02 0.53835226E+02</pdfrwt>
<totfact> 0.78358504E+03</totfact>
</mgrwt>
</event>
<event>
 5    1  0.7187420E-003  0.9530223E+02  0.7546771E-02  0.1353904E+00
          1   -1    0    0  502    0  0.00000000000E+00  0.00000000000E+00  0.24806503722E+02  0.24806503722E+02  0.00000000000E+00 0. -1.
         -2   -1    0    0    0  501 -0.00000000000E+00 -0.00000000000E+00 -0.10725230520E+04  0.10725230520E+04  0.00000000000E+00 0.  1.
         25    1    1    2    0    0 -0.11809109084E+02 -0.12111481724E+03 -0.67951507825E+03  0.70155113540E+03  0.12500000000E+03 0.  0.
          1    1    1    2  502    0  0.44342164933E+02  0.77798606801E+02 -0.20167108802E+03  0.22065828458E+03  0.00000000000E+00 0. -1.
         -2    1    1    2    0  501 -0.32533055849E+02  0.43316210439E+02 -0.16653038202E+03  0.17512013575E+03  0.00000000000E+00 0.  1.
<mgrwt>
<rscale>  0 0.71852559E+02</rscale>
<asrwt>0</asrwt>
<pdfrwt beam="1">  1        1 0.38163844E-02 0.95302233E+02</pdfrwt>
<pdfrwt beam="2">  1       -2 0.16500358E+00 0.54172814E+02</pdfrwt>
<totfact> 0.52112346E+02</totfact>
</mgrwt>
</event>
<event>
 5    1  0.7156190E-003  0.3367444E+02  0.7546771E-02  0.1615477E+00
          2   -1    0    0  501    0  0.00000000000E+00  0.00000000000E+00  0.54508037601E+03  0.54508037601E+03  0.00000000000E+00 0.  1.
          2   -1    0    0  502    0 -0.00000000000E+00 -0.00000000000E+00 -0.96046203789E+03  0.96046203789E+03  0.00000000000E+00 0. -1.
         25    1    1    2    0    0 -0.35542605611E+02  0.20744218830E+02 -0.43980381553E+02  0.13875472385E+03  0.12500000000E+03 0.  0.
          2    1    1    2  501    0  0.33517475282E+02  0.32641682262E+01  0.49695625256E+03  0.49809596756E+03  0.00000000000E+00 0.  1.
          2    1    1    2  502    0  0.20251303290E+01 -0.24008387056E+02 -0.86835753288E+03  0.86869172249E+03  0.00000000000E+00 0. -1.
<mgrwt>
<rscale>  0 0.28484033E+02</rscale>
<asrwt>0</asrwt>
<pdfrwt beam="1">  1        2 0.83858520E-01 0.33674444E+02</pdfrwt>
<pdfrwt beam="2">  1        2 0.14776339E+00 0.24093647E+02</pdfrwt>
<totfact> 0.28522350E+02</totfact>
</mgrwt>
</event>
<event>
 5    1  0.1009549E-002  0.4818177E+03  0.7546771E-02  0.1018637E+00
         -1   -1    0    0    0  501 -0.00000000000E+00  0.00000000000E+00  0.33815383796E+02  0.33815383796E+02  0.00000000000E+00 0.  1.
          2   -1    0    0  502    0  0.00000000000E+00 -0.00000000000E+00 -0.17162917230E+04  0.17162917230E+04  0.00000000000E+00 0. -1.
         25    1    1    2    0    0  0.51860193970E+02  0.18417731548E+03 -0.12434282147E+04  0.12642584737E+04  0.12500000000E+03 0.  0.
          2    1    1    2  502    0 -0.17459019488E+02 -0.15110165788E+03 -0.38380370194E+03  0.41284598823E+03  0.00000000000E+00 0. -1.
         -1    1    1    2    0  501 -0.34401174483E+02 -0.33075657594E+02 -0.55244422588E+02  0.73002644871E+02  0.00000000000E+00 0.  1.
<mgrwt>
<rscale>  0 0.48181766E+03</rscale>
<asrwt>0</asrwt>
<pdfrwt beam="2">  1        2 0.26404478E+00 0.48181766E+03</pdfrwt>
<pdfrwt beam="1">  1       -1 0.52023686E-02 0.48181766E+03</pdfrwt>
<totfact> 0.19573514E+03</totfact>
</mgrwt>
</event>
<event>
 5    1  0.7156190E-003  0.1782428E+03  0.7546771E-02  0.1242516E+00
          1   -1    0    0  502    0 -0.00000000000E+00  0.00000000000E+00  0.92858190234E+03  0.92858190234E+03  0.00000000000E+00 0. -1.
          2   -1    0    0  501    0  0.00000000000E+00 -0.00000000000E+00 -0.49195334845E+03  0.49195334845E+03  0.00000000000E+00 0. -1.
         25    1    1    2    0    0 -0.63150836481E+02 -0.11560006991E+03  0.24164263288E+03  0.30227068389E+03  0.12500000000E+03 0.  0.
          2    1    1    2  501    0  0.15438025079E+02  0.18138356645E+03 -0.44100681856E+03  0.47710097968E+03  0.00000000000E+00 0. -1.
          1    1    1    2  502    0  0.47712811402E+02 -0.65783496541E+02  0.63599273957E+03  0.64116358722E+03  0.00000000000E+00 0. -1.
<mgrwt>
<rscale>  0 0.12035316E+03</rscale>
<asrwt>0</asrwt>
<pdfrwt beam="2">  1        2 0.75685131E-01 0.17824283E+03</pdfrwt>
<pdfrwt beam="1">  1        1 0.14285875E+00 0.81264880E+02</pdfrwt>
<totfact> 0.16994772E+02</totfact>
</mgrwt>
</event>
