<event>
 3    0  0.1736715E+001  0.1250000E+03  0.7546771E-02  0.1235069E+00
         21   -1    0    0  502  501  0.00000000000E+00  0.00000000000E+00  0.54501609907E+02  0.54501609907E+02  0.00000000000E+00 0.  1.
         21   -1    0    0  501  502 -0.00000000000E+00 -0.00000000000E+00 -0.71672194761E+02  0.71672194761E+02  0.00000000000E+00 0.  1.
         25    1    1    2    0    0  0.00000000000E+00  0.00000000000E+00 -0.17170584854E+02  0.12617380467E+03  0.12500000000E+03 0.  0.
<mgrwt>
<rscale>  2 0.12500000E+03</rscale>
<asrwt>0</asrwt>
<pdfrwt beam="1">  1       21 0.83848630E-02 0.12500000E+03</pdfrwt>
<pdfrwt beam="2">  1       21 0.11026492E-01 0.12500000E+03</pdfrwt>
<totfact> 0.73882110E+06</totfact>
</mgrwt>
</event>
<event>
 3    0  0.1576120E+001  0.1250000E+03  0.7546771E-02  0.1235069E+00
         21   -1    0    0  502  501  0.00000000000E+00  0.00000000000E+00  0.12471752699E+02  0.12471752699E+02  0.00000000000E+00 0. -1.
         21   -1    0    0  501  502 -0.00000000000E+00 -0.00000000000E+00 -0.31320778197E+03  0.31320778197E+03  0.00000000000E+00 0. -1.
         25    1    1    2    0    0  0.00000000000E+00  0.00000000000E+00 -0.30073602927E+03  0.32567953467E+03  0.12500000000E+03 0.  0.
<mgrwt>
<rscale>  2 0.12500000E+03</rscale>
<asrwt>0</asrwt>
<pdfrwt beam="1">  1       21 0.19187312E-02 0.12500000E+03</pdfrwt>
<pdfrwt beam="2">  1       21 0.48185811E-01 0.12500000E+03</pdfrwt>
<totfact> 0.53386316E+06</totfact>
</mgrwt>
</event>
<event>
 3    0  0.1711736E+001  0.1250000E+03  0.7546771E-02  0.1235069E+00
         21   -1    0    0  502  501  0.00000000000E+00  0.00000000000E+00  0.58171013426E+02  0.58171013426E+02  0.00000000000E+00 0. -1.
         21   -1    0    0  501  502 -0.00000000000E+00 -0.00000000000E+00 -0.67151142295E+02  0.67151142295E+02  0.00000000000E+00 0. -1.
         25    1    1    2    0    0  0.00000000000E+00  0.00000000000E+00 -0.89801288690E+01  0.12532215572E+03  0.12500000000E+03 0.  0.
<mgrwt>
<rscale>  2 0.12500000E+03</rscale>
<asrwt>0</asrwt>
<pdfrwt beam="1">  1       21 0.89493867E-02 0.12500000E+03</pdfrwt>
<pdfrwt beam="2">  1       21 0.10330945E-01 0.12500000E+03</pdfrwt>
<totfact> 0.74000081E+06</totfact>
</mgrwt>
</event>
<event>
 3    0  0.1433569E+001  0.1250000E+03  0.7546771E-02  0.1235069E+00
         21   -1    0    0  502  501  0.00000000000E+00  0.00000000000E+00  0.77536177186E+01  0.77536177186E+01  0.00000000000E+00 0. -1.
         21   -1    0    0  501  502 -0.00000000000E+00 -0.00000000000E+00 -0.50379708437E+03  0.50379708437E+03  0.00000000000E+00 0. -1.
         25    1    1    2    0    0  0.00000000000E+00  0.00000000000E+00 -0.49604346666E+03  0.51155070209E+03  0.12500000000E+03 0.  0.
<mgrwt>
<rscale>  2 0.12500000E+03</rscale>
<asrwt>0</asrwt>
<pdfrwt beam="1">  1       21 0.11928641E-02 0.12500000E+03</pdfrwt>
<pdfrwt beam="2">  1       21 0.77507256E-01 0.12500000E+03</pdfrwt>
<totfact> 0.41424495E+06</totfact>
</mgrwt>
</event>
<event>
 3    0  0.1368989E+001  0.1250000E+03  0.7546771E-02  0.1235069E+00
         21   -1    0    0  502  501  0.00000000000E+00  0.00000000000E+00  0.78219558334E+03  0.78219558334E+03  0.00000000000E+00 0. -1.
         21   -1    0    0  501  502 -0.00000000000E+00 -0.00000000000E+00 -0.49939555825E+01  0.49939555825E+01  0.00000000000E+00 0. -1.
         25    1    1    2    0    0  0.00000000000E+00  0.00000000000E+00  0.77720162776E+03  0.78718953892E+03  0.12500000000E+03 0.  0.
<mgrwt>
<rscale>  2 0.12500000E+03</rscale>
<asrwt>0</asrwt>
<pdfrwt beam="1">  1       21 0.12033769E+00 0.12500000E+03</pdfrwt>
<pdfrwt beam="2">  1       21 0.76830148E-03 0.12500000E+03</pdfrwt>
<totfact> 0.29791698E+06</totfact>
</mgrwt>
</event>
<event>
 3    0  0.1592416E+001  0.1250000E+03  0.7546771E-02  0.1235069E+00
         21   -1    0    0  502  501  0.00000000000E+00  0.00000000000E+00  0.14291720636E+02  0.14291720636E+02  0.00000000000E+00 0. -1.
         21   -1    0    0  501  502 -0.00000000000E+00 -0.00000000000E+00 -0.27332258302E+03  0.27332258302E+03  0.00000000000E+00 0. -1.
         25    1    1    2    0    0  0.00000000000E+00  0.00000000000E+00 -0.25903086239E+03  0.28761430366E+03  0.12500000000E+03 0.  0.
<mgrwt>
<rscale>  2 0.12500000E+03</rscale>
<asrwt>0</asrwt>
<pdfrwt beam="1">  1       21 0.21987263E-02 0.12500000E+03</pdfrwt>
<pdfrwt beam="2">  1       21 0.42049627E-01 0.12500000E+03</pdfrwt>
<totfact> 0.56501441E+06</totfact>
</mgrwt>
</event>
<event>
 3    0  0.1568272E+001  0.1250000E+03  0.7546771E-02  0.1235069E+00
         21   -1    0    0  502  501  0.00000000000E+00  0.00000000000E+00  0.13755279969E+02  0.13755279969E+02  0.00000000000E+00 0. -1.
         21   -1    0    0  501  502 -0.00000000000E+00 -0.00000000000E+00 -0.28398186070E+03  0.28398186070E+03  0.00000000000E+00 0. -1.
         25    1    1    2    0    0  0.00000000000E+00  0.00000000000E+00 -0.27022658073E+03  0.29773714067E+03  0.12500000000E+03 0.  0.
<mgrwt>
<rscale>  2 0.12500000E+03</rscale>
<asrwt>0</asrwt>
<pdfrwt beam="1">  1       21 0.21161971E-02 0.12500000E+03</pdfrwt>
<pdfrwt beam="2">  1       21 0.43689513E-01 0.12500000E+03</pdfrwt>
<totfact> 0.55644753E+06</totfact>
</mgrwt>
</event>
<event>
 3    0  0.1368989E+001  0.1250000E+03  0.7546771E-02  0.1235069E+00
         21   -1    0    0  502  501  0.00000000000E+00  0.00000000000E+00  0.41478288147E+01  0.41478288147E+01  0.00000000000E+00 0. -1.
         21   -1    0    0  501  502 -0.00000000000E+00 -0.00000000000E+00 -0.94175776640E+03  0.94175776640E+03  0.00000000000E+00 0. -1.
         25    1    1    2    0    0  0.00000000000E+00  0.00000000000E+00 -0.93760993759E+03  0.94590559522E+03  0.12500000000E+03 0.  0.
<mgrwt>
<rscale>  2 0.12500000E+03</rscale>
<asrwt>0</asrwt>
<pdfrwt beam="1">  1       21 0.63812732E-03 0.12500000E+03</pdfrwt>
<pdfrwt beam="2">  1       21 0.14488585E+00 0.12500000E+03</pdfrwt>
<totfact> 0.25021341E+06</totfact>
</mgrwt>
</event>
<event>
 3    0  0.1368989E+001  0.1250000E+03  0.7546771E-02  0.1235069E+00
         21   -1    0    0  502  501  0.00000000000E+00  0.00000000000E+00  0.10053104401E+04  0.10053104401E+04  0.00000000000E+00 0. -1.
         21   -1    0    0  501  502 -0.00000000000E+00 -0.00000000000E+00 -0.38856156706E+01  0.38856156706E+01  0.00000000000E+00 0. -1.
         25    1    1    2    0    0  0.00000000000E+00  0.00000000000E+00  0.10014248245E+04  0.10091960558E+04  0.12500000000E+03 0.  0.
<mgrwt>
<rscale>  2 0.12500000E+03</rscale>
<asrwt>0</asrwt>
<pdfrwt beam="1">  1       21 0.15466294E+00 0.12500000E+03</pdfrwt>
<pdfrwt beam="2">  1       21 0.59778783E-03 0.12500000E+03</pdfrwt>
<totfact> 0.23390428E+06</totfact>
</mgrwt>
</event>
<event>
 3    0  0.1458036E+001  0.1250000E+03  0.7546771E-02  0.1235069E+00
         21   -1    0    0  502  501  0.00000000000E+00  0.00000000000E+00  0.50352615399E+03  0.50352615399E+03  0.00000000000E+00 0.  1.
         21   -1    0    0  501  502 -0.00000000000E+00 -0.00000000000E+00 -0.77577896780E+01  0.77577896780E+01  0.00000000000E+00 0.  1.
         25    1    1    2    0    0  0.00000000000E+00  0.00000000000E+00  0.49576836431E+03  0.51128394366E+03  0.12500000000E+03 0.  0.
<mgrwt>
<rscale>  2 0.12500000E+03</rscale>
<asrwt>0</asrwt>
<pdfrwt beam="1">  1       21 0.77465536E-01 0.12500000E+03</pdfrwt>
<pdfrwt beam="2">  1       21 0.11935065E-02 0.12500000E+03</pdfrwt>
<totfact> 0.41438664E+06</totfact>
</mgrwt>
</event>
<event>
 3    0  0.1368989E+001  0.1250000E+03  0.7546771E-02  0.1235069E+00
         21   -1    0    0  502  501  0.00000000000E+00  0.00000000000E+00  0.26205358187E+01  0.26205358187E+01  0.00000000000E+00 0. -1.
         21   -1    0    0  501  502 -0.00000000000E+00 -0.00000000000E+00 -0.14906302643E+04  0.14906302643E+04  0.00000000000E+00 0. -1.
         25    1    1    2    0    0  0.00000000000E+00  0.00000000000E+00 -0.14880097285E+04  0.14932508001E+04  0.12500000000E+03 0.  0.
<mgrwt>
<rscale>  2 0.12500000E+03</rscale>
<asrwt>0</asrwt>
<pdfrwt beam="1">  1       21 0.40315911E-03 0.12500000E+03</pdfrwt>
<pdfrwt beam="2">  1       21 0.22932787E+00 0.12500000E+03</pdfrwt>
<totfact> 0.14093565E+06</totfact>
</mgrwt>
</event>
<event>
 3    0  0.1616016E+001  0.1250000E+03  0.7546771E-02  0.1235069E+00
         21   -1    0    0  502  501  0.00000000000E+00  0.00000000000E+00  0.25371827718E+03  0.25371827718E+03  0.00000000000E+00 0. -1.
         21   -1    0    0  501  502 -0.00000000000E+00 -0.00000000000E+00 -0.15396013418E+02  0.15396013418E+02  0.00000000000E+00 0. -1.
         25    1    1    2    0    0  0.00000000000E+00  0.00000000000E+00  0.23832226376E+03  0.26911429060E+03  0.12500000000E+03 0.  0.
<mgrwt>
<rscale>  2 0.12500000E+03</rscale>
<asrwt>0</asrwt>
<pdfrwt beam="1">  1       21 0.39033578E-01 0.12500000E+03</pdfrwt>
<pdfrwt beam="2">  1       21 0.23686176E-02 0.12500000E+03</pdfrwt>
<totfact> 0.58123837E+06</totfact>
</mgrwt>
</event>
<event>
 3    0  0.1368989E+001  0.1250000E+03  0.7546771E-02  0.1235069E+00
         21   -1    0    0  502  501  0.00000000000E+00  0.00000000000E+00  0.12284511868E+04  0.12284511868E+04  0.00000000000E+00 0. -1.
         21   -1    0    0  501  502 -0.00000000000E+00 -0.00000000000E+00 -0.31798170266E+01  0.31798170266E+01  0.00000000000E+00 0. -1.
         25    1    1    2    0    0  0.00000000000E+00  0.00000000000E+00  0.12252713697E+04  0.12316310038E+04  0.12500000000E+03 0.  0.
<mgrwt>
<rscale>  2 0.12500000E+03</rscale>
<asrwt>0</asrwt>
<pdfrwt beam="1">  1       21 0.18899211E+00 0.12500000E+03</pdfrwt>
<pdfrwt beam="2">  1       21 0.48920360E-03 0.12500000E+03</pdfrwt>
<totfact> 0.18524271E+06</totfact>
</mgrwt>
</event>
<event>
 3    0  0.1628609E+001  0.1250000E+03  0.7546771E-02  0.1235069E+00
         21   -1    0    0  502  501  0.00000000000E+00  0.00000000000E+00  0.18117644745E+02  0.18117644745E+02  0.00000000000E+00 0. -1.
         21   -1    0    0  501  502 -0.00000000000E+00 -0.00000000000E+00 -0.21560473533E+03  0.21560473533E+03  0.00000000000E+00 0. -1.
         25    1    1    2    0    0  0.00000000000E+00  0.00000000000E+00 -0.19748709058E+03  0.23372238007E+03  0.12500000000E+03 0.  0.
<mgrwt>
<rscale>  2 0.12500000E+03</rscale>
<asrwt>0</asrwt>
<pdfrwt beam="1">  1       21 0.27873302E-02 0.12500000E+03</pdfrwt>
<pdfrwt beam="2">  1       21 0.33169956E-01 0.12500000E+03</pdfrwt>
<totfact> 0.61445479E+06</totfact>
</mgrwt>
</event>
<event>
 3    0  0.1490403E+001  0.1250000E+03  0.7546771E-02  0.1235069E+00
         21   -1    0    0  502  501  0.00000000000E+00  0.00000000000E+00  0.40524213711E+03  0.40524213711E+03  0.00000000000E+00 0. -1.
         21   -1    0    0  501  502 -0.00000000000E+00 -0.00000000000E+00 -0.96392986866E+01  0.96392986866E+01  0.00000000000E+00 0. -1.
         25    1    1    2    0    0  0.00000000000E+00  0.00000000000E+00  0.39560283842E+03  0.41488143579E+03  0.12500000000E+03 0.  0.
<mgrwt>
<rscale>  2 0.12500000E+03</rscale>
<asrwt>0</asrwt>
<pdfrwt beam="1">  1       21 0.62344931E-01 0.12500000E+03</pdfrwt>
<pdfrwt beam="2">  1       21 0.14829693E-02 0.12500000E+03</pdfrwt>
<totfact> 0.47069701E+06</totfact>
</mgrwt>
</event>
<event>
 3    0  0.1700691E+001  0.1250000E+03  0.7546771E-02  0.1235069E+00
         21   -1    0    0  502  501  0.00000000000E+00  0.00000000000E+00  0.11081286102E+03  0.11081286102E+03  0.00000000000E+00 0. -1.
         21   -1    0    0  501  502 -0.00000000000E+00 -0.00000000000E+00 -0.35250872184E+02  0.35250872184E+02  0.00000000000E+00 0. -1.
         25    1    1    2    0    0  0.00000000000E+00  0.00000000000E+00  0.75561988833E+02  0.14606373320E+03  0.12500000000E+03 0.  0.
<mgrwt>
<rscale>  2 0.12500000E+03</rscale>
<asrwt>0</asrwt>
<pdfrwt beam="1">  1       21 0.17048132E-01 0.12500000E+03</pdfrwt>
<pdfrwt beam="2">  1       21 0.54232111E-02 0.12500000E+03</pdfrwt>
<totfact> 0.71257244E+06</totfact>
</mgrwt>
</event>
<event>
 3    0  0.1734912E+001  0.1250000E+03  0.7546771E-02  0.1235069E+00
         21   -1    0    0  502  501  0.00000000000E+00  0.00000000000E+00  0.73615053470E+02  0.73615053470E+02  0.00000000000E+00 0.  1.
         21   -1    0    0  501  502 -0.00000000000E+00 -0.00000000000E+00 -0.53063195853E+02  0.53063195853E+02  0.00000000000E+00 0.  1.
         25    1    1    2    0    0  0.00000000000E+00  0.00000000000E+00  0.20551857617E+02  0.12667824932E+03  0.12500000000E+03 0.  0.
<mgrwt>
<rscale>  2 0.12500000E+03</rscale>
<asrwt>0</asrwt>
<pdfrwt beam="1">  1       21 0.11325393E-01 0.12500000E+03</pdfrwt>
<pdfrwt beam="2">  1       21 0.81635686E-02 0.12500000E+03</pdfrwt>
<totfact> 0.73813005E+06</totfact>
</mgrwt>
</event>
<event>
 3    0  0.1562406E+001  0.1250000E+03  0.7546771E-02  0.1235069E+00
         21   -1    0    0  502  501  0.00000000000E+00  0.00000000000E+00  0.11479773586E+02  0.11479773586E+02  0.00000000000E+00 0.  1.
         21   -1    0    0  501  502 -0.00000000000E+00 -0.00000000000E+00 -0.34027239045E+03  0.34027239045E+03  0.00000000000E+00 0.  1.
         25    1    1    2    0    0  0.00000000000E+00  0.00000000000E+00 -0.32879261687E+03  0.35175216404E+03  0.12500000000E+03 0.  0.
<mgrwt>
<rscale>  2 0.12500000E+03</rscale>
<asrwt>0</asrwt>
<pdfrwt beam="1">  1       21 0.17661191E-02 0.12500000E+03</pdfrwt>
<pdfrwt beam="2">  1       21 0.52349595E-01 0.12500000E+03</pdfrwt>
<totfact> 0.51409291E+06</totfact>
</mgrwt>
</event>
<event>
 3    0  0.1484598E+001  0.1250000E+03  0.7546771E-02  0.1235069E+00
         21   -1    0    0  502  501  0.00000000000E+00  0.00000000000E+00  0.80127163106E+01  0.80127163106E+01  0.00000000000E+00 0.  1.
         21   -1    0    0  501  502 -0.00000000000E+00 -0.00000000000E+00 -0.48750633975E+03  0.48750633975E+03  0.00000000000E+00 0.  1.
         25    1    1    2    0    0  0.00000000000E+00  0.00000000000E+00 -0.47949362344E+03  0.49551905606E+03  0.12500000000E+03 0.  0.
<mgrwt>
<rscale>  2 0.12500000E+03</rscale>
<asrwt>0</asrwt>
<pdfrwt beam="1">  1       21 0.12327256E-02 0.12500000E+03</pdfrwt>
<pdfrwt beam="2">  1       21 0.75000977E-01 0.12500000E+03</pdfrwt>
<totfact> 0.42288129E+06</totfact>
</mgrwt>
</event>
<event>
 3    0  0.1632288E+001  0.1250000E+03  0.7546771E-02  0.1235069E+00
         21   -1    0    0  502  501  0.00000000000E+00  0.00000000000E+00  0.24383971815E+03  0.24383971815E+03  0.00000000000E+00 0.  1.
         21   -1    0    0  501  502 -0.00000000000E+00 -0.00000000000E+00 -0.16019744567E+02  0.16019744567E+02  0.00000000000E+00 0.  1.
         25    1    1    2    0    0  0.00000000000E+00  0.00000000000E+00  0.22781997358E+03  0.25985946271E+03  0.12500000000E+03 0.  0.
<mgrwt>
<rscale>  2 0.12500000E+03</rscale>
<asrwt>0</asrwt>
<pdfrwt beam="1">  1       21 0.37513800E-01 0.12500000E+03</pdfrwt>
<pdfrwt beam="2">  1       21 0.24645763E-02 0.12500000E+03</pdfrwt>
<totfact> 0.58962156E+06</totfact>
</mgrwt>
</event>
<event>
 3    0  0.1608569E+001  0.1250000E+03  0.7546771E-02  0.1235069E+00
         21   -1    0    0  502  501  0.00000000000E+00  0.00000000000E+00  0.14138655819E+02  0.14138655819E+02  0.00000000000E+00 0.  1.
         21   -1    0    0  501  502 -0.00000000000E+00 -0.00000000000E+00 -0.27628156806E+03  0.27628156806E+03  0.00000000000E+00 0.  1.
         25    1    1    2    0    0  0.00000000000E+00  0.00000000000E+00 -0.26214291224E+03  0.29042022388E+03  0.12500000000E+03 0.  0.
<mgrwt>
<rscale>  2 0.12500000E+03</rscale>
<asrwt>0</asrwt>
<pdfrwt beam="1">  1       21 0.21751778E-02 0.12500000E+03</pdfrwt>
<pdfrwt beam="2">  1       21 0.42504857E-01 0.12500000E+03</pdfrwt>
<totfact> 0.56261806E+06</totfact>
</mgrwt>
</event>
<event>
 3    0  0.1710347E+001  0.1250000E+03  0.7546771E-02  0.1235069E+00
         21   -1    0    0  502  501  0.00000000000E+00  0.00000000000E+00  0.80068781169E+02  0.80068781169E+02  0.00000000000E+00 0. -1.
         21   -1    0    0  501  502 -0.00000000000E+00 -0.00000000000E+00 -0.48786180369E+02  0.48786180369E+02  0.00000000000E+00 0. -1.
         25    1    1    2    0    0  0.00000000000E+00  0.00000000000E+00  0.31282600800E+02  0.12885496154E+03  0.12500000000E+03 0.  0.
<mgrwt>
<rscale>  2 0.12500000E+03</rscale>
<asrwt>0</asrwt>
<pdfrwt beam="1">  1       21 0.12318274E-01 0.12500000E+03</pdfrwt>
<pdfrwt beam="2">  1       21 0.75055662E-02 0.12500000E+03</pdfrwt>
<totfact> 0.73518367E+06</totfact>
</mgrwt>
</event>
<event>
 3    0  0.1683731E+001  0.1250000E+03  0.7546771E-02  0.1235069E+00
         21   -1    0    0  502  501  0.00000000000E+00  0.00000000000E+00  0.17625724332E+03  0.17625724332E+03  0.00000000000E+00 0.  1.
         21   -1    0    0  501  502 -0.00000000000E+00 -0.00000000000E+00 -0.22162209770E+02  0.22162209770E+02  0.00000000000E+00 0.  1.
         25    1    1    2    0    0  0.00000000000E+00  0.00000000000E+00  0.15409503355E+03  0.19841945309E+03  0.12500000000E+03 0.  0.
<mgrwt>
<rscale>  2 0.12500000E+03</rscale>
<asrwt>0</asrwt>
<pdfrwt beam="1">  1       21 0.27116498E-01 0.12500000E+03</pdfrwt>
<pdfrwt beam="2">  1       21 0.34095708E-02 0.12500000E+03</pdfrwt>
<totfact> 0.65098703E+06</totfact>
</mgrwt>
</event>
<event>
 3    0  0.1471712E+001  0.1250000E+03  0.7546771E-02  0.1235069E+00
         21   -1    0    0  502  501  0.00000000000E+00  0.00000000000E+00  0.79014454397E+01  0.79014454397E+01  0.00000000000E+00 0.  1.
         21   -1    0    0  501  502 -0.00000000000E+00 -0.00000000000E+00 -0.49437157161E+03  0.49437157161E+03  0.00000000000E+00 0.  1.
         25    1    1    2    0    0  0.00000000000E+00  0.00000000000E+00 -0.48647012617E+03  0.50227301705E+03  0.12500000000E+03 0.  0.
<mgrwt>
<rscale>  2 0.12500000E+03</rscale>
<asrwt>0</asrwt>
<pdfrwt beam="1">  1       21 0.12156069E-02 0.12500000E+03</pdfrwt>
<pdfrwt beam="2">  1       21 0.76057169E-01 0.12500000E+03</pdfrwt>
<totfact> 0.41921066E+06</totfact>
</mgrwt>
</event>
<event>
 3    0  0.1703899E+001  0.1250000E+03  0.7546771E-02  0.1235069E+00
         21   -1    0    0  502  501  0.00000000000E+00  0.00000000000E+00  0.13373345778E+03  0.13373345778E+03  0.00000000000E+00 0.  1.
         21   -1    0    0  501  502 -0.00000000000E+00 -0.00000000000E+00 -0.29209220077E+02  0.29209220077E+02  0.00000000000E+00 0.  1.
         25    1    1    2    0    0  0.00000000000E+00  0.00000000000E+00  0.10452423770E+03  0.16294267786E+03  0.12500000000E+03 0.  0.
<mgrwt>
<rscale>  2 0.12500000E+03</rscale>
<asrwt>0</asrwt>
<pdfrwt beam="1">  1       21 0.20574378E-01 0.12500000E+03</pdfrwt>
<pdfrwt beam="2">  1       21 0.44937262E-02 0.12500000E+03</pdfrwt>
<totfact> 0.69161708E+06</totfact>
</mgrwt>
</event>
<event>
 3    0  0.1707338E+001  0.1250000E+03  0.7546771E-02  0.1235069E+00
         21   -1    0    0  502  501  0.00000000000E+00  0.00000000000E+00  0.27504678942E+02  0.27504678942E+02  0.00000000000E+00 0.  1.
         21   -1    0    0  501  502 -0.00000000000E+00 -0.00000000000E+00 -0.14202129057E+03  0.14202129057E+03  0.00000000000E+00 0.  1.
         25    1    1    2    0    0  0.00000000000E+00  0.00000000000E+00 -0.11451661162E+03  0.16952596951E+03  0.12500000000E+03 0.  0.
<mgrwt>
<rscale>  2 0.12500000E+03</rscale>
<asrwt>0</asrwt>
<pdfrwt beam="1">  1       21 0.42314891E-02 0.12500000E+03</pdfrwt>
<pdfrwt beam="2">  1       21 0.21849429E-01 0.12500000E+03</pdfrwt>
<totfact> 0.68373852E+06</totfact>
</mgrwt>
</event>
<event>
 3    0  0.1468240E+001  0.1250000E+03  0.7546771E-02  0.1235069E+00
         21   -1    0    0  502  501  0.00000000000E+00  0.00000000000E+00  0.80550678365E+01  0.80550678365E+01  0.00000000000E+00 0. -1.
         21   -1    0    0  501  502 -0.00000000000E+00 -0.00000000000E+00 -0.48494315371E+03  0.48494315371E+03  0.00000000000E+00 0. -1.
         25    1    1    2    0    0  0.00000000000E+00  0.00000000000E+00 -0.47688808587E+03  0.49299822155E+03  0.12500000000E+03 0.  0.
<mgrwt>
<rscale>  2 0.12500000E+03</rscale>
<asrwt>0</asrwt>
<pdfrwt beam="1">  1       21 0.12392410E-02 0.12500000E+03</pdfrwt>
<pdfrwt beam="2">  1       21 0.74606654E-01 0.12500000E+03</pdfrwt>
<totfact> 0.42426351E+06</totfact>
</mgrwt>
</event>
<event>
 3    0  0.1686142E+001  0.1250000E+03  0.7546771E-02  0.1235069E+00
         21   -1    0    0  502  501  0.00000000000E+00  0.00000000000E+00  0.12207476068E+03  0.12207476068E+03  0.00000000000E+00 0. -1.
         21   -1    0    0  501  502 -0.00000000000E+00 -0.00000000000E+00 -0.31998833978E+02  0.31998833978E+02  0.00000000000E+00 0. -1.
         25    1    1    2    0    0  0.00000000000E+00  0.00000000000E+00  0.90075926705E+02  0.15407359466E+03  0.12500000000E+03 0.  0.
<mgrwt>
<rscale>  2 0.12500000E+03</rscale>
<asrwt>0</asrwt>
<pdfrwt beam="1">  1       21 0.18780732E-01 0.12500000E+03</pdfrwt>
<pdfrwt beam="2">  1       21 0.49228976E-02 0.12500000E+03</pdfrwt>
<totfact> 0.70250982E+06</totfact>
</mgrwt>
</event>
<event>
 3    0  0.1428405E+001  0.1250000E+03  0.7546771E-02  0.1235069E+00
         21   -1    0    0  502  501  0.00000000000E+00  0.00000000000E+00  0.77097905019E+01  0.77097905019E+01  0.00000000000E+00 0. -1.
         21   -1    0    0  501  502 -0.00000000000E+00 -0.00000000000E+00 -0.50666097854E+03  0.50666097854E+03  0.00000000000E+00 0. -1.
         25    1    1    2    0    0  0.00000000000E+00  0.00000000000E+00 -0.49895118804E+03  0.51437076904E+03  0.12500000000E+03 0.  0.
<mgrwt>
<rscale>  2 0.12500000E+03</rscale>
<asrwt>0</asrwt>
<pdfrwt beam="1">  1       21 0.11861220E-02 0.12500000E+03</pdfrwt>
<pdfrwt beam="2">  1       21 0.77947819E-01 0.12500000E+03</pdfrwt>
<totfact> 0.41275291E+06</totfact>
</mgrwt>
</event>
<event>
 3    0  0.1660921E+001  0.1250000E+03  0.7546771E-02  0.1235069E+00
         21   -1    0    0  502  501  0.00000000000E+00  0.00000000000E+00  0.18426215631E+02  0.18426215631E+02  0.00000000000E+00 0.  1.
         21   -1    0    0  501  502 -0.00000000000E+00 -0.00000000000E+00 -0.21199415432E+03  0.21199415432E+03  0.00000000000E+00 0.  1.
         25    1    1    2    0    0  0.00000000000E+00  0.00000000000E+00 -0.19356793869E+03  0.23042036995E+03  0.12500000000E+03 0.  0.
<mgrwt>
<rscale>  2 0.12500000E+03</rscale>
<asrwt>0</asrwt>
<pdfrwt beam="1">  1       21 0.28348024E-02 0.12500000E+03</pdfrwt>
<pdfrwt beam="2">  1       21 0.32614485E-01 0.12500000E+03</pdfrwt>
<totfact> 0.61772170E+06</totfact>
</mgrwt>
</event>
<event>
 3    0  0.1733688E+001  0.1250000E+03  0.7546771E-02  0.1235069E+00
         21   -1    0    0  502  501  0.00000000000E+00  0.00000000000E+00  0.48270395270E+02  0.48270395270E+02  0.00000000000E+00 0.  1.
         21   -1    0    0  501  502 -0.00000000000E+00 -0.00000000000E+00 -0.80924342511E+02  0.80924342511E+02  0.00000000000E+00 0.  1.
         25    1    1    2    0    0  0.00000000000E+00  0.00000000000E+00 -0.32653947241E+02  0.12919473778E+03  0.12500000000E+03 0.  0.
<mgrwt>
<rscale>  2 0.12500000E+03</rscale>
<asrwt>0</asrwt>
<pdfrwt beam="1">  1       21 0.74262147E-02 0.12500000E+03</pdfrwt>
<pdfrwt beam="2">  1       21 0.12449899E-01 0.12500000E+03</pdfrwt>
<totfact> 0.73472741E+06</totfact>
</mgrwt>
</event>
<event>
 3    0  0.1702082E+001  0.1250000E+03  0.7546771E-02  0.1235069E+00
         21   -1    0    0  502  501  0.00000000000E+00  0.00000000000E+00  0.88478921911E+02  0.88478921911E+02  0.00000000000E+00 0. -1.
         21   -1    0    0  501  502 -0.00000000000E+00 -0.00000000000E+00 -0.44148933053E+02  0.44148933053E+02  0.00000000000E+00 0. -1.
         25    1    1    2    0    0  0.00000000000E+00  0.00000000000E+00  0.44329988858E+02  0.13262785496E+03  0.12500000000E+03 0.  0.
<mgrwt>
<rscale>  2 0.12500000E+03</rscale>
<asrwt>0</asrwt>
<pdfrwt beam="1">  1       21 0.13612142E-01 0.12500000E+03</pdfrwt>
<pdfrwt beam="2">  1       21 0.67921435E-02 0.12500000E+03</pdfrwt>
<totfact> 0.73012133E+06</totfact>
</mgrwt>
</event>
<event>
 3    0  0.1468018E+001  0.1250000E+03  0.7546771E-02  0.1235069E+00
         21   -1    0    0  502  501  0.00000000000E+00  0.00000000000E+00  0.84030618680E+01  0.84030618680E+01  0.00000000000E+00 0. -1.
         21   -1    0    0  501  502 -0.00000000000E+00 -0.00000000000E+00 -0.46486031655E+03  0.46486031655E+03  0.00000000000E+00 0. -1.
         25    1    1    2    0    0  0.00000000000E+00  0.00000000000E+00 -0.45645725469E+03  0.47326337842E+03  0.12500000000E+03 0.  0.
<mgrwt>
<rscale>  2 0.12500000E+03</rscale>
<asrwt>0</asrwt>
<pdfrwt beam="1">  1       21 0.12927783E-02 0.12500000E+03</pdfrwt>
<pdfrwt beam="2">  1       21 0.71516996E-01 0.12500000E+03</pdfrwt>
<totfact> 0.43532179E+06</totfact>
</mgrwt>
</event>
<event>
 3    0  0.1433650E+001  0.1250000E+03  0.7546771E-02  0.1235069E+00
         21   -1    0    0  502  501  0.00000000000E+00  0.00000000000E+00  0.50552853334E+03  0.50552853334E+03  0.00000000000E+00 0. -1.
         21   -1    0    0  501  502 -0.00000000000E+00 -0.00000000000E+00 -0.77270613673E+01  0.77270613673E+01  0.00000000000E+00 0. -1.
         25    1    1    2    0    0  0.00000000000E+00  0.00000000000E+00  0.49780147197E+03  0.51325559470E+03  0.12500000000E+03 0.  0.
<mgrwt>
<rscale>  2 0.12500000E+03</rscale>
<asrwt>0</asrwt>
<pdfrwt beam="1">  1       21 0.77773594E-01 0.12500000E+03</pdfrwt>
<pdfrwt beam="2">  1       21 0.11887791E-02 0.12500000E+03</pdfrwt>
<totfact> 0.41334203E+06</totfact>
</mgrwt>
</event>
<event>
 3    0  0.1521717E+001  0.1250000E+03  0.7546771E-02  0.1235069E+00
         21   -1    0    0  502  501  0.00000000000E+00  0.00000000000E+00  0.40041048602E+03  0.40041048602E+03  0.00000000000E+00 0.  1.
         21   -1    0    0  501  502 -0.00000000000E+00 -0.00000000000E+00 -0.97556136425E+01  0.97556136425E+01  0.00000000000E+00 0.  1.
         25    1    1    2    0    0  0.00000000000E+00  0.00000000000E+00  0.39065487238E+03  0.41016609966E+03  0.12500000000E+03 0.  0.
<mgrwt>
<rscale>  2 0.12500000E+03</rscale>
<asrwt>0</asrwt>
<pdfrwt beam="1">  1       21 0.61601601E-01 0.12500000E+03</pdfrwt>
<pdfrwt beam="2">  1       21 0.15008639E-02 0.12500000E+03</pdfrwt>
<totfact> 0.47374280E+06</totfact>
</mgrwt>
</event>
<event>
 3    0  0.1712445E+001  0.1250000E+03  0.7546771E-02  0.1235069E+00
         21   -1    0    0  502  501  0.00000000000E+00  0.00000000000E+00  0.60111671275E+02  0.60111671275E+02  0.00000000000E+00 0. -1.
         21   -1    0    0  501  502 -0.00000000000E+00 -0.00000000000E+00 -0.64983220681E+02  0.64983220681E+02  0.00000000000E+00 0. -1.
         25    1    1    2    0    0  0.00000000000E+00  0.00000000000E+00 -0.48715494059E+01  0.12509489196E+03  0.12500000000E+03 0.  0.
<mgrwt>
<rscale>  2 0.12500000E+03</rscale>
<asrwt>0</asrwt>
<pdfrwt beam="1">  1       21 0.92479494E-02 0.12500000E+03</pdfrwt>
<pdfrwt beam="2">  1       21 0.99974186E-02 0.12500000E+03</pdfrwt>
<totfact> 0.74030765E+06</totfact>
</mgrwt>
</event>
<event>
 3    0  0.1480105E+001  0.1250000E+03  0.7546771E-02  0.1235069E+00
         21   -1    0    0  502  501  0.00000000000E+00  0.00000000000E+00  0.43120957862E+03  0.43120957862E+03  0.00000000000E+00 0. -1.
         21   -1    0    0  501  502 -0.00000000000E+00 -0.00000000000E+00 -0.90588201043E+01  0.90588201043E+01  0.00000000000E+00 0. -1.
         25    1    1    2    0    0  0.00000000000E+00  0.00000000000E+00  0.42215075852E+03  0.44026839873E+03  0.12500000000E+03 0.  0.
<mgrwt>
<rscale>  2 0.12500000E+03</rscale>
<asrwt>0</asrwt>
<pdfrwt beam="1">  1       21 0.66339919E-01 0.12500000E+03</pdfrwt>
<pdfrwt beam="2">  1       21 0.13936650E-02 0.12500000E+03</pdfrwt>
<totfact> 0.45480257E+06</totfact>
</mgrwt>
</event>
<event>
 3    0  0.1675537E+001  0.1250000E+03  0.7546771E-02  0.1235069E+00
         21   -1    0    0  502  501  0.00000000000E+00  0.00000000000E+00  0.13551489020E+03  0.13551489020E+03  0.00000000000E+00 0. -1.
         21   -1    0    0  501  502 -0.00000000000E+00 -0.00000000000E+00 -0.28825245656E+02  0.28825245656E+02  0.00000000000E+00 0. -1.
         25    1    1    2    0    0  0.00000000000E+00  0.00000000000E+00  0.10668964454E+03  0.16434013585E+03  0.12500000000E+03 0.  0.
<mgrwt>
<rscale>  2 0.12500000E+03</rscale>
<asrwt>0</asrwt>
<pdfrwt beam="1">  1       21 0.20848444E-01 0.12500000E+03</pdfrwt>
<pdfrwt beam="2">  1       21 0.44346533E-02 0.12500000E+03</pdfrwt>
<totfact> 0.68993029E+06</totfact>
</mgrwt>
</event>
<event>
 3    0  0.1507249E+001  0.1250000E+03  0.7546771E-02  0.1235069E+00
         21   -1    0    0  502  501  0.00000000000E+00  0.00000000000E+00  0.91161116405E+01  0.91161116405E+01  0.00000000000E+00 0.  1.
         21   -1    0    0  501  502 -0.00000000000E+00 -0.00000000000E+00 -0.42849957899E+03  0.42849957899E+03  0.00000000000E+00 0.  1.
         25    1    1    2    0    0  0.00000000000E+00  0.00000000000E+00 -0.41938346735E+03  0.43761569063E+03  0.12500000000E+03 0.  0.
<mgrwt>
<rscale>  2 0.12500000E+03</rscale>
<asrwt>0</asrwt>
<pdfrwt beam="1">  1       21 0.14024789E-02 0.12500000E+03</pdfrwt>
<pdfrwt beam="2">  1       21 0.65923001E-01 0.12500000E+03</pdfrwt>
<totfact> 0.45642477E+06</totfact>
</mgrwt>
</event>
<event>
 3    0  0.1663446E+001  0.1250000E+03  0.7546771E-02  0.1235069E+00
         21   -1    0    0  502  501  0.00000000000E+00  0.00000000000E+00  0.24612764681E+02  0.24612764681E+02  0.00000000000E+00 0. -1.
         21   -1    0    0  501  502 -0.00000000000E+00 -0.00000000000E+00 -0.15870829834E+03  0.15870829834E+03  0.00000000000E+00 0. -1.
         25    1    1    2    0    0  0.00000000000E+00  0.00000000000E+00 -0.13409553366E+03  0.18332106302E+03  0.12500000000E+03 0.  0.
<mgrwt>
<rscale>  2 0.12500000E+03</rscale>
<asrwt>0</asrwt>
<pdfrwt beam="1">  1       21 0.37865791E-02 0.12500000E+03</pdfrwt>
<pdfrwt beam="2">  1       21 0.24416662E-01 0.12500000E+03</pdfrwt>
<totfact> 0.66772582E+06</totfact>
</mgrwt>
</event>
<event>
 3    0  0.1721205E+001  0.1250000E+03  0.7546771E-02  0.1235069E+00
         21   -1    0    0  502  501  0.00000000000E+00  0.00000000000E+00  0.36896079000E+02  0.36896079000E+02  0.00000000000E+00 0.  1.
         21   -1    0    0  501  502 -0.00000000000E+00 -0.00000000000E+00 -0.10587168355E+03  0.10587168355E+03  0.00000000000E+00 0.  1.
         25    1    1    2    0    0  0.00000000000E+00  0.00000000000E+00 -0.68975604545E+02  0.14276776255E+03  0.12500000000E+03 0.  0.
<mgrwt>
<rscale>  2 0.12500000E+03</rscale>
<asrwt>0</asrwt>
<pdfrwt beam="1">  1       21 0.56763198E-02 0.12500000E+03</pdfrwt>
<pdfrwt beam="2">  1       21 0.16287951E-01 0.12500000E+03</pdfrwt>
<totfact> 0.71680010E+06</totfact>
</mgrwt>
</event>
<event>
 3    0  0.1460046E+001  0.1250000E+03  0.7546771E-02  0.1235069E+00
         21   -1    0    0  502  501  0.00000000000E+00  0.00000000000E+00  0.74272920969E+01  0.74272920969E+01  0.00000000000E+00 0. -1.
         21   -1    0    0  501  502 -0.00000000000E+00 -0.00000000000E+00 -0.52593192095E+03  0.52593192095E+03  0.00000000000E+00 0. -1.
         25    1    1    2    0    0  0.00000000000E+00  0.00000000000E+00 -0.51850462886E+03  0.53335921305E+03  0.12500000000E+03 0.  0.
<mgrwt>
<rscale>  2 0.12500000E+03</rscale>
<asrwt>0</asrwt>
<pdfrwt beam="1">  1       21 0.11426601E-02 0.12500000E+03</pdfrwt>
<pdfrwt beam="2">  1       21 0.80912617E-01 0.12500000E+03</pdfrwt>
<totfact> 0.40290844E+06</totfact>
</mgrwt>
</event>
<event>
 3    0  0.1705080E+001  0.1250000E+03  0.7546771E-02  0.1235069E+00
         21   -1    0    0  502  501  0.00000000000E+00  0.00000000000E+00  0.90728397341E+02  0.90728397341E+02  0.00000000000E+00 0. -1.
         21   -1    0    0  501  502 -0.00000000000E+00 -0.00000000000E+00 -0.43054326038E+02  0.43054326038E+02  0.00000000000E+00 0. -1.
         25    1    1    2    0    0  0.00000000000E+00  0.00000000000E+00  0.47674071303E+02  0.13378272338E+03  0.12500000000E+03 0.  0.
<mgrwt>
<rscale>  2 0.12500000E+03</rscale>
<asrwt>0</asrwt>
<pdfrwt beam="1">  1       21 0.13958215E-01 0.12500000E+03</pdfrwt>
<pdfrwt beam="2">  1       21 0.66237425E-02 0.12500000E+03</pdfrwt>
<totfact> 0.72858056E+06</totfact>
</mgrwt>
</event>
<event>
 3    0  0.1709549E+001  0.1250000E+03  0.7546771E-02  0.1235069E+00
         21   -1    0    0  502  501  0.00000000000E+00  0.00000000000E+00  0.74340477677E+02  0.74340477677E+02  0.00000000000E+00 0. -1.
         21   -1    0    0  501  502 -0.00000000000E+00 -0.00000000000E+00 -0.52545398174E+02  0.52545398174E+02  0.00000000000E+00 0. -1.
         25    1    1    2    0    0  0.00000000000E+00  0.00000000000E+00  0.21795079503E+02  0.12688587585E+03  0.12500000000E+03 0.  0.
<mgrwt>
<rscale>  2 0.12500000E+03</rscale>
<asrwt>0</asrwt>
<pdfrwt beam="1">  1       21 0.11436997E-01 0.12500000E+03</pdfrwt>
<pdfrwt beam="2">  1       21 0.80839074E-02 0.12500000E+03</pdfrwt>
<totfact> 0.73784680E+06</totfact>
</mgrwt>
</event>
<event>
 3    0  0.1404285E+001  0.1250000E+03  0.7546771E-02  0.1235069E+00
         21   -1    0    0  502  501  0.00000000000E+00  0.00000000000E+00  0.70076540405E+01  0.70076540405E+01  0.00000000000E+00 0. -1.
         21   -1    0    0  501  502 -0.00000000000E+00 -0.00000000000E+00 -0.55742620532E+03  0.55742620532E+03  0.00000000000E+00 0. -1.
         25    1    1    2    0    0  0.00000000000E+00  0.00000000000E+00 -0.55041855128E+03  0.56443385936E+03  0.12500000000E+03 0.  0.
<mgrwt>
<rscale>  2 0.12500000E+03</rscale>
<asrwt>0</asrwt>
<pdfrwt beam="1">  1       21 0.10781000E-02 0.12500000E+03</pdfrwt>
<pdfrwt beam="2">  1       21 0.85757928E-01 0.12500000E+03</pdfrwt>
<totfact> 0.38752087E+06</totfact>
</mgrwt>
</event>
<event>
 3    0  0.1606820E+001  0.1250000E+03  0.7546771E-02  0.1235069E+00
         21   -1    0    0  502  501  0.00000000000E+00  0.00000000000E+00  0.23262255120E+03  0.23262255120E+03  0.00000000000E+00 0. -1.
         21   -1    0    0  501  502 -0.00000000000E+00 -0.00000000000E+00 -0.16792224055E+02  0.16792224055E+02  0.00000000000E+00 0. -1.
         25    1    1    2    0    0  0.00000000000E+00  0.00000000000E+00  0.21583032715E+03  0.24941477526E+03  0.12500000000E+03 0.  0.
<mgrwt>
<rscale>  2 0.12500000E+03</rscale>
<asrwt>0</asrwt>
<pdfrwt beam="1">  1       21 0.35788083E-01 0.12500000E+03</pdfrwt>
<pdfrwt beam="2">  1       21 0.25834192E-02 0.12500000E+03</pdfrwt>
<totfact> 0.59933332E+06</totfact>
</mgrwt>
</event>
<event>
 3    0  0.1704550E+001  0.1250000E+03  0.7546771E-02  0.1235069E+00
         21   -1    0    0  502  501  0.00000000000E+00  0.00000000000E+00  0.12792443248E+03  0.12792443248E+03  0.00000000000E+00 0.  1.
         21   -1    0    0  501  502 -0.00000000000E+00 -0.00000000000E+00 -0.30535605468E+02  0.30535605468E+02  0.00000000000E+00 0.  1.
         25    1    1    2    0    0  0.00000000000E+00  0.00000000000E+00  0.97388827015E+02  0.15846003795E+03  0.12500000000E+03 0.  0.
<mgrwt>
<rscale>  2 0.12500000E+03</rscale>
<asrwt>0</asrwt>
<pdfrwt beam="1">  1       21 0.19680682E-01 0.12500000E+03</pdfrwt>
<pdfrwt beam="2">  1       21 0.46977855E-02 0.12500000E+03</pdfrwt>
<totfact> 0.69708154E+06</totfact>
</mgrwt>
</event>
<event>
 3    0  0.1696709E+001  0.1250000E+03  0.7546771E-02  0.1235069E+00
         21   -1    0    0  502  501  0.00000000000E+00  0.00000000000E+00  0.10277030242E+03  0.10277030242E+03  0.00000000000E+00 0. -1.
         21   -1    0    0  501  502 -0.00000000000E+00 -0.00000000000E+00 -0.38009521310E+02  0.38009521310E+02  0.00000000000E+00 0. -1.
         25    1    1    2    0    0  0.00000000000E+00  0.00000000000E+00  0.64760781115E+02  0.14077982373E+03  0.12500000000E+03 0.  0.
<mgrwt>
<rscale>  2 0.12500000E+03</rscale>
<asrwt>0</asrwt>
<pdfrwt beam="1">  1       21 0.15810816E-01 0.12500000E+03</pdfrwt>
<pdfrwt beam="2">  1       21 0.58476187E-02 0.12500000E+03</pdfrwt>
<totfact> 0.71937667E+06</totfact>
</mgrwt>
</event>
<event>
 3    0  0.1727575E+001  0.1250000E+03  0.7546771E-02  0.1235069E+00
         21   -1    0    0  502  501  0.00000000000E+00  0.00000000000E+00  0.44645024741E+02  0.44645024741E+02  0.00000000000E+00 0.  1.
         21   -1    0    0  501  502 -0.00000000000E+00 -0.00000000000E+00 -0.87495751715E+02  0.87495751715E+02  0.00000000000E+00 0.  1.
         25    1    1    2    0    0  0.00000000000E+00  0.00000000000E+00 -0.42850726974E+02  0.13214077646E+03  0.12500000000E+03 0.  0.
<mgrwt>
<rscale>  2 0.12500000E+03</rscale>
<asrwt>0</asrwt>
<pdfrwt beam="1">  1       21 0.68684654E-02 0.12500000E+03</pdfrwt>
<pdfrwt beam="2">  1       21 0.13460885E-01 0.12500000E+03</pdfrwt>
<totfact> 0.73077352E+06</totfact>
</mgrwt>
</event>
<event>
 3    0  0.1701897E+001  0.1250000E+03  0.7546771E-02  0.1235069E+00
         21   -1    0    0  502  501  0.00000000000E+00  0.00000000000E+00  0.42357845289E+02  0.42357845289E+02  0.00000000000E+00 0. -1.
         21   -1    0    0  501  502 -0.00000000000E+00 -0.00000000000E+00 -0.92220224455E+02  0.92220224455E+02  0.00000000000E+00 0. -1.
         25    1    1    2    0    0  0.00000000000E+00  0.00000000000E+00 -0.49862379165E+02  0.13457806974E+03  0.12500000000E+03 0.  0.
<mgrwt>
<rscale>  2 0.12500000E+03</rscale>
<asrwt>0</asrwt>
<pdfrwt beam="1">  1       21 0.65165916E-02 0.12500000E+03</pdfrwt>
<pdfrwt beam="2">  1       21 0.14187727E-01 0.12500000E+03</pdfrwt>
<totfact> 0.72752387E+06</totfact>
</mgrwt>
</event>
<event>
 3    0  0.1712509E+001  0.1250000E+03  0.7546771E-02  0.1235069E+00
         21   -1    0    0  502  501  0.00000000000E+00  0.00000000000E+00  0.11677725551E+03  0.11677725551E+03  0.00000000000E+00 0.  1.
         21   -1    0    0  501  502 -0.00000000000E+00 -0.00000000000E+00 -0.33450435045E+02  0.33450435045E+02  0.00000000000E+00 0.  1.
         25    1    1    2    0    0  0.00000000000E+00  0.00000000000E+00  0.83326820462E+02  0.15022769055E+03  0.12500000000E+03 0.  0.
<mgrwt>
<rscale>  2 0.12500000E+03</rscale>
<asrwt>0</asrwt>
<pdfrwt beam="1">  1       21 0.17965731E-01 0.12500000E+03</pdfrwt>
<pdfrwt beam="2">  1       21 0.51462208E-02 0.12500000E+03</pdfrwt>
<totfact> 0.70730611E+06</totfact>
</mgrwt>
</event>
<event>
 3    0  0.1712018E+001  0.1250000E+03  0.7546771E-02  0.1235069E+00
         21   -1    0    0  502  501  0.00000000000E+00  0.00000000000E+00  0.65562327067E+02  0.65562327067E+02  0.00000000000E+00 0. -1.
         21   -1    0    0  501  502 -0.00000000000E+00 -0.00000000000E+00 -0.59580710063E+02  0.59580710063E+02  0.00000000000E+00 0. -1.
         25    1    1    2    0    0  0.00000000000E+00  0.00000000000E+00  0.59816170039E+01  0.12514303713E+03  0.12500000000E+03 0.  0.
<mgrwt>
<rscale>  2 0.12500000E+03</rscale>
<asrwt>0</asrwt>
<pdfrwt beam="1">  1       21 0.10086512E-01 0.12500000E+03</pdfrwt>
<pdfrwt beam="2">  1       21 0.91662631E-02 0.12500000E+03</pdfrwt>
<totfact> 0.74024264E+06</totfact>
</mgrwt>
</event>
<event>
 3    0  0.1563738E+001  0.1250000E+03  0.7546771E-02  0.1235069E+00
         21   -1    0    0  502  501  0.00000000000E+00  0.00000000000E+00  0.11500600718E+02  0.11500600718E+02  0.00000000000E+00 0.  1.
         21   -1    0    0  501  502 -0.00000000000E+00 -0.00000000000E+00 -0.33965617063E+03  0.33965617063E+03  0.00000000000E+00 0.  1.
         25    1    1    2    0    0  0.00000000000E+00  0.00000000000E+00 -0.32815556992E+03  0.35115677135E+03  0.12500000000E+03 0.  0.
<mgrwt>
<rscale>  2 0.12500000E+03</rscale>
<asrwt>0</asrwt>
<pdfrwt beam="1">  1       21 0.17693233E-02 0.12500000E+03</pdfrwt>
<pdfrwt beam="2">  1       21 0.52254792E-01 0.12500000E+03</pdfrwt>
<totfact> 0.51453116E+06</totfact>
</mgrwt>
</event>
<event>
 3    0  0.1692634E+001  0.1250000E+03  0.7546771E-02  0.1235069E+00
         21   -1    0    0  502  501  0.00000000000E+00  0.00000000000E+00  0.25868033507E+02  0.25868033507E+02  0.00000000000E+00 0.  1.
         21   -1    0    0  501  502 -0.00000000000E+00 -0.00000000000E+00 -0.15100684012E+03  0.15100684012E+03  0.00000000000E+00 0.  1.
         25    1    1    2    0    0  0.00000000000E+00  0.00000000000E+00 -0.12513880662E+03  0.17687487363E+03  0.12500000000E+03 0.  0.
<mgrwt>
<rscale>  2 0.12500000E+03</rscale>
<asrwt>0</asrwt>
<pdfrwt beam="1">  1       21 0.39796975E-02 0.12500000E+03</pdfrwt>
<pdfrwt beam="2">  1       21 0.23231821E-01 0.12500000E+03</pdfrwt>
<totfact> 0.67511862E+06</totfact>
</mgrwt>
</event>
<event>
 3    0  0.1641411E+001  0.1250000E+03  0.7546771E-02  0.1235069E+00
         21   -1    0    0  502  501  0.00000000000E+00  0.00000000000E+00  0.19135671715E+03  0.19135671715E+03  0.00000000000E+00 0. -1.
         21   -1    0    0  501  502 -0.00000000000E+00 -0.00000000000E+00 -0.20413445936E+02  0.20413445936E+02  0.00000000000E+00 0. -1.
         25    1    1    2    0    0  0.00000000000E+00  0.00000000000E+00  0.17094327121E+03  0.21177016308E+03  0.12500000000E+03 0.  0.
<mgrwt>
<rscale>  2 0.12500000E+03</rscale>
<asrwt>0</asrwt>
<pdfrwt beam="1">  1       21 0.29439494E-01 0.12500000E+03</pdfrwt>
<pdfrwt beam="2">  1       21 0.31405303E-02 0.12500000E+03</pdfrwt>
<totfact> 0.63673775E+06</totfact>
</mgrwt>
</event>
<event>
 3    0  0.1368989E+001  0.1250000E+03  0.7546771E-02  0.1235069E+00
         21   -1    0    0  502  501  0.00000000000E+00  0.00000000000E+00  0.71963937369E+03  0.71963937369E+03  0.00000000000E+00 0.  1.
         21   -1    0    0  501  502 -0.00000000000E+00 -0.00000000000E+00 -0.54280659769E+01  0.54280659769E+01  0.00000000000E+00 0.  1.
         25    1    1    2    0    0  0.00000000000E+00  0.00000000000E+00  0.71421130771E+03  0.72506743967E+03  0.12500000000E+03 0.  0.
<mgrwt>
<rscale>  2 0.12500000E+03</rscale>
<asrwt>0</asrwt>
<pdfrwt beam="1">  1       21 0.11071367E+00 0.12500000E+03</pdfrwt>
<pdfrwt beam="2">  1       21 0.83508764E-03 0.12500000E+03</pdfrwt>
<totfact> 0.31965841E+06</totfact>
</mgrwt>
</event>
<event>
 3    0  0.1666214E+001  0.1250000E+03  0.7546771E-02  0.1235069E+00
         21   -1    0    0  502  501  0.00000000000E+00  0.00000000000E+00  0.21272546731E+02  0.21272546731E+02  0.00000000000E+00 0.  1.
         21   -1    0    0  501  502 -0.00000000000E+00 -0.00000000000E+00 -0.18362869521E+03  0.18362869521E+03  0.00000000000E+00 0.  1.
         25    1    1    2    0    0  0.00000000000E+00  0.00000000000E+00 -0.16235614847E+03  0.20490124194E+03  0.12500000000E+03 0.  0.
<mgrwt>
<rscale>  2 0.12500000E+03</rscale>
<asrwt>0</asrwt>
<pdfrwt beam="1">  1       21 0.32726994E-02 0.12500000E+03</pdfrwt>
<pdfrwt beam="2">  1       21 0.28250570E-01 0.12500000E+03</pdfrwt>
<totfact> 0.64400007E+06</totfact>
</mgrwt>
</event>
<event>
 3    0  0.1368989E+001  0.1250000E+03  0.7546771E-02  0.1235069E+00
         21   -1    0    0  502  501  0.00000000000E+00  0.00000000000E+00  0.46791020255E+01  0.46791020255E+01  0.00000000000E+00 0. -1.
         21   -1    0    0  501  502 -0.00000000000E+00 -0.00000000000E+00 -0.83482898615E+03  0.83482898615E+03  0.00000000000E+00 0. -1.
         25    1    1    2    0    0  0.00000000000E+00  0.00000000000E+00 -0.83014988412E+03  0.83950808817E+03  0.12500000000E+03 0.  0.
<mgrwt>
<rscale>  2 0.12500000E+03</rscale>
<asrwt>0</asrwt>
<pdfrwt beam="1">  1       21 0.71986220E-03 0.12500000E+03</pdfrwt>
<pdfrwt beam="2">  1       21 0.12843517E+00 0.12500000E+03</pdfrwt>
<totfact> 0.28094976E+06</totfact>
</mgrwt>
</event>
<event>
 3    0  0.1427532E+001  0.1250000E+03  0.7546771E-02  0.1235069E+00
         21   -1    0    0  502  501  0.00000000000E+00  0.00000000000E+00  0.61441928879E+03  0.61441928879E+03  0.00000000000E+00 0. -1.
         21   -1    0    0  501  502 -0.00000000000E+00 -0.00000000000E+00 -0.63576291814E+01  0.63576291814E+01  0.00000000000E+00 0. -1.
         25    1    1    2    0    0  0.00000000000E+00  0.00000000000E+00  0.60806165961E+03  0.62077691797E+03  0.12500000000E+03 0.  0.
<mgrwt>
<rscale>  2 0.12500000E+03</rscale>
<asrwt>0</asrwt>
<pdfrwt beam="1">  1       21 0.94525998E-01 0.12500000E+03</pdfrwt>
<pdfrwt beam="2">  1       21 0.97809728E-03 0.12500000E+03</pdfrwt>
<totfact> 0.36169578E+06</totfact>
</mgrwt>
</event>
<event>
 3    0  0.1706659E+001  0.1250000E+03  0.7546771E-02  0.1235069E+00
         21   -1    0    0  502  501  0.00000000000E+00  0.00000000000E+00  0.47217691673E+02  0.47217691673E+02  0.00000000000E+00 0. -1.
         21   -1    0    0  501  502 -0.00000000000E+00 -0.00000000000E+00 -0.82728525296E+02  0.82728525296E+02  0.00000000000E+00 0. -1.
         25    1    1    2    0    0  0.00000000000E+00  0.00000000000E+00 -0.35510833623E+02  0.12994621697E+03  0.12500000000E+03 0.  0.
<mgrwt>
<rscale>  2 0.12500000E+03</rscale>
<asrwt>0</asrwt>
<pdfrwt beam="1">  1       21 0.72642603E-02 0.12500000E+03</pdfrwt>
<pdfrwt beam="2">  1       21 0.12727465E-01 0.12500000E+03</pdfrwt>
<totfact> 0.73372104E+06</totfact>
</mgrwt>
</event>
<event>
 3    0  0.1681744E+001  0.1250000E+03  0.7546771E-02  0.1235069E+00
         21   -1    0    0  502  501  0.00000000000E+00  0.00000000000E+00  0.22793014720E+02  0.22793014720E+02  0.00000000000E+00 0.  1.
         21   -1    0    0  501  502 -0.00000000000E+00 -0.00000000000E+00 -0.17137926018E+03  0.17137926018E+03  0.00000000000E+00 0.  1.
         25    1    1    2    0    0  0.00000000000E+00  0.00000000000E+00 -0.14858624546E+03  0.19417227490E+03  0.12500000000E+03 0.  0.
<mgrwt>
<rscale>  2 0.12500000E+03</rscale>
<asrwt>0</asrwt>
<pdfrwt beam="1">  1       21 0.35066175E-02 0.12500000E+03</pdfrwt>
<pdfrwt beam="2">  1       21 0.26366042E-01 0.12500000E+03</pdfrwt>
<totfact> 0.65561727E+06</totfact>
</mgrwt>
</event>
<event>
 3    0  0.1379011E+001  0.1250000E+03  0.7546771E-02  0.1235069E+00
         21   -1    0    0  502  501  0.00000000000E+00  0.00000000000E+00  0.52094686794E+01  0.52094686794E+01  0.00000000000E+00 0.  1.
         21   -1    0    0  501  502 -0.00000000000E+00 -0.00000000000E+00 -0.74983654580E+03  0.74983654580E+03  0.00000000000E+00 0.  1.
         25    1    1    2    0    0  0.00000000000E+00  0.00000000000E+00 -0.74462707712E+03  0.75504601448E+03  0.12500000000E+03 0.  0.
<mgrwt>
<rscale>  2 0.12500000E+03</rscale>
<asrwt>0</asrwt>
<pdfrwt beam="1">  1       21 0.80145752E-03 0.12500000E+03</pdfrwt>
<pdfrwt beam="2">  1       21 0.11535935E+00 0.12500000E+03</pdfrwt>
<totfact> 0.30892201E+06</totfact>
</mgrwt>
</event>
<event>
 3    0  0.1576121E+001  0.1250000E+03  0.7546771E-02  0.1235069E+00
         21   -1    0    0  502  501  0.00000000000E+00  0.00000000000E+00  0.10905554155E+02  0.10905554155E+02  0.00000000000E+00 0.  1.
         21   -1    0    0  501  502 -0.00000000000E+00 -0.00000000000E+00 -0.35818904242E+03  0.35818904242E+03  0.00000000000E+00 0.  1.
         25    1    1    2    0    0  0.00000000000E+00  0.00000000000E+00 -0.34728348827E+03  0.36909459658E+03  0.12500000000E+03 0.  0.
<mgrwt>
<rscale>  2 0.12500000E+03</rscale>
<asrwt>0</asrwt>
<pdfrwt beam="1">  1       21 0.16777774E-02 0.12500000E+03</pdfrwt>
<pdfrwt beam="2">  1       21 0.55106012E-01 0.12500000E+03</pdfrwt>
<totfact> 0.50158421E+06</totfact>
</mgrwt>
</event>
<event>
 3    0  0.1368989E+001  0.1250000E+03  0.7546771E-02  0.1235069E+00
         21   -1    0    0  502  501  0.00000000000E+00  0.00000000000E+00  0.70462115164E+03  0.70462115164E+03  0.00000000000E+00 0. -1.
         21   -1    0    0  501  502 -0.00000000000E+00 -0.00000000000E+00 -0.55437592114E+01  0.55437592114E+01  0.00000000000E+00 0. -1.
         25    1    1    2    0    0  0.00000000000E+00  0.00000000000E+00  0.69907739243E+03  0.71016491086E+03  0.12500000000E+03 0.  0.
<mgrwt>
<rscale>  2 0.12500000E+03</rscale>
<asrwt>0</asrwt>
<pdfrwt beam="1">  1       21 0.10840318E+00 0.12500000E+03</pdfrwt>
<pdfrwt beam="2">  1       21 0.85288659E-03 0.12500000E+03</pdfrwt>
<totfact> 0.32521933E+06</totfact>
</mgrwt>
</event>
<event>
 3    0  0.1368989E+001  0.1250000E+03  0.7546771E-02  0.1235069E+00
         21   -1    0    0  502  501  0.00000000000E+00  0.00000000000E+00  0.95846076442E+03  0.95846076442E+03  0.00000000000E+00 0. -1.
         21   -1    0    0  501  502 -0.00000000000E+00 -0.00000000000E+00 -0.40755450249E+01  0.40755450249E+01  0.00000000000E+00 0. -1.
         25    1    1    2    0    0  0.00000000000E+00  0.00000000000E+00  0.95438521939E+03  0.96253630944E+03  0.12500000000E+03 0.  0.
<mgrwt>
<rscale>  2 0.12500000E+03</rscale>
<asrwt>0</asrwt>
<pdfrwt beam="1">  1       21 0.14745532E+00 0.12500000E+03</pdfrwt>
<pdfrwt beam="2">  1       21 0.62700769E-03 0.12500000E+03</pdfrwt>
<totfact> 0.24578769E+06</totfact>
</mgrwt>
</event>
<event>
 3    0  0.1730900E+001  0.1250000E+03  0.7546771E-02  0.1235069E+00
         21   -1    0    0  502  501  0.00000000000E+00  0.00000000000E+00  0.85731018883E+02  0.85731018883E+02  0.00000000000E+00 0.  1.
         21   -1    0    0  501  502 -0.00000000000E+00 -0.00000000000E+00 -0.45564021645E+02  0.45564021645E+02  0.00000000000E+00 0.  1.
         25    1    1    2    0    0  0.00000000000E+00  0.00000000000E+00  0.40166997238E+02  0.13129504053E+03  0.12500000000E+03 0.  0.
<mgrwt>
<rscale>  2 0.12500000E+03</rscale>
<asrwt>0</asrwt>
<pdfrwt beam="1">  1       21 0.13189387E-01 0.12500000E+03</pdfrwt>
<pdfrwt beam="2">  1       21 0.70098495E-02 0.12500000E+03</pdfrwt>
<totfact> 0.73190940E+06</totfact>
</mgrwt>
</event>
<event>
 3    0  0.1582210E+001  0.1250000E+03  0.7546771E-02  0.1235069E+00
         21   -1    0    0  502  501  0.00000000000E+00  0.00000000000E+00  0.12581835161E+02  0.12581835161E+02  0.00000000000E+00 0. -1.
         21   -1    0    0  501  502 -0.00000000000E+00 -0.00000000000E+00 -0.31046742785E+03  0.31046742785E+03  0.00000000000E+00 0. -1.
         25    1    1    2    0    0  0.00000000000E+00  0.00000000000E+00 -0.29788559269E+03  0.32304926301E+03  0.12500000000E+03 0.  0.
<mgrwt>
<rscale>  2 0.12500000E+03</rscale>
<asrwt>0</asrwt>
<pdfrwt beam="1">  1       21 0.19356670E-02 0.12500000E+03</pdfrwt>
<pdfrwt beam="2">  1       21 0.47764219E-01 0.12500000E+03</pdfrwt>
<totfact> 0.53592585E+06</totfact>
</mgrwt>
</event>
<event>
 3    0  0.1682952E+001  0.1250000E+03  0.7546771E-02  0.1235069E+00
         21   -1    0    0  502  501  0.00000000000E+00  0.00000000000E+00  0.17075273767E+03  0.17075273767E+03  0.00000000000E+00 0.  1.
         21   -1    0    0  501  502 -0.00000000000E+00 -0.00000000000E+00 -0.22876646392E+02  0.22876646392E+02  0.00000000000E+00 0.  1.
         25    1    1    2    0    0  0.00000000000E+00  0.00000000000E+00  0.14787609128E+03  0.19362938406E+03  0.12500000000E+03 0.  0.
<mgrwt>
<rscale>  2 0.12500000E+03</rscale>
<asrwt>0</asrwt>
<pdfrwt beam="1">  1       21 0.26269651E-01 0.12500000E+03</pdfrwt>
<pdfrwt beam="2">  1       21 0.35194842E-02 0.12500000E+03</pdfrwt>
<totfact> 0.65621345E+06</totfact>
</mgrwt>
</event>
<event>
 3    0  0.1681945E+001  0.1250000E+03  0.7546771E-02  0.1235069E+00
         21   -1    0    0  502  501  0.00000000000E+00  0.00000000000E+00  0.22803943691E+02  0.22803943691E+02  0.00000000000E+00 0.  1.
         21   -1    0    0  501  502 -0.00000000000E+00 -0.00000000000E+00 -0.17129712531E+03  0.17129712531E+03  0.00000000000E+00 0.  1.
         25    1    1    2    0    0  0.00000000000E+00  0.00000000000E+00 -0.14849318162E+03  0.19410106900E+03  0.12500000000E+03 0.  0.
<mgrwt>
<rscale>  2 0.12500000E+03</rscale>
<asrwt>0</asrwt>
<pdfrwt beam="1">  1       21 0.35082991E-02 0.12500000E+03</pdfrwt>
<pdfrwt beam="2">  1       21 0.26353403E-01 0.12500000E+03</pdfrwt>
<totfact> 0.65569542E+06</totfact>
</mgrwt>
</event>
<event>
 3    0  0.1368989E+001  0.1250000E+03  0.7546771E-02  0.1235069E+00
         21   -1    0    0  502  501  0.00000000000E+00  0.00000000000E+00  0.34938323588E+01  0.34938323588E+01  0.00000000000E+00 0.  1.
         21   -1    0    0  501  502 -0.00000000000E+00 -0.00000000000E+00 -0.11180416227E+04  0.11180416227E+04  0.00000000000E+00 0.  1.
         25    1    1    2    0    0  0.00000000000E+00  0.00000000000E+00 -0.11145477904E+04  0.11215354551E+04  0.12500000000E+03 0.  0.
<mgrwt>
<rscale>  2 0.12500000E+03</rscale>
<asrwt>0</asrwt>
<pdfrwt beam="1">  1       21 0.53751265E-03 0.12500000E+03</pdfrwt>
<pdfrwt beam="2">  1       21 0.17200641E+00 0.12500000E+03</pdfrwt>
<totfact> 0.20778722E+06</totfact>
</mgrwt>
</event>
<event>
 3    0  0.1580196E+001  0.1250000E+03  0.7546771E-02  0.1235069E+00
         21   -1    0    0  502  501  0.00000000000E+00  0.00000000000E+00  0.13317677327E+02  0.13317677327E+02  0.00000000000E+00 0. -1.
         21   -1    0    0  501  502 -0.00000000000E+00 -0.00000000000E+00 -0.29331315844E+03  0.29331315844E+03  0.00000000000E+00 0. -1.
         25    1    1    2    0    0  0.00000000000E+00  0.00000000000E+00 -0.27999548111E+03  0.30663083577E+03  0.12500000000E+03 0.  0.
<mgrwt>
<rscale>  2 0.12500000E+03</rscale>
<asrwt>0</asrwt>
<pdfrwt beam="1">  1       21 0.20488736E-02 0.12500000E+03</pdfrwt>
<pdfrwt beam="2">  1       21 0.45125099E-01 0.12500000E+03</pdfrwt>
<totfact> 0.54909589E+06</totfact>
</mgrwt>
</event>
<event>
 3    0  0.1624591E+001  0.1250000E+03  0.7546771E-02  0.1235069E+00
         21   -1    0    0  502  501  0.00000000000E+00  0.00000000000E+00  0.25997208138E+03  0.25997208138E+03  0.00000000000E+00 0.  1.
         21   -1    0    0  501  502 -0.00000000000E+00 -0.00000000000E+00 -0.15025651906E+02  0.15025651906E+02  0.00000000000E+00 0.  1.
         25    1    1    2    0    0  0.00000000000E+00  0.00000000000E+00  0.24494642947E+03  0.27499773329E+03  0.12500000000E+03 0.  0.
<mgrwt>
<rscale>  2 0.12500000E+03</rscale>
<asrwt>0</asrwt>
<pdfrwt beam="1">  1       21 0.39995701E-01 0.12500000E+03</pdfrwt>
<pdfrwt beam="2">  1       21 0.23116390E-02 0.12500000E+03</pdfrwt>
<totfact> 0.57600142E+06</totfact>
</mgrwt>
</event>
<event>
 3    0  0.1696825E+001  0.1250000E+03  0.7546771E-02  0.1235069E+00
         21   -1    0    0  502  501  0.00000000000E+00  0.00000000000E+00  0.16508223736E+03  0.16508223736E+03  0.00000000000E+00 0.  1.
         21   -1    0    0  501  502 -0.00000000000E+00 -0.00000000000E+00 -0.23662448864E+02  0.23662448864E+02  0.00000000000E+00 0.  1.
         25    1    1    2    0    0  0.00000000000E+00  0.00000000000E+00  0.14141978850E+03  0.18874468623E+03  0.12500000000E+03 0.  0.
<mgrwt>
<rscale>  2 0.12500000E+03</rscale>
<asrwt>0</asrwt>
<pdfrwt beam="1">  1       21 0.25397267E-01 0.12500000E+03</pdfrwt>
<pdfrwt beam="2">  1       21 0.36403769E-02 0.12500000E+03</pdfrwt>
<totfact> 0.66162253E+06</totfact>
</mgrwt>
</event>
<event>
 3    0  0.1659351E+001  0.1250000E+03  0.7546771E-02  0.1235069E+00
         21   -1    0    0  502  501  0.00000000000E+00  0.00000000000E+00  0.22112583154E+02  0.22112583154E+02  0.00000000000E+00 0. -1.
         21   -1    0    0  501  502 -0.00000000000E+00 -0.00000000000E+00 -0.17665281224E+03  0.17665281224E+03  0.00000000000E+00 0. -1.
         25    1    1    2    0    0  0.00000000000E+00  0.00000000000E+00 -0.15454022908E+03  0.19876539539E+03  0.12500000000E+03 0.  0.
<mgrwt>
<rscale>  2 0.12500000E+03</rscale>
<asrwt>0</asrwt>
<pdfrwt beam="1">  1       21 0.34019359E-02 0.12500000E+03</pdfrwt>
<pdfrwt beam="2">  1       21 0.27177356E-01 0.12500000E+03</pdfrwt>
<totfact> 0.65061248E+06</totfact>
</mgrwt>
</event>
<event>
 3    0  0.1698708E+001  0.1250000E+03  0.7546771E-02  0.1235069E+00
         21   -1    0    0  502  501  0.00000000000E+00  0.00000000000E+00  0.38459655897E+02  0.38459655897E+02  0.00000000000E+00 0. -1.
         21   -1    0    0  501  502 -0.00000000000E+00 -0.00000000000E+00 -0.10156747139E+03  0.10156747139E+03  0.00000000000E+00 0. -1.
         25    1    1    2    0    0  0.00000000000E+00  0.00000000000E+00 -0.63107815495E+02  0.14002712729E+03  0.12500000000E+03 0.  0.
<mgrwt>
<rscale>  2 0.12500000E+03</rscale>
<asrwt>0</asrwt>
<pdfrwt beam="1">  1       21 0.59168702E-02 0.12500000E+03</pdfrwt>
<pdfrwt beam="2">  1       21 0.15625765E-01 0.12500000E+03</pdfrwt>
<totfact> 0.72035767E+06</totfact>
</mgrwt>
</event>
<event>
 3    0  0.1368989E+001  0.1250000E+03  0.7546771E-02  0.1235069E+00
         21   -1    0    0  502  501  0.00000000000E+00  0.00000000000E+00  0.94733570669E+03  0.94733570669E+03  0.00000000000E+00 0.  1.
         21   -1    0    0  501  502 -0.00000000000E+00 -0.00000000000E+00 -0.41234062776E+01  0.41234062776E+01  0.00000000000E+00 0.  1.
         25    1    1    2    0    0  0.00000000000E+00  0.00000000000E+00  0.94321230041E+03  0.95145911297E+03  0.12500000000E+03 0.  0.
<mgrwt>
<rscale>  2 0.12500000E+03</rscale>
<asrwt>0</asrwt>
<pdfrwt beam="1">  1       21 0.14574378E+00 0.12500000E+03</pdfrwt>
<pdfrwt beam="2">  1       21 0.63437095E-03 0.12500000E+03</pdfrwt>
<totfact> 0.24872408E+06</totfact>
</mgrwt>
</event>
<event>
 3    0  0.1691606E+001  0.1250000E+03  0.7546771E-02  0.1235069E+00
         21   -1    0    0  502  501  0.00000000000E+00  0.00000000000E+00  0.11514140489E+03  0.11514140489E+03  0.00000000000E+00 0. -1.
         21   -1    0    0  501  502 -0.00000000000E+00 -0.00000000000E+00 -0.33925676029E+02  0.33925676029E+02  0.00000000000E+00 0. -1.
         25    1    1    2    0    0  0.00000000000E+00  0.00000000000E+00  0.81215728865E+02  0.14906708092E+03  0.12500000000E+03 0.  0.
<mgrwt>
<rscale>  2 0.12500000E+03</rscale>
<asrwt>0</asrwt>
<pdfrwt beam="1">  1       21 0.17714062E-01 0.12500000E+03</pdfrwt>
<pdfrwt beam="2">  1       21 0.52193348E-02 0.12500000E+03</pdfrwt>
<totfact> 0.70876590E+06</totfact>
</mgrwt>
</event>
<event>
 3    0  0.1706338E+001  0.1250000E+03  0.7546771E-02  0.1235069E+00
         21   -1    0    0  502  501  0.00000000000E+00  0.00000000000E+00  0.29418018048E+02  0.29418018048E+02  0.00000000000E+00 0.  1.
         21   -1    0    0  501  502 -0.00000000000E+00 -0.00000000000E+00 -0.13278426826E+03  0.13278426826E+03  0.00000000000E+00 0.  1.
         25    1    1    2    0    0  0.00000000000E+00  0.00000000000E+00 -0.10336625021E+03  0.16220228630E+03  0.12500000000E+03 0.  0.
<mgrwt>
<rscale>  2 0.12500000E+03</rscale>
<asrwt>0</asrwt>
<pdfrwt beam="1">  1       21 0.45258489E-02 0.12500000E+03</pdfrwt>
<pdfrwt beam="2">  1       21 0.20428349E-01 0.12500000E+03</pdfrwt>
<totfact> 0.69251397E+06</totfact>
</mgrwt>
</event>
<event>
 3    0  0.1669441E+001  0.1250000E+03  0.7546771E-02  0.1235069E+00
         21   -1    0    0  502  501  0.00000000000E+00  0.00000000000E+00  0.15628908434E+03  0.15628908434E+03  0.00000000000E+00 0. -1.
         21   -1    0    0  501  502 -0.00000000000E+00 -0.00000000000E+00 -0.24993748070E+02  0.24993748070E+02  0.00000000000E+00 0. -1.
         25    1    1    2    0    0  0.00000000000E+00  0.00000000000E+00  0.13129533627E+03  0.18128283241E+03  0.12500000000E+03 0.  0.
<mgrwt>
<rscale>  2 0.12500000E+03</rscale>
<asrwt>0</asrwt>
<pdfrwt beam="1">  1       21 0.24044474E-01 0.12500000E+03</pdfrwt>
<pdfrwt beam="2">  1       21 0.38451921E-02 0.12500000E+03</pdfrwt>
<totfact> 0.67004678E+06</totfact>
</mgrwt>
</event>
<event>
 3    0  0.1736477E+001  0.1250000E+03  0.7546771E-02  0.1235069E+00
         21   -1    0    0  502  501  0.00000000000E+00  0.00000000000E+00  0.57264985876E+02  0.57264985876E+02  0.00000000000E+00 0.  1.
         21   -1    0    0  501  502 -0.00000000000E+00 -0.00000000000E+00 -0.68213585322E+02  0.68213585322E+02  0.00000000000E+00 0.  1.
         25    1    1    2    0    0  0.00000000000E+00  0.00000000000E+00 -0.10948599447E+02  0.12547857120E+03  0.12500000000E+03 0.  0.
<mgrwt>
<rscale>  2 0.12500000E+03</rscale>
<asrwt>0</asrwt>
<pdfrwt beam="1">  1       21 0.88099978E-02 0.12500000E+03</pdfrwt>
<pdfrwt beam="2">  1       21 0.10494398E-01 0.12500000E+03</pdfrwt>
<totfact> 0.73978394E+06</totfact>
</mgrwt>
</event>
<event>
 3    0  0.1690735E+001  0.1250000E+03  0.7546771E-02  0.1235069E+00
         21   -1    0    0  502  501  0.00000000000E+00  0.00000000000E+00  0.11555129167E+03  0.11555129167E+03  0.00000000000E+00 0. -1.
         21   -1    0    0  501  502 -0.00000000000E+00 -0.00000000000E+00 -0.33805333922E+02  0.33805333922E+02  0.00000000000E+00 0. -1.
         25    1    1    2    0    0  0.00000000000E+00  0.00000000000E+00  0.81745957746E+02  0.14935662559E+03  0.12500000000E+03 0.  0.
<mgrwt>
<rscale>  2 0.12500000E+03</rscale>
<asrwt>0</asrwt>
<pdfrwt beam="1">  1       21 0.17777122E-01 0.12500000E+03</pdfrwt>
<pdfrwt beam="2">  1       21 0.52008207E-02 0.12500000E+03</pdfrwt>
<totfact> 0.70840114E+06</totfact>
</mgrwt>
</event>
<event>
 3    0  0.1722019E+001  0.1250000E+03  0.7546771E-02  0.1235069E+00
         21   -1    0    0  502  501  0.00000000000E+00  0.00000000000E+00  0.34847854200E+02  0.34847854200E+02  0.00000000000E+00 0.  1.
         21   -1    0    0  501  502 -0.00000000000E+00 -0.00000000000E+00 -0.11209441986E+03  0.11209441986E+03  0.00000000000E+00 0.  1.
         25    1    1    2    0    0  0.00000000000E+00  0.00000000000E+00 -0.77246565664E+02  0.14694227406E+03  0.12500000000E+03 0.  0.
<mgrwt>
<rscale>  2 0.12500000E+03</rscale>
<asrwt>0</asrwt>
<pdfrwt beam="1">  1       21 0.53612083E-02 0.12500000E+03</pdfrwt>
<pdfrwt beam="2">  1       21 0.17245296E-01 0.12500000E+03</pdfrwt>
<totfact> 0.71145454E+06</totfact>
</mgrwt>
</event>
<event>
 3    0  0.1368989E+001  0.1250000E+03  0.7546771E-02  0.1235069E+00
         21   -1    0    0  502  501  0.00000000000E+00  0.00000000000E+00  0.12618771607E+04  0.12618771607E+04  0.00000000000E+00 0. -1.
         21   -1    0    0  501  502 -0.00000000000E+00 -0.00000000000E+00 -0.30955865766E+01  0.30955865766E+01  0.00000000000E+00 0. -1.
         25    1    1    2    0    0  0.00000000000E+00  0.00000000000E+00  0.12587815741E+04  0.12649727473E+04  0.12500000000E+03 0.  0.
<mgrwt>
<rscale>  2 0.12500000E+03</rscale>
<asrwt>0</asrwt>
<pdfrwt beam="1">  1       21 0.19413454E+00 0.12500000E+03</pdfrwt>
<pdfrwt beam="2">  1       21 0.47624510E-03 0.12500000E+03</pdfrwt>
<totfact> 0.17893265E+06</totfact>
</mgrwt>
</event>
<event>
 3    0  0.1562371E+001  0.1250000E+03  0.7546771E-02  0.1235069E+00
         21   -1    0    0  502  501  0.00000000000E+00  0.00000000000E+00  0.38080397514E+03  0.38080397514E+03  0.00000000000E+00 0.  1.
         21   -1    0    0  501  502 -0.00000000000E+00 -0.00000000000E+00 -0.10257902372E+02  0.10257902372E+02  0.00000000000E+00 0.  1.
         25    1    1    2    0    0  0.00000000000E+00  0.00000000000E+00  0.37054607277E+03  0.39106187751E+03  0.12500000000E+03 0.  0.
<mgrwt>
<rscale>  2 0.12500000E+03</rscale>
<asrwt>0</asrwt>
<pdfrwt beam="1">  1       21 0.58585216E-01 0.12500000E+03</pdfrwt>
<pdfrwt beam="2">  1       21 0.15781391E-02 0.12500000E+03</pdfrwt>
<totfact> 0.48639917E+06</totfact>
</mgrwt>
</event>
<event>
 3    0  0.1546441E+001  0.1250000E+03  0.7546771E-02  0.1235069E+00
         21   -1    0    0  502  501  0.00000000000E+00  0.00000000000E+00  0.11953584277E+02  0.11953584277E+02  0.00000000000E+00 0. -1.
         21   -1    0    0  501  502 -0.00000000000E+00 -0.00000000000E+00 -0.32678482952E+03  0.32678482952E+03  0.00000000000E+00 0. -1.
         25    1    1    2    0    0  0.00000000000E+00  0.00000000000E+00 -0.31483124525E+03  0.33873841380E+03  0.12500000000E+03 0.  0.
<mgrwt>
<rscale>  2 0.12500000E+03</rscale>
<asrwt>0</asrwt>
<pdfrwt beam="1">  1       21 0.18390129E-02 0.12500000E+03</pdfrwt>
<pdfrwt beam="2">  1       21 0.50274591E-01 0.12500000E+03</pdfrwt>
<totfact> 0.52381039E+06</totfact>
</mgrwt>
</event>
<event>
 3    0  0.1608191E+001  0.1250000E+03  0.7546771E-02  0.1235069E+00
         21   -1    0    0  502  501  0.00000000000E+00  0.00000000000E+00  0.30940191496E+03  0.30940191496E+03  0.00000000000E+00 0.  1.
         21   -1    0    0  501  502 -0.00000000000E+00 -0.00000000000E+00 -0.12625164264E+02  0.12625164264E+02  0.00000000000E+00 0.  1.
         25    1    1    2    0    0  0.00000000000E+00  0.00000000000E+00  0.29677675070E+03  0.32202707923E+03  0.12500000000E+03 0.  0.
<mgrwt>
<rscale>  2 0.12500000E+03</rscale>
<asrwt>0</asrwt>
<pdfrwt beam="1">  1       21 0.47600289E-01 0.12500000E+03</pdfrwt>
<pdfrwt beam="2">  1       21 0.19423332E-02 0.12500000E+03</pdfrwt>
<totfact> 0.53673100E+06</totfact>
</mgrwt>
</event>
<event>
 3    0  0.1734979E+001  0.1250000E+03  0.7546771E-02  0.1235069E+00
         21   -1    0    0  502  501  0.00000000000E+00  0.00000000000E+00  0.55297653428E+02  0.55297653428E+02  0.00000000000E+00 0.  1.
         21   -1    0    0  501  502 -0.00000000000E+00 -0.00000000000E+00 -0.70640429708E+02  0.70640429708E+02  0.00000000000E+00 0.  1.
         25    1    1    2    0    0  0.00000000000E+00  0.00000000000E+00 -0.15342776280E+02  0.12593808314E+03  0.12500000000E+03 0.  0.
<mgrwt>
<rscale>  2 0.12500000E+03</rscale>
<asrwt>0</asrwt>
<pdfrwt beam="1">  1       21 0.85073312E-02 0.12500000E+03</pdfrwt>
<pdfrwt beam="2">  1       21 0.10867758E-01 0.12500000E+03</pdfrwt>
<totfact> 0.73914581E+06</totfact>
</mgrwt>
</event>
<event>
 3    0  0.1701032E+001  0.1250000E+03  0.7546771E-02  0.1235069E+00
         21   -1    0    0  502  501  0.00000000000E+00  0.00000000000E+00  0.97755617319E+02  0.97755617319E+02  0.00000000000E+00 0. -1.
         21   -1    0    0  501  502 -0.00000000000E+00 -0.00000000000E+00 -0.39959340518E+02  0.39959340518E+02  0.00000000000E+00 0. -1.
         25    1    1    2    0    0  0.00000000000E+00  0.00000000000E+00  0.57796276801E+02  0.13771495784E+03  0.12500000000E+03 0.  0.
<mgrwt>
<rscale>  2 0.12500000E+03</rscale>
<asrwt>0</asrwt>
<pdfrwt beam="1">  1       21 0.15039326E-01 0.12500000E+03</pdfrwt>
<pdfrwt beam="2">  1       21 0.61475909E-02 0.12500000E+03</pdfrwt>
<totfact> 0.72338948E+06</totfact>
</mgrwt>
</event>
<event>
 3    0  0.1660021E+001  0.1250000E+03  0.7546771E-02  0.1235069E+00
         21   -1    0    0  502  501  0.00000000000E+00  0.00000000000E+00  0.19344645380E+03  0.19344645380E+03  0.00000000000E+00 0.  1.
         21   -1    0    0  501  502 -0.00000000000E+00 -0.00000000000E+00 -0.20192926380E+02  0.20192926380E+02  0.00000000000E+00 0.  1.
         25    1    1    2    0    0  0.00000000000E+00  0.00000000000E+00  0.17325352742E+03  0.21363938018E+03  0.12500000000E+03 0.  0.
<mgrwt>
<rscale>  2 0.12500000E+03</rscale>
<asrwt>0</asrwt>
<pdfrwt beam="1">  1       21 0.29760992E-01 0.12500000E+03</pdfrwt>
<pdfrwt beam="2">  1       21 0.31066042E-02 0.12500000E+03</pdfrwt>
<totfact> 0.63478655E+06</totfact>
</mgrwt>
</event>
<event>
 3    0  0.1462925E+001  0.1250000E+03  0.7546771E-02  0.1235069E+00
         21   -1    0    0  502  501  0.00000000000E+00  0.00000000000E+00  0.48955238996E+03  0.48955238996E+03  0.00000000000E+00 0. -1.
         21   -1    0    0  501  502 -0.00000000000E+00 -0.00000000000E+00 -0.79792277192E+01  0.79792277192E+01  0.00000000000E+00 0. -1.
         25    1    1    2    0    0  0.00000000000E+00  0.00000000000E+00  0.48157316224E+03  0.49753161768E+03  0.12500000000E+03 0.  0.
<mgrwt>
<rscale>  2 0.12500000E+03</rscale>
<asrwt>0</asrwt>
<pdfrwt beam="1">  1       21 0.75315729E-01 0.12500000E+03</pdfrwt>
<pdfrwt beam="2">  1       21 0.12275739E-02 0.12500000E+03</pdfrwt>
<totfact> 0.42178262E+06</totfact>
</mgrwt>
</event>
<event>
 3    0  0.1368989E+001  0.1250000E+03  0.7546771E-02  0.1235069E+00
         21   -1    0    0  502  501  0.00000000000E+00  0.00000000000E+00  0.45831931663E+01  0.45831931663E+01  0.00000000000E+00 0. -1.
         21   -1    0    0  501  502 -0.00000000000E+00 -0.00000000000E+00 -0.85229879220E+03  0.85229879220E+03  0.00000000000E+00 0. -1.
         25    1    1    2    0    0  0.00000000000E+00  0.00000000000E+00 -0.84771559903E+03  0.85688198536E+03  0.12500000000E+03 0.  0.
<mgrwt>
<rscale>  2 0.12500000E+03</rscale>
<asrwt>0</asrwt>
<pdfrwt beam="1">  1       21 0.70510706E-03 0.12500000E+03</pdfrwt>
<pdfrwt beam="2">  1       21 0.13112281E+00 0.12500000E+03</pdfrwt>
<totfact> 0.27562645E+06</totfact>
</mgrwt>
</event>
<event>
 3    0  0.1610564E+001  0.1250000E+03  0.7546771E-02  0.1235069E+00
         21   -1    0    0  502  501  0.00000000000E+00  0.00000000000E+00  0.16038105542E+02  0.16038105542E+02  0.00000000000E+00 0. -1.
         21   -1    0    0  501  502 -0.00000000000E+00 -0.00000000000E+00 -0.24356056205E+03  0.24356056205E+03  0.00000000000E+00 0. -1.
         25    1    1    2    0    0  0.00000000000E+00  0.00000000000E+00 -0.22752245651E+03  0.25959866759E+03  0.12500000000E+03 0.  0.
<mgrwt>
<rscale>  2 0.12500000E+03</rscale>
<asrwt>0</asrwt>
<pdfrwt beam="1">  1       21 0.24674009E-02 0.12500000E+03</pdfrwt>
<pdfrwt beam="2">  1       21 0.37470855E-01 0.12500000E+03</pdfrwt>
<totfact> 0.58986075E+06</totfact>
</mgrwt>
</event>
<event>
 3    0  0.1483162E+001  0.1250000E+03  0.7546771E-02  0.1235069E+00
         21   -1    0    0  502  501  0.00000000000E+00  0.00000000000E+00  0.81888000195E+01  0.81888000195E+01  0.00000000000E+00 0. -1.
         21   -1    0    0  501  502 -0.00000000000E+00 -0.00000000000E+00 -0.47702349437E+03  0.47702349437E+03  0.00000000000E+00 0. -1.
         25    1    1    2    0    0  0.00000000000E+00  0.00000000000E+00 -0.46883469435E+03  0.48521229439E+03  0.12500000000E+03 0.  0.
<mgrwt>
<rscale>  2 0.12500000E+03</rscale>
<asrwt>0</asrwt>
<pdfrwt beam="1">  1       21 0.12598152E-02 0.12500000E+03</pdfrwt>
<pdfrwt beam="2">  1       21 0.73388244E-01 0.12500000E+03</pdfrwt>
<totfact> 0.42857560E+06</totfact>
</mgrwt>
</event>
<event>
 3    0  0.1681108E+001  0.1250000E+03  0.7546771E-02  0.1235069E+00
         21   -1    0    0  502  501  0.00000000000E+00  0.00000000000E+00  0.22758358429E+02  0.22758358429E+02  0.00000000000E+00 0.  1.
         21   -1    0    0  501  502 -0.00000000000E+00 -0.00000000000E+00 -0.17164023548E+03  0.17164023548E+03  0.00000000000E+00 0.  1.
         25    1    1    2    0    0  0.00000000000E+00  0.00000000000E+00 -0.14888187705E+03  0.19439859391E+03  0.12500000000E+03 0.  0.
<mgrwt>
<rscale>  2 0.12500000E+03</rscale>
<asrwt>0</asrwt>
<pdfrwt beam="1">  1       21 0.35012860E-02 0.12500000E+03</pdfrwt>
<pdfrwt beam="2">  1       21 0.26406190E-01 0.12500000E+03</pdfrwt>
<totfact> 0.65536905E+06</totfact>
</mgrwt>
</event>
<event>
 3    0  0.1711435E+001  0.1250000E+03  0.7546771E-02  0.1235069E+00
         21   -1    0    0  502  501  0.00000000000E+00  0.00000000000E+00  0.72149530091E+02  0.72149530091E+02  0.00000000000E+00 0. -1.
         21   -1    0    0  501  502 -0.00000000000E+00 -0.00000000000E+00 -0.54141031758E+02  0.54141031758E+02  0.00000000000E+00 0. -1.
         25    1    1    2    0    0  0.00000000000E+00  0.00000000000E+00  0.18008498333E+02  0.12629056185E+03  0.12500000000E+03 0.  0.
<mgrwt>
<rscale>  2 0.12500000E+03</rscale>
<asrwt>0</asrwt>
<pdfrwt beam="1">  1       21 0.11099928E-01 0.12500000E+03</pdfrwt>
<pdfrwt beam="2">  1       21 0.83293895E-02 0.12500000E+03</pdfrwt>
<totfact> 0.73866074E+06</totfact>
</mgrwt>
</event>
<event>
 3    0  0.1621674E+001  0.1250000E+03  0.7546771E-02  0.1235069E+00
         21   -1    0    0  502  501  0.00000000000E+00  0.00000000000E+00  0.22632660869E+03  0.22632660869E+03  0.00000000000E+00 0. -1.
         21   -1    0    0  501  502 -0.00000000000E+00 -0.00000000000E+00 -0.17259349321E+02  0.17259349321E+02  0.00000000000E+00 0. -1.
         25    1    1    2    0    0  0.00000000000E+00  0.00000000000E+00  0.20906725937E+03  0.24358595801E+03  0.12500000000E+03 0.  0.
<mgrwt>
<rscale>  2 0.12500000E+03</rscale>
<asrwt>0</asrwt>
<pdfrwt beam="1">  1       21 0.34819476E-01 0.12500000E+03</pdfrwt>
<pdfrwt beam="2">  1       21 0.26552847E-02 0.12500000E+03</pdfrwt>
<totfact> 0.60487374E+06</totfact>
</mgrwt>
</event>
<event>
 3    0  0.1373655E+001  0.1250000E+03  0.7546771E-02  0.1235069E+00
         21   -1    0    0  502  501  0.00000000000E+00  0.00000000000E+00  0.60770380301E+03  0.60770380301E+03  0.00000000000E+00 0. -1.
         21   -1    0    0  501  502 -0.00000000000E+00 -0.00000000000E+00 -0.64278847370E+01  0.64278847370E+01  0.00000000000E+00 0. -1.
         25    1    1    2    0    0  0.00000000000E+00  0.00000000000E+00  0.60127591828E+03  0.61413168775E+03  0.12500000000E+03 0.  0.
<mgrwt>
<rscale>  2 0.12500000E+03</rscale>
<asrwt>0</asrwt>
<pdfrwt beam="1">  1       21 0.93492848E-01 0.12500000E+03</pdfrwt>
<pdfrwt beam="2">  1       21 0.98890582E-03 0.12500000E+03</pdfrwt>
<totfact> 0.36461255E+06</totfact>
</mgrwt>
</event>
<event>
 3    0  0.1719201E+001  0.1250000E+03  0.7546771E-02  0.1235069E+00
         21   -1    0    0  502  501  0.00000000000E+00  0.00000000000E+00  0.10379484808E+03  0.10379484808E+03  0.00000000000E+00 0.  1.
         21   -1    0    0  501  502 -0.00000000000E+00 -0.00000000000E+00 -0.37634334190E+02  0.37634334190E+02  0.00000000000E+00 0.  1.
         25    1    1    2    0    0  0.00000000000E+00  0.00000000000E+00  0.66160513895E+02  0.14142918227E+03  0.12500000000E+03 0.  0.
<mgrwt>
<rscale>  2 0.12500000E+03</rscale>
<asrwt>0</asrwt>
<pdfrwt beam="1">  1       21 0.15968438E-01 0.12500000E+03</pdfrwt>
<pdfrwt beam="2">  1       21 0.57898976E-02 0.12500000E+03</pdfrwt>
<totfact> 0.71853277E+06</totfact>
</mgrwt>
</event>
<event>
 3    0  0.1709423E+001  0.1250000E+03  0.7546771E-02  0.1235069E+00
         21   -1    0    0  502  501  0.00000000000E+00  0.00000000000E+00  0.77871899759E+02  0.77871899759E+02  0.00000000000E+00 0. -1.
         21   -1    0    0  501  502 -0.00000000000E+00 -0.00000000000E+00 -0.50162510637E+02  0.50162510637E+02  0.00000000000E+00 0. -1.
         25    1    1    2    0    0  0.00000000000E+00  0.00000000000E+00  0.27709389121E+02  0.12803441040E+03  0.12500000000E+03 0.  0.
<mgrwt>
<rscale>  2 0.12500000E+03</rscale>
<asrwt>0</asrwt>
<pdfrwt beam="1">  1       21 0.11980292E-01 0.12500000E+03</pdfrwt>
<pdfrwt beam="2">  1       21 0.77173093E-02 0.12500000E+03</pdfrwt>
<totfact> 0.73628911E+06</totfact>
</mgrwt>
</event>
<event>
 3    0  0.1459166E+001  0.1250000E+03  0.7546771E-02  0.1235069E+00
         21   -1    0    0  502  501  0.00000000000E+00  0.00000000000E+00  0.52795317872E+03  0.52795317872E+03  0.00000000000E+00 0. -1.
         21   -1    0    0  501  502 -0.00000000000E+00 -0.00000000000E+00 -0.73988568635E+01  0.73988568635E+01  0.00000000000E+00 0. -1.
         25    1    1    2    0    0  0.00000000000E+00  0.00000000000E+00  0.52055432186E+03  0.53535203559E+03  0.12500000000E+03 0.  0.
<mgrwt>
<rscale>  2 0.12500000E+03</rscale>
<asrwt>0</asrwt>
<pdfrwt beam="1">  1       21 0.81223537E-01 0.12500000E+03</pdfrwt>
<pdfrwt beam="2">  1       21 0.11382861E-02 0.12500000E+03</pdfrwt>
<totfact> 0.40189543E+06</totfact>
</mgrwt>
</event>
<event>
 3    0  0.1544685E+001  0.1250000E+03  0.7546771E-02  0.1235069E+00
         21   -1    0    0  502  501  0.00000000000E+00  0.00000000000E+00  0.10292388000E+02  0.10292388000E+02  0.00000000000E+00 0. -1.
         21   -1    0    0  501  502 -0.00000000000E+00 -0.00000000000E+00 -0.37952805509E+03  0.37952805509E+03  0.00000000000E+00 0. -1.
         25    1    1    2    0    0  0.00000000000E+00  0.00000000000E+00 -0.36923566709E+03  0.38982044309E+03  0.12500000000E+03 0.  0.
<mgrwt>
<rscale>  2 0.12500000E+03</rscale>
<asrwt>0</asrwt>
<pdfrwt beam="1">  1       21 0.15834442E-02 0.12500000E+03</pdfrwt>
<pdfrwt beam="2">  1       21 0.58388935E-01 0.12500000E+03</pdfrwt>
<totfact> 0.48723959E+06</totfact>
</mgrwt>
</event>
<event>
 3    0  0.1473767E+001  0.1250000E+03  0.7546771E-02  0.1235069E+00
         21   -1    0    0  502  501  0.00000000000E+00  0.00000000000E+00  0.53147972838E+03  0.53147972838E+03  0.00000000000E+00 0.  1.
         21   -1    0    0  501  502 -0.00000000000E+00 -0.00000000000E+00 -0.73497629192E+01  0.73497629192E+01  0.00000000000E+00 0.  1.
         25    1    1    2    0    0  0.00000000000E+00  0.00000000000E+00  0.52412996547E+03  0.53882949130E+03  0.12500000000E+03 0.  0.
<mgrwt>
<rscale>  2 0.12500000E+03</rscale>
<asrwt>0</asrwt>
<pdfrwt beam="1">  1       21 0.81766082E-01 0.12500000E+03</pdfrwt>
<pdfrwt beam="2">  1       21 0.11307332E-02 0.12500000E+03</pdfrwt>
<totfact> 0.40013638E+06</totfact>
</mgrwt>
</event>
<event>
 3    0  0.1368989E+001  0.1250000E+03  0.7546771E-02  0.1235069E+00
         21   -1    0    0  502  501  0.00000000000E+00  0.00000000000E+00  0.34175788248E+01  0.34175788248E+01  0.00000000000E+00 0. -1.
         21   -1    0    0  501  502 -0.00000000000E+00 -0.00000000000E+00 -0.11429875360E+04  0.11429875360E+04  0.00000000000E+00 0. -1.
         25    1    1    2    0    0  0.00000000000E+00  0.00000000000E+00 -0.11395699572E+04  0.11464051148E+04  0.12500000000E+03 0.  0.
<mgrwt>
<rscale>  2 0.12500000E+03</rscale>
<asrwt>0</asrwt>
<pdfrwt beam="1">  1       21 0.52578156E-03 0.12500000E+03</pdfrwt>
<pdfrwt beam="2">  1       21 0.17584417E+00 0.12500000E+03</pdfrwt>
<totfact> 0.20245233E+06</totfact>
</mgrwt>
</event>
<event>
 3    0  0.1734986E+001  0.1250000E+03  0.7546771E-02  0.1235069E+00
         21   -1    0    0  502  501  0.00000000000E+00  0.00000000000E+00  0.50646527275E+02  0.50646527275E+02  0.00000000000E+00 0.  1.
         21   -1    0    0  501  502 -0.00000000000E+00 -0.00000000000E+00 -0.77127696807E+02  0.77127696807E+02  0.00000000000E+00 0.  1.
         25    1    1    2    0    0  0.00000000000E+00  0.00000000000E+00 -0.26481169531E+02  0.12777422408E+03  0.12500000000E+03 0.  0.
<mgrwt>
<rscale>  2 0.12500000E+03</rscale>
<asrwt>0</asrwt>
<pdfrwt beam="1">  1       21 0.77917735E-02 0.12500000E+03</pdfrwt>
<pdfrwt beam="2">  1       21 0.11865799E-01 0.12500000E+03</pdfrwt>
<totfact> 0.73664081E+06</totfact>
</mgrwt>
</event>
<event>
 3    0  0.1368989E+001  0.1250000E+03  0.7546771E-02  0.1235069E+00
         21   -1    0    0  502  501  0.00000000000E+00  0.00000000000E+00  0.19943356982E+01  0.19943356982E+01  0.00000000000E+00 0.  1.
         21   -1    0    0  501  502 -0.00000000000E+00 -0.00000000000E+00 -0.19586722554E+04  0.19586722554E+04  0.00000000000E+00 0.  1.
         25    1    1    2    0    0  0.00000000000E+00  0.00000000000E+00 -0.19566779197E+04  0.19606665911E+04  0.12500000000E+03 0.  0.
<mgrwt>
<rscale>  2 0.12500000E+03</rscale>
<asrwt>0</asrwt>
<pdfrwt beam="1">  1       21 0.30682143E-03 0.12500000E+03</pdfrwt>
<pdfrwt beam="2">  1       21 0.30133365E+00 0.12500000E+03</pdfrwt>
<totfact> 0.83380372E+05</totfact>
</mgrwt>
</event>
<event>
 3    0  0.1718780E+001  0.1250000E+03  0.7546771E-02  0.1235069E+00
         21   -1    0    0  502  501  0.00000000000E+00  0.00000000000E+00  0.37615492854E+02  0.37615492854E+02  0.00000000000E+00 0.  1.
         21   -1    0    0  501  502 -0.00000000000E+00 -0.00000000000E+00 -0.10384683819E+03  0.10384683819E+03  0.00000000000E+00 0.  1.
         25    1    1    2    0    0  0.00000000000E+00  0.00000000000E+00 -0.66231345341E+02  0.14146233105E+03  0.12500000000E+03 0.  0.
<mgrwt>
<rscale>  2 0.12500000E+03</rscale>
<asrwt>0</asrwt>
<pdfrwt beam="1">  1       21 0.57869989E-02 0.12500000E+03</pdfrwt>
<pdfrwt beam="2">  1       21 0.15976437E-01 0.12500000E+03</pdfrwt>
<totfact> 0.71848975E+06</totfact>
</mgrwt>
</event>
<event>
 3    0  0.1735817E+001  0.1250000E+03  0.7546771E-02  0.1235069E+00
         21   -1    0    0  502  501  0.00000000000E+00  0.00000000000E+00  0.68835401339E+02  0.68835401339E+02  0.00000000000E+00 0.  1.
         21   -1    0    0  501  502 -0.00000000000E+00 -0.00000000000E+00 -0.56747689764E+02  0.56747689764E+02  0.00000000000E+00 0.  1.
         25    1    1    2    0    0  0.00000000000E+00  0.00000000000E+00  0.12087711575E+02  0.12558309110E+03  0.12500000000E+03 0.  0.
<mgrwt>
<rscale>  2 0.12500000E+03</rscale>
<asrwt>0</asrwt>
<pdfrwt beam="1">  1       21 0.10590062E-01 0.12500000E+03</pdfrwt>
<pdfrwt beam="2">  1       21 0.87304138E-02 0.12500000E+03</pdfrwt>
<totfact> 0.73963798E+06</totfact>
</mgrwt>
</event>
<event>
 3    0  0.1428343E+001  0.1250000E+03  0.7546771E-02  0.1235069E+00
         21   -1    0    0  502  501  0.00000000000E+00  0.00000000000E+00  0.70348304766E+01  0.70348304766E+01  0.00000000000E+00 0.  1.
         21   -1    0    0  501  502 -0.00000000000E+00 -0.00000000000E+00 -0.55527279769E+03  0.55527279769E+03  0.00000000000E+00 0.  1.
         25    1    1    2    0    0  0.00000000000E+00  0.00000000000E+00 -0.54823796721E+03  0.56230762816E+03  0.12500000000E+03 0.  0.
<mgrwt>
<rscale>  2 0.12500000E+03</rscale>
<asrwt>0</asrwt>
<pdfrwt beam="1">  1       21 0.10822814E-02 0.12500000E+03</pdfrwt>
<pdfrwt beam="2">  1       21 0.85426604E-01 0.12500000E+03</pdfrwt>
<totfact> 0.38854653E+06</totfact>
</mgrwt>
</event>
<event>
 3    0  0.1729036E+001  0.1250000E+03  0.7546771E-02  0.1235069E+00
         21   -1    0    0  502  501  0.00000000000E+00  0.00000000000E+00  0.91134258239E+02  0.91134258239E+02  0.00000000000E+00 0.  1.
         21   -1    0    0  501  502 -0.00000000000E+00 -0.00000000000E+00 -0.42862586205E+02  0.42862586205E+02  0.00000000000E+00 0.  1.
         25    1    1    2    0    0  0.00000000000E+00  0.00000000000E+00  0.48271672034E+02  0.13399684444E+03  0.12500000000E+03 0.  0.
<mgrwt>
<rscale>  2 0.12500000E+03</rscale>
<asrwt>0</asrwt>
<pdfrwt beam="1">  1       21 0.14020655E-01 0.12500000E+03</pdfrwt>
<pdfrwt beam="2">  1       21 0.65942440E-02 0.12500000E+03</pdfrwt>
<totfact> 0.72829573E+06</totfact>
</mgrwt>
</event>
<event>
 3    0  0.1719316E+001  0.1250000E+03  0.7546771E-02  0.1235069E+00
         21   -1    0    0  502  501  0.00000000000E+00  0.00000000000E+00  0.10373668706E+03  0.10373668706E+03  0.00000000000E+00 0.  1.
         21   -1    0    0  501  502 -0.00000000000E+00 -0.00000000000E+00 -0.37655434261E+02  0.37655434261E+02  0.00000000000E+00 0.  1.
         25    1    1    2    0    0  0.00000000000E+00  0.00000000000E+00  0.66081252799E+02  0.14139212132E+03  0.12500000000E+03 0.  0.
<mgrwt>
<rscale>  2 0.12500000E+03</rscale>
<asrwt>0</asrwt>
<pdfrwt beam="1">  1       21 0.15959490E-01 0.12500000E+03</pdfrwt>
<pdfrwt beam="2">  1       21 0.57931438E-02 0.12500000E+03</pdfrwt>
<totfact> 0.71858087E+06</totfact>
</mgrwt>
</event>
<event>
 3    0  0.1735734E+001  0.1250000E+03  0.7546771E-02  0.1235069E+00
         21   -1    0    0  502  501  0.00000000000E+00  0.00000000000E+00  0.68978606335E+02  0.68978606335E+02  0.00000000000E+00 0.  1.
         21   -1    0    0  501  502 -0.00000000000E+00 -0.00000000000E+00 -0.56629877110E+02  0.56629877110E+02  0.00000000000E+00 0.  1.
         25    1    1    2    0    0  0.00000000000E+00  0.00000000000E+00  0.12348729225E+02  0.12560848345E+03  0.12500000000E+03 0.  0.
<mgrwt>
<rscale>  2 0.12500000E+03</rscale>
<asrwt>0</asrwt>
<pdfrwt beam="1">  1       21 0.10612093E-01 0.12500000E+03</pdfrwt>
<pdfrwt beam="2">  1       21 0.87122888E-02 0.12500000E+03</pdfrwt>
<totfact> 0.73960261E+06</totfact>
</mgrwt>
</event>
<event>
 3    0  0.1582551E+001  0.1250000E+03  0.7546771E-02  0.1235069E+00
         21   -1    0    0  502  501  0.00000000000E+00  0.00000000000E+00  0.29237188081E+03  0.29237188081E+03  0.00000000000E+00 0. -1.
         21   -1    0    0  501  502 -0.00000000000E+00 -0.00000000000E+00 -0.13360552968E+02  0.13360552968E+02  0.00000000000E+00 0. -1.
         25    1    1    2    0    0  0.00000000000E+00  0.00000000000E+00  0.27901132784E+03  0.30573243378E+03  0.12500000000E+03 0.  0.
<mgrwt>
<rscale>  2 0.12500000E+03</rscale>
<asrwt>0</asrwt>
<pdfrwt beam="1">  1       21 0.44980285E-01 0.12500000E+03</pdfrwt>
<pdfrwt beam="2">  1       21 0.20554699E-02 0.12500000E+03</pdfrwt>
<totfact> 0.54983128E+06</totfact>
</mgrwt>
</event>
<event>
 3    0  0.1712546E+001  0.1250000E+03  0.7546771E-02  0.1235069E+00
         21   -1    0    0  502  501  0.00000000000E+00  0.00000000000E+00  0.60554813353E+02  0.60554813353E+02  0.00000000000E+00 0. -1.
         21   -1    0    0  501  502 -0.00000000000E+00 -0.00000000000E+00 -0.64507671376E+02  0.64507671376E+02  0.00000000000E+00 0. -1.
         25    1    1    2    0    0  0.00000000000E+00  0.00000000000E+00 -0.39528580225E+01  0.12506248473E+03  0.12500000000E+03 0.  0.
<mgrwt>
<rscale>  2 0.12500000E+03</rscale>
<asrwt>0</asrwt>
<pdfrwt beam="1">  1       21 0.93161252E-02 0.12500000E+03</pdfrwt>
<pdfrwt beam="2">  1       21 0.99242571E-02 0.12500000E+03</pdfrwt>
<totfact> 0.74035142E+06</totfact>
</mgrwt>
</event>
<event>
 3    0  0.1588854E+001  0.1250000E+03  0.7546771E-02  0.1235069E+00
         21   -1    0    0  502  501  0.00000000000E+00  0.00000000000E+00  0.27460815921E+03  0.27460815921E+03  0.00000000000E+00 0. -1.
         21   -1    0    0  501  502 -0.00000000000E+00 -0.00000000000E+00 -0.14224814045E+02  0.14224814045E+02  0.00000000000E+00 0. -1.
         25    1    1    2    0    0  0.00000000000E+00  0.00000000000E+00  0.26038334517E+03  0.28883297326E+03  0.12500000000E+03 0.  0.
<mgrwt>
<rscale>  2 0.12500000E+03</rscale>
<asrwt>0</asrwt>
<pdfrwt beam="1">  1       21 0.42247405E-01 0.12500000E+03</pdfrwt>
<pdfrwt beam="2">  1       21 0.21884331E-02 0.12500000E+03</pdfrwt>
<totfact> 0.56397158E+06</totfact>
</mgrwt>
</event>
<event>
 3    0  0.1419586E+001  0.1250000E+03  0.7546771E-02  0.1235069E+00
         21   -1    0    0  502  501  0.00000000000E+00  0.00000000000E+00  0.51336957797E+03  0.51336957797E+03  0.00000000000E+00 0. -1.
         21   -1    0    0  501  502 -0.00000000000E+00 -0.00000000000E+00 -0.76090406748E+01  0.76090406748E+01  0.00000000000E+00 0. -1.
         25    1    1    2    0    0  0.00000000000E+00  0.00000000000E+00  0.50576053730E+03  0.52097861865E+03  0.12500000000E+03 0.  0.
<mgrwt>
<rscale>  2 0.12500000E+03</rscale>
<asrwt>0</asrwt>
<pdfrwt beam="1">  1       21 0.78979908E-01 0.12500000E+03</pdfrwt>
<pdfrwt beam="2">  1       21 0.11706220E-02 0.12500000E+03</pdfrwt>
<totfact> 0.40928746E+06</totfact>
</mgrwt>
</event>
<event>
 3    0  0.1678070E+001  0.1250000E+03  0.7546771E-02  0.1235069E+00
         21   -1    0    0  502  501  0.00000000000E+00  0.00000000000E+00  0.30346960312E+02  0.30346960312E+02  0.00000000000E+00 0. -1.
         21   -1    0    0  501  502 -0.00000000000E+00 -0.00000000000E+00 -0.12871964638E+03  0.12871964638E+03  0.00000000000E+00 0. -1.
         25    1    1    2    0    0  0.00000000000E+00  0.00000000000E+00 -0.98372686067E+02  0.15906660669E+03  0.12500000000E+03 0.  0.
<mgrwt>
<rscale>  2 0.12500000E+03</rscale>
<asrwt>0</asrwt>
<pdfrwt beam="1">  1       21 0.46687630E-02 0.12500000E+03</pdfrwt>
<pdfrwt beam="2">  1       21 0.19803023E-01 0.12500000E+03</pdfrwt>
<totfact> 0.69633726E+06</totfact>
</mgrwt>
</event>
<event>
 3    0  0.1680295E+001  0.1250000E+03  0.7546771E-02  0.1235069E+00
         21   -1    0    0  502  501  0.00000000000E+00  0.00000000000E+00  0.30581364543E+02  0.30581364543E+02  0.00000000000E+00 0. -1.
         21   -1    0    0  501  502 -0.00000000000E+00 -0.00000000000E+00 -0.12773301840E+03  0.12773301840E+03  0.00000000000E+00 0. -1.
         25    1    1    2    0    0  0.00000000000E+00  0.00000000000E+00 -0.97151653862E+02  0.15831438295E+03  0.12500000000E+03 0.  0.
<mgrwt>
<rscale>  2 0.12500000E+03</rscale>
<asrwt>0</asrwt>
<pdfrwt beam="1">  1       21 0.47048253E-02 0.12500000E+03</pdfrwt>
<pdfrwt beam="2">  1       21 0.19651233E-01 0.12500000E+03</pdfrwt>
<totfact> 0.69726049E+06</totfact>
</mgrwt>
</event>
<event>
 3    0  0.1463169E+001  0.1250000E+03  0.7546771E-02  0.1235069E+00
         21   -1    0    0  502  501  0.00000000000E+00  0.00000000000E+00  0.83568654674E+01  0.83568654674E+01  0.00000000000E+00 0. -1.
         21   -1    0    0  501  502 -0.00000000000E+00 -0.00000000000E+00 -0.46743004482E+03  0.46743004482E+03  0.00000000000E+00 0. -1.
         25    1    1    2    0    0  0.00000000000E+00  0.00000000000E+00 -0.45907317935E+03  0.47578691029E+03  0.12500000000E+03 0.  0.
<mgrwt>
<rscale>  2 0.12500000E+03</rscale>
<asrwt>0</asrwt>
<pdfrwt beam="1">  1       21 0.12856713E-02 0.12500000E+03</pdfrwt>
<pdfrwt beam="2">  1       21 0.71912330E-01 0.12500000E+03</pdfrwt>
<totfact> 0.43388388E+06</totfact>
</mgrwt>
</event>
<event>
 3    0  0.1368989E+001  0.1250000E+03  0.7546771E-02  0.1235069E+00
         21   -1    0    0  502  501  0.00000000000E+00  0.00000000000E+00  0.45083638207E+01  0.45083638207E+01  0.00000000000E+00 0. -1.
         21   -1    0    0  501  502 -0.00000000000E+00 -0.00000000000E+00 -0.86644515735E+03  0.86644515735E+03  0.00000000000E+00 0. -1.
         25    1    1    2    0    0  0.00000000000E+00  0.00000000000E+00 -0.86193679353E+03  0.87095352117E+03  0.12500000000E+03 0.  0.
<mgrwt>
<rscale>  2 0.12500000E+03</rscale>
<asrwt>0</asrwt>
<pdfrwt beam="1">  1       21 0.69359402E-03 0.12500000E+03</pdfrwt>
<pdfrwt beam="2">  1       21 0.13329933E+00 0.12500000E+03</pdfrwt>
<totfact> 0.27142110E+06</totfact>
</mgrwt>
</event>
<event>
 3    0  0.1684999E+001  0.1250000E+03  0.7546771E-02  0.1235069E+00
         21   -1    0    0  502  501  0.00000000000E+00  0.00000000000E+00  0.13139278260E+03  0.13139278260E+03  0.00000000000E+00 0. -1.
         21   -1    0    0  501  502 -0.00000000000E+00 -0.00000000000E+00 -0.29729562938E+02  0.29729562938E+02  0.00000000000E+00 0. -1.
         25    1    1    2    0    0  0.00000000000E+00  0.00000000000E+00  0.10166321967E+03  0.16112234554E+03  0.12500000000E+03 0.  0.
<mgrwt>
<rscale>  2 0.12500000E+03</rscale>
<asrwt>0</asrwt>
<pdfrwt beam="1">  1       21 0.20214274E-01 0.12500000E+03</pdfrwt>
<pdfrwt beam="2">  1       21 0.45737790E-02 0.12500000E+03</pdfrwt>
<totfact> 0.69382617E+06</totfact>
</mgrwt>
</event>
<event>
 3    0  0.1729059E+001  0.1250000E+03  0.7546771E-02  0.1235069E+00
         21   -1    0    0  502  501  0.00000000000E+00  0.00000000000E+00  0.91120451686E+02  0.91120451686E+02  0.00000000000E+00 0.  1.
         21   -1    0    0  501  502 -0.00000000000E+00 -0.00000000000E+00 -0.42869080735E+02  0.42869080735E+02  0.00000000000E+00 0.  1.
         25    1    1    2    0    0  0.00000000000E+00  0.00000000000E+00  0.48251370951E+02  0.13398953242E+03  0.12500000000E+03 0.  0.
<mgrwt>
<rscale>  2 0.12500000E+03</rscale>
<asrwt>0</asrwt>
<pdfrwt beam="1">  1       21 0.14018531E-01 0.12500000E+03</pdfrwt>
<pdfrwt beam="2">  1       21 0.65952432E-02 0.12500000E+03</pdfrwt>
<totfact> 0.72830545E+06</totfact>
</mgrwt>
</event>
<event>
 3    0  0.1658056E+001  0.1250000E+03  0.7546771E-02  0.1235069E+00
         21   -1    0    0  502  501  0.00000000000E+00  0.00000000000E+00  0.17113921061E+03  0.17113921061E+03  0.00000000000E+00 0. -1.
         21   -1    0    0  501  502 -0.00000000000E+00 -0.00000000000E+00 -0.22824985496E+02  0.22824985496E+02  0.00000000000E+00 0. -1.
         25    1    1    2    0    0  0.00000000000E+00  0.00000000000E+00  0.14831422512E+03  0.19396419611E+03  0.12500000000E+03 0.  0.
<mgrwt>
<rscale>  2 0.12500000E+03</rscale>
<asrwt>0</asrwt>
<pdfrwt beam="1">  1       21 0.26329108E-01 0.12500000E+03</pdfrwt>
<pdfrwt beam="2">  1       21 0.35115363E-02 0.12500000E+03</pdfrwt>
<totfact> 0.65584567E+06</totfact>
</mgrwt>
</event>
<event>
 3    0  0.1368989E+001  0.1250000E+03  0.7546771E-02  0.1235069E+00
         21   -1    0    0  502  501  0.00000000000E+00  0.00000000000E+00  0.78082618678E+03  0.78082618678E+03  0.00000000000E+00 0.  1.
         21   -1    0    0  501  502 -0.00000000000E+00 -0.00000000000E+00 -0.50027138768E+01  0.50027138768E+01  0.00000000000E+00 0.  1.
         25    1    1    2    0    0  0.00000000000E+00  0.00000000000E+00  0.77582347290E+03  0.78582890065E+03  0.12500000000E+03 0.  0.
<mgrwt>
<rscale>  2 0.12500000E+03</rscale>
<asrwt>0</asrwt>
<pdfrwt beam="1">  1       21 0.12012701E+00 0.12500000E+03</pdfrwt>
<pdfrwt beam="2">  1       21 0.76964891E-03 0.12500000E+03</pdfrwt>
<totfact> 0.29837769E+06</totfact>
</mgrwt>
</event>
<event>
 3    0  0.1599151E+001  0.1250000E+03  0.7546771E-02  0.1235069E+00
         21   -1    0    0  502  501  0.00000000000E+00  0.00000000000E+00  0.29512214063E+03  0.29512214063E+03  0.00000000000E+00 0.  1.
         21   -1    0    0  501  502 -0.00000000000E+00 -0.00000000000E+00 -0.13236045224E+02  0.13236045224E+02  0.00000000000E+00 0.  1.
         25    1    1    2    0    0  0.00000000000E+00  0.00000000000E+00  0.28188609541E+03  0.30835818585E+03  0.12500000000E+03 0.  0.
<mgrwt>
<rscale>  2 0.12500000E+03</rscale>
<asrwt>0</asrwt>
<pdfrwt beam="1">  1       21 0.45403401E-01 0.12500000E+03</pdfrwt>
<pdfrwt beam="2">  1       21 0.20363149E-02 0.12500000E+03</pdfrwt>
<totfact> 0.54768652E+06</totfact>
</mgrwt>
</event>
<event>
 3    0  0.1697358E+001  0.1250000E+03  0.7546771E-02  0.1235069E+00
         21   -1    0    0  502  501  0.00000000000E+00  0.00000000000E+00  0.37012930087E+02  0.37012930087E+02  0.00000000000E+00 0. -1.
         21   -1    0    0  501  502 -0.00000000000E+00 -0.00000000000E+00 -0.10553744302E+03  0.10553744302E+03  0.00000000000E+00 0. -1.
         25    1    1    2    0    0  0.00000000000E+00  0.00000000000E+00 -0.68524512932E+02  0.14255037311E+03  0.12500000000E+03 0.  0.
<mgrwt>
<rscale>  2 0.12500000E+03</rscale>
<asrwt>0</asrwt>
<pdfrwt beam="1">  1       21 0.56942969E-02 0.12500000E+03</pdfrwt>
<pdfrwt beam="2">  1       21 0.16236530E-01 0.12500000E+03</pdfrwt>
<totfact> 0.71708086E+06</totfact>
</mgrwt>
</event>
<event>
 3    0  0.1500183E+001  0.1250000E+03  0.7546771E-02  0.1235069E+00
         21   -1    0    0  502  501  0.00000000000E+00  0.00000000000E+00  0.48106914995E+03  0.48106914995E+03  0.00000000000E+00 0.  1.
         21   -1    0    0  501  502 -0.00000000000E+00 -0.00000000000E+00 -0.81199345258E+01  0.81199345258E+01  0.00000000000E+00 0.  1.
         25    1    1    2    0    0  0.00000000000E+00  0.00000000000E+00  0.47294921543E+03  0.48918908448E+03  0.12500000000E+03 0.  0.
<mgrwt>
<rscale>  2 0.12500000E+03</rscale>
<asrwt>0</asrwt>
<pdfrwt beam="1">  1       21 0.74010616E-01 0.12500000E+03</pdfrwt>
<pdfrwt beam="2">  1       21 0.12492211E-02 0.12500000E+03</pdfrwt>
<totfact> 0.42636513E+06</totfact>
</mgrwt>
</event>
<event>
 3    0  0.1679864E+001  0.1250000E+03  0.7546771E-02  0.1235069E+00
         21   -1    0    0  502  501  0.00000000000E+00  0.00000000000E+00  0.24134774633E+02  0.24134774633E+02  0.00000000000E+00 0.  1.
         21   -1    0    0  501  502 -0.00000000000E+00 -0.00000000000E+00 -0.16185152169E+03  0.16185152169E+03  0.00000000000E+00 0.  1.
         25    1    1    2    0    0  0.00000000000E+00  0.00000000000E+00 -0.13771674705E+03  0.18598629632E+03  0.12500000000E+03 0.  0.
<mgrwt>
<rscale>  2 0.12500000E+03</rscale>
<asrwt>0</asrwt>
<pdfrwt beam="1">  1       21 0.37130423E-02 0.12500000E+03</pdfrwt>
<pdfrwt beam="2">  1       21 0.24900234E-01 0.12500000E+03</pdfrwt>
<totfact> 0.66471354E+06</totfact>
</mgrwt>
</event>
<event>
 3    0  0.1673267E+001  0.1250000E+03  0.7546771E-02  0.1235069E+00
         21   -1    0    0  502  501  0.00000000000E+00  0.00000000000E+00  0.18051932540E+03  0.18051932540E+03  0.00000000000E+00 0.  1.
         21   -1    0    0  501  502 -0.00000000000E+00 -0.00000000000E+00 -0.21638957443E+02  0.21638957443E+02  0.00000000000E+00 0.  1.
         25    1    1    2    0    0  0.00000000000E+00  0.00000000000E+00  0.15888036796E+03  0.20215828285E+03  0.12500000000E+03 0.  0.
<mgrwt>
<rscale>  2 0.12500000E+03</rscale>
<asrwt>0</asrwt>
<pdfrwt beam="1">  1       21 0.27772203E-01 0.12500000E+03</pdfrwt>
<pdfrwt beam="2">  1       21 0.33290705E-02 0.12500000E+03</pdfrwt>
<totfact> 0.64694136E+06</totfact>
</mgrwt>
</event>
<event>
 3    0  0.1660659E+001  0.1250000E+03  0.7546771E-02  0.1235069E+00
         21   -1    0    0  502  501  0.00000000000E+00  0.00000000000E+00  0.15996387652E+03  0.15996387652E+03  0.00000000000E+00 0. -1.
         21   -1    0    0  501  502 -0.00000000000E+00 -0.00000000000E+00 -0.24419575751E+02  0.24419575751E+02  0.00000000000E+00 0. -1.
         25    1    1    2    0    0  0.00000000000E+00  0.00000000000E+00  0.13554430077E+03  0.18438345227E+03  0.12500000000E+03 0.  0.
<mgrwt>
<rscale>  2 0.12500000E+03</rscale>
<asrwt>0</asrwt>
<pdfrwt beam="1">  1       21 0.24609827E-01 0.12500000E+03</pdfrwt>
<pdfrwt beam="2">  1       21 0.37568579E-02 0.12500000E+03</pdfrwt>
<totfact> 0.66652204E+06</totfact>
</mgrwt>
</event>
<event>
 3    0  0.1668109E+001  0.1250000E+03  0.7546771E-02  0.1235069E+00
         21   -1    0    0  502  501  0.00000000000E+00  0.00000000000E+00  0.16696684667E+03  0.16696684667E+03  0.00000000000E+00 0. -1.
         21   -1    0    0  501  502 -0.00000000000E+00 -0.00000000000E+00 -0.23395363079E+02  0.23395363079E+02  0.00000000000E+00 0. -1.
         25    1    1    2    0    0  0.00000000000E+00  0.00000000000E+00  0.14357148359E+03  0.19036220975E+03  0.12500000000E+03 0.  0.
<mgrwt>
<rscale>  2 0.12500000E+03</rscale>
<asrwt>0</asrwt>
<pdfrwt beam="1">  1       21 0.25687206E-01 0.12500000E+03</pdfrwt>
<pdfrwt beam="2">  1       21 0.35992867E-02 0.12500000E+03</pdfrwt>
<totfact> 0.65982231E+06</totfact>
</mgrwt>
</event>
<event>
 3    0  0.1718531E+001  0.1250000E+03  0.7546771E-02  0.1235069E+00
         21   -1    0    0  502  501  0.00000000000E+00  0.00000000000E+00  0.34345640680E+02  0.34345640680E+02  0.00000000000E+00 0.  1.
         21   -1    0    0  501  502 -0.00000000000E+00 -0.00000000000E+00 -0.11373350220E+03  0.11373350220E+03  0.00000000000E+00 0.  1.
         25    1    1    2    0    0  0.00000000000E+00  0.00000000000E+00 -0.79387861525E+02  0.14807914288E+03  0.12500000000E+03 0.  0.
<mgrwt>
<rscale>  2 0.12500000E+03</rscale>
<asrwt>0</asrwt>
<pdfrwt beam="1">  1       21 0.52839447E-02 0.12500000E+03</pdfrwt>
<pdfrwt beam="2">  1       21 0.17497462E-01 0.12500000E+03</pdfrwt>
<totfact> 0.71001337E+06</totfact>
</mgrwt>
</event>
<event>
 3    0  0.1643813E+001  0.1250000E+03  0.7546771E-02  0.1235069E+00
         21   -1    0    0  502  501  0.00000000000E+00  0.00000000000E+00  0.18285070770E+03  0.18285070770E+03  0.00000000000E+00 0. -1.
         21   -1    0    0  501  502 -0.00000000000E+00 -0.00000000000E+00 -0.21363056502E+02  0.21363056502E+02  0.00000000000E+00 0. -1.
         25    1    1    2    0    0  0.00000000000E+00  0.00000000000E+00  0.16148765119E+03  0.20421376420E+03  0.12500000000E+03 0.  0.
<mgrwt>
<rscale>  2 0.12500000E+03</rscale>
<asrwt>0</asrwt>
<pdfrwt beam="1">  1       21 0.28130877E-01 0.12500000E+03</pdfrwt>
<pdfrwt beam="2">  1       21 0.32866242E-02 0.12500000E+03</pdfrwt>
<totfact> 0.64473503E+06</totfact>
</mgrwt>
</event>
<event>
 3    0  0.1654526E+001  0.1250000E+03  0.7546771E-02  0.1235069E+00
         21   -1    0    0  502  501  0.00000000000E+00  0.00000000000E+00  0.17521871989E+02  0.17521871989E+02  0.00000000000E+00 0.  1.
         21   -1    0    0  501  502 -0.00000000000E+00 -0.00000000000E+00 -0.22293565451E+03  0.22293565451E+03  0.00000000000E+00 0.  1.
         25    1    1    2    0    0  0.00000000000E+00  0.00000000000E+00 -0.20541378252E+03  0.24045752650E+03  0.12500000000E+03 0.  0.
<mgrwt>
<rscale>  2 0.12500000E+03</rscale>
<asrwt>0</asrwt>
<pdfrwt beam="1">  1       21 0.26956726E-02 0.12500000E+03</pdfrwt>
<pdfrwt beam="2">  1       21 0.34297793E-01 0.12500000E+03</pdfrwt>
<totfact> 0.60788417E+06</totfact>
</mgrwt>
</event>
<event>
 3    0  0.1691591E+001  0.1250000E+03  0.7546771E-02  0.1235069E+00
         21   -1    0    0  502  501  0.00000000000E+00  0.00000000000E+00  0.11514823902E+03  0.11514823902E+03  0.00000000000E+00 0. -1.
         21   -1    0    0  501  502 -0.00000000000E+00 -0.00000000000E+00 -0.33923662518E+02  0.33923662518E+02  0.00000000000E+00 0. -1.
         25    1    1    2    0    0  0.00000000000E+00  0.00000000000E+00  0.81224576499E+02  0.14907190154E+03  0.12500000000E+03 0.  0.
<mgrwt>
<rscale>  2 0.12500000E+03</rscale>
<asrwt>0</asrwt>
<pdfrwt beam="1">  1       21 0.17715114E-01 0.12500000E+03</pdfrwt>
<pdfrwt beam="2">  1       21 0.52190250E-02 0.12500000E+03</pdfrwt>
<totfact> 0.70875982E+06</totfact>
</mgrwt>
</event>
<event>
 3    0  0.1562768E+001  0.1250000E+03  0.7546771E-02  0.1235069E+00
         21   -1    0    0  502  501  0.00000000000E+00  0.00000000000E+00  0.10718960199E+02  0.10718960199E+02  0.00000000000E+00 0.  1.
         21   -1    0    0  501  502 -0.00000000000E+00 -0.00000000000E+00 -0.36442434036E+03  0.36442434036E+03  0.00000000000E+00 0.  1.
         25    1    1    2    0    0  0.00000000000E+00  0.00000000000E+00 -0.35370538016E+03  0.37514330056E+03  0.12500000000E+03 0.  0.
<mgrwt>
<rscale>  2 0.12500000E+03</rscale>
<asrwt>0</asrwt>
<pdfrwt beam="1">  1       21 0.16490703E-02 0.12500000E+03</pdfrwt>
<pdfrwt beam="2">  1       21 0.56065300E-01 0.12500000E+03</pdfrwt>
<totfact> 0.49733456E+06</totfact>
</mgrwt>
</event>
<event>
 3    0  0.1427277E+001  0.1250000E+03  0.7546771E-02  0.1235069E+00
         21   -1    0    0  502  501  0.00000000000E+00  0.00000000000E+00  0.61456864461E+03  0.61456864461E+03  0.00000000000E+00 0. -1.
         21   -1    0    0  501  502 -0.00000000000E+00 -0.00000000000E+00 -0.63560841157E+01  0.63560841157E+01  0.00000000000E+00 0. -1.
         25    1    1    2    0    0  0.00000000000E+00  0.00000000000E+00  0.60821256049E+03  0.62092472872E+03  0.12500000000E+03 0.  0.
<mgrwt>
<rscale>  2 0.12500000E+03</rscale>
<asrwt>0</asrwt>
<pdfrwt beam="1">  1       21 0.94548975E-01 0.12500000E+03</pdfrwt>
<pdfrwt beam="2">  1       21 0.97785958E-03 0.12500000E+03</pdfrwt>
<totfact> 0.36163127E+06</totfact>
</mgrwt>
</event>
<event>
 3    0  0.1585750E+001  0.1250000E+03  0.7546771E-02  0.1235069E+00
         21   -1    0    0  502  501  0.00000000000E+00  0.00000000000E+00  0.13430614551E+02  0.13430614551E+02  0.00000000000E+00 0. -1.
         21   -1    0    0  501  502 -0.00000000000E+00 -0.00000000000E+00 -0.29084670588E+03  0.29084670588E+03  0.00000000000E+00 0. -1.
         25    1    1    2    0    0  0.00000000000E+00  0.00000000000E+00 -0.27741609133E+03  0.30427732043E+03  0.12500000000E+03 0.  0.
<mgrwt>
<rscale>  2 0.12500000E+03</rscale>
<asrwt>0</asrwt>
<pdfrwt beam="1">  1       21 0.20662486E-02 0.12500000E+03</pdfrwt>
<pdfrwt beam="2">  1       21 0.44745642E-01 0.12500000E+03</pdfrwt>
<totfact> 0.55102577E+06</totfact>
</mgrwt>
</event>
<event>
 3    0  0.1727178E+001  0.1250000E+03  0.7546771E-02  0.1235069E+00
         21   -1    0    0  502  501  0.00000000000E+00  0.00000000000E+00  0.92235487786E+02  0.92235487786E+02  0.00000000000E+00 0.  1.
         21   -1    0    0  501  502 -0.00000000000E+00 -0.00000000000E+00 -0.42350835820E+02  0.42350835820E+02  0.00000000000E+00 0.  1.
         25    1    1    2    0    0  0.00000000000E+00  0.00000000000E+00  0.49884651966E+02  0.13458632361E+03  0.12500000000E+03 0.  0.
<mgrwt>
<rscale>  2 0.12500000E+03</rscale>
<asrwt>0</asrwt>
<pdfrwt beam="1">  1       21 0.14190075E-01 0.12500000E+03</pdfrwt>
<pdfrwt beam="2">  1       21 0.65155132E-02 0.12500000E+03</pdfrwt>
<totfact> 0.72751292E+06</totfact>
</mgrwt>
</event>
<event>
 3    0  0.1368989E+001  0.1250000E+03  0.7546771E-02  0.1235069E+00
         21   -1    0    0  502  501  0.00000000000E+00  0.00000000000E+00  0.66850775135E+03  0.66850775135E+03  0.00000000000E+00 0.  1.
         21   -1    0    0  501  502 -0.00000000000E+00 -0.00000000000E+00 -0.58432381556E+01  0.58432381556E+01  0.00000000000E+00 0.  1.
         25    1    1    2    0    0  0.00000000000E+00  0.00000000000E+00  0.66266451319E+03  0.67435098950E+03  0.12500000000E+03 0.  0.
<mgrwt>
<rscale>  2 0.12500000E+03</rscale>
<asrwt>0</asrwt>
<pdfrwt beam="1">  1       21 0.10284729E+00 0.12500000E+03</pdfrwt>
<pdfrwt beam="2">  1       21 0.89896025E-03 0.12500000E+03</pdfrwt>
<totfact> 0.33922659E+06</totfact>
</mgrwt>
</event>
<event>
 3    0  0.1615706E+001  0.1250000E+03  0.7546771E-02  0.1235069E+00
         21   -1    0    0  502  501  0.00000000000E+00  0.00000000000E+00  0.26376441172E+03  0.26376441172E+03  0.00000000000E+00 0.  1.
         21   -1    0    0  501  502 -0.00000000000E+00 -0.00000000000E+00 -0.14809617319E+02  0.14809617319E+02  0.00000000000E+00 0.  1.
         25    1    1    2    0    0  0.00000000000E+00  0.00000000000E+00  0.24895479440E+03  0.27857402903E+03  0.12500000000E+03 0.  0.
<mgrwt>
<rscale>  2 0.12500000E+03</rscale>
<asrwt>0</asrwt>
<pdfrwt beam="1">  1       21 0.40579137E-01 0.12500000E+03</pdfrwt>
<pdfrwt beam="2">  1       21 0.22784029E-02 0.12500000E+03</pdfrwt>
<totfact> 0.57285125E+06</totfact>
</mgrwt>
</event>
<event>
 3    0  0.1666662E+001  0.1250000E+03  0.7546771E-02  0.1235069E+00
         21   -1    0    0  502  501  0.00000000000E+00  0.00000000000E+00  0.21293789474E+02  0.21293789474E+02  0.00000000000E+00 0.  1.
         21   -1    0    0  501  502 -0.00000000000E+00 -0.00000000000E+00 -0.18344550671E+03  0.18344550671E+03  0.00000000000E+00 0.  1.
         25    1    1    2    0    0  0.00000000000E+00  0.00000000000E+00 -0.16215171724E+03  0.20473929619E+03  0.12500000000E+03 0.  0.
<mgrwt>
<rscale>  2 0.12500000E+03</rscale>
<asrwt>0</asrwt>
<pdfrwt beam="1">  1       21 0.32759674E-02 0.12500000E+03</pdfrwt>
<pdfrwt beam="2">  1       21 0.28222387E-01 0.12500000E+03</pdfrwt>
<totfact> 0.64417306E+06</totfact>
</mgrwt>
</event>
<event>
 3    0  0.1368989E+001  0.1250000E+03  0.7546771E-02  0.1235069E+00
         21   -1    0    0  502  501  0.00000000000E+00  0.00000000000E+00  0.54896005601E+01  0.54896005601E+01  0.00000000000E+00 0.  1.
         21   -1    0    0  501  502 -0.00000000000E+00 -0.00000000000E+00 -0.71157271959E+03  0.71157271959E+03  0.00000000000E+00 0.  1.
         25    1    1    2    0    0  0.00000000000E+00  0.00000000000E+00 -0.70608311903E+03  0.71706232015E+03  0.12500000000E+03 0.  0.
<mgrwt>
<rscale>  2 0.12500000E+03</rscale>
<asrwt>0</asrwt>
<pdfrwt beam="1">  1       21 0.84455338E-03 0.12500000E+03</pdfrwt>
<pdfrwt beam="2">  1       21 0.10947280E+00 0.12500000E+03</pdfrwt>
<totfact> 0.32262609E+06</totfact>
</mgrwt>
</event>
<event>
 3    0  0.1643110E+001  0.1250000E+03  0.7546771E-02  0.1235069E+00
         21   -1    0    0  502  501  0.00000000000E+00  0.00000000000E+00  0.18314257288E+03  0.18314257288E+03  0.00000000000E+00 0. -1.
         21   -1    0    0  501  502 -0.00000000000E+00 -0.00000000000E+00 -0.21329011264E+02  0.21329011264E+02  0.00000000000E+00 0. -1.
         25    1    1    2    0    0  0.00000000000E+00  0.00000000000E+00  0.16181356162E+03  0.20447158415E+03  0.12500000000E+03 0.  0.
<mgrwt>
<rscale>  2 0.12500000E+03</rscale>
<asrwt>0</asrwt>
<pdfrwt beam="1">  1       21 0.28175779E-01 0.12500000E+03</pdfrwt>
<pdfrwt beam="2">  1       21 0.32813865E-02 0.12500000E+03</pdfrwt>
<totfact> 0.64445924E+06</totfact>
</mgrwt>
</event>
<event>
 3    0  0.1694232E+001  0.1250000E+03  0.7546771E-02  0.1235069E+00
         21   -1    0    0  502  501  0.00000000000E+00  0.00000000000E+00  0.15601135876E+03  0.15601135876E+03  0.00000000000E+00 0.  1.
         21   -1    0    0  501  502 -0.00000000000E+00 -0.00000000000E+00 -0.25038241004E+02  0.25038241004E+02  0.00000000000E+00 0.  1.
         25    1    1    2    0    0  0.00000000000E+00  0.00000000000E+00  0.13097311776E+03  0.18104959977E+03  0.12500000000E+03 0.  0.
<mgrwt>
<rscale>  2 0.12500000E+03</rscale>
<asrwt>0</asrwt>
<pdfrwt beam="1">  1       21 0.24001747E-01 0.12500000E+03</pdfrwt>
<pdfrwt beam="2">  1       21 0.38520372E-02 0.12500000E+03</pdfrwt>
<totfact> 0.67031334E+06</totfact>
</mgrwt>
</event>
<event>
 3    0  0.1482274E+001  0.1250000E+03  0.7546771E-02  0.1235069E+00
         21   -1    0    0  502  501  0.00000000000E+00  0.00000000000E+00  0.47924238981E+03  0.47924238981E+03  0.00000000000E+00 0. -1.
         21   -1    0    0  501  502 -0.00000000000E+00 -0.00000000000E+00 -0.81508858212E+01  0.81508858212E+01  0.00000000000E+00 0. -1.
         25    1    1    2    0    0  0.00000000000E+00  0.00000000000E+00  0.47109150399E+03  0.48739327563E+03  0.12500000000E+03 0.  0.
<mgrwt>
<rscale>  2 0.12500000E+03</rscale>
<asrwt>0</asrwt>
<pdfrwt beam="1">  1       21 0.73729576E-01 0.12500000E+03</pdfrwt>
<pdfrwt beam="2">  1       21 0.12539828E-02 0.12500000E+03</pdfrwt>
<totfact> 0.42736126E+06</totfact>
</mgrwt>
</event>
<event>
 3    0  0.1704426E+001  0.1250000E+03  0.7546771E-02  0.1235069E+00
         21   -1    0    0  502  501  0.00000000000E+00  0.00000000000E+00  0.45140335787E+02  0.45140335787E+02  0.00000000000E+00 0. -1.
         21   -1    0    0  501  502 -0.00000000000E+00 -0.00000000000E+00 -0.86535687692E+02  0.86535687692E+02  0.00000000000E+00 0. -1.
         25    1    1    2    0    0  0.00000000000E+00  0.00000000000E+00 -0.41395351904E+02  0.13167602348E+03  0.12500000000E+03 0.  0.
<mgrwt>
<rscale>  2 0.12500000E+03</rscale>
<asrwt>0</asrwt>
<pdfrwt beam="1">  1       21 0.69446672E-02 0.12500000E+03</pdfrwt>
<pdfrwt beam="2">  1       21 0.13313182E-01 0.12500000E+03</pdfrwt>
<totfact> 0.73139717E+06</totfact>
</mgrwt>
</event>
<event>
 3    0  0.1712048E+001  0.1250000E+03  0.7546771E-02  0.1235069E+00
         21   -1    0    0  502  501  0.00000000000E+00  0.00000000000E+00  0.13947230919E+03  0.13947230919E+03  0.00000000000E+00 0.  1.
         21   -1    0    0  501  502 -0.00000000000E+00 -0.00000000000E+00 -0.28007351585E+02  0.28007351585E+02  0.00000000000E+00 0.  1.
         25    1    1    2    0    0  0.00000000000E+00  0.00000000000E+00  0.11146495761E+03  0.16747966078E+03  0.12500000000E+03 0.  0.
<mgrwt>
<rscale>  2 0.12500000E+03</rscale>
<asrwt>0</asrwt>
<pdfrwt beam="1">  1       21 0.21457278E-01 0.12500000E+03</pdfrwt>
<pdfrwt beam="2">  1       21 0.43088234E-02 0.12500000E+03</pdfrwt>
<totfact> 0.68616915E+06</totfact>
</mgrwt>
</event>
<event>
 3    0  0.1713329E+001  0.1250000E+03  0.7546771E-02  0.1235069E+00
         21   -1    0    0  502  501  0.00000000000E+00  0.00000000000E+00  0.11639891247E+03  0.11639891247E+03  0.00000000000E+00 0.  1.
         21   -1    0    0  501  502 -0.00000000000E+00 -0.00000000000E+00 -0.33559162343E+02  0.33559162343E+02  0.00000000000E+00 0.  1.
         25    1    1    2    0    0  0.00000000000E+00  0.00000000000E+00  0.82839750125E+02  0.14995807481E+03  0.12500000000E+03 0.  0.
<mgrwt>
<rscale>  2 0.12500000E+03</rscale>
<asrwt>0</asrwt>
<pdfrwt beam="1">  1       21 0.17907525E-01 0.12500000E+03</pdfrwt>
<pdfrwt beam="2">  1       21 0.51629481E-02 0.12500000E+03</pdfrwt>
<totfact> 0.70764468E+06</totfact>
</mgrwt>
</event>
<event>
 3    0  0.1704968E+001  0.1250000E+03  0.7546771E-02  0.1235069E+00
         21   -1    0    0  502  501  0.00000000000E+00  0.00000000000E+00  0.43229384578E+02  0.43229384578E+02  0.00000000000E+00 0. -1.
         21   -1    0    0  501  502 -0.00000000000E+00 -0.00000000000E+00 -0.90360990287E+02  0.90360990287E+02  0.00000000000E+00 0. -1.
         25    1    1    2    0    0  0.00000000000E+00  0.00000000000E+00 -0.47131605709E+02  0.13359037487E+03  0.12500000000E+03 0.  0.
<mgrwt>
<rscale>  2 0.12500000E+03</rscale>
<asrwt>0</asrwt>
<pdfrwt beam="1">  1       21 0.66506747E-02 0.12500000E+03</pdfrwt>
<pdfrwt beam="2">  1       21 0.13901691E-01 0.12500000E+03</pdfrwt>
<totfact> 0.72883664E+06</totfact>
</mgrwt>
</event>
<event>
 3    0  0.1493053E+001  0.1250000E+03  0.7546771E-02  0.1235069E+00
         21   -1    0    0  502  501  0.00000000000E+00  0.00000000000E+00  0.80866689857E+01  0.80866689857E+01  0.00000000000E+00 0.  1.
         21   -1    0    0  501  502 -0.00000000000E+00 -0.00000000000E+00 -0.48304808901E+03  0.48304808901E+03  0.00000000000E+00 0.  1.
         25    1    1    2    0    0  0.00000000000E+00  0.00000000000E+00 -0.47496142002E+03  0.49113475799E+03  0.12500000000E+03 0.  0.
<mgrwt>
<rscale>  2 0.12500000E+03</rscale>
<asrwt>0</asrwt>
<pdfrwt beam="1">  1       21 0.12441031E-02 0.12500000E+03</pdfrwt>
<pdfrwt beam="2">  1       21 0.74315082E-01 0.12500000E+03</pdfrwt>
<totfact> 0.42528972E+06</totfact>
</mgrwt>
</event>
<event>
 3    0  0.1641145E+001  0.1250000E+03  0.7546771E-02  0.1235069E+00
         21   -1    0    0  502  501  0.00000000000E+00  0.00000000000E+00  0.18567144881E+02  0.18567144881E+02  0.00000000000E+00 0. -1.
         21   -1    0    0  501  502 -0.00000000000E+00 -0.00000000000E+00 -0.21038506594E+03  0.21038506594E+03  0.00000000000E+00 0. -1.
         25    1    1    2    0    0  0.00000000000E+00  0.00000000000E+00 -0.19181792106E+03  0.22895221082E+03  0.12500000000E+03 0.  0.
<mgrwt>
<rscale>  2 0.12500000E+03</rscale>
<asrwt>0</asrwt>
<pdfrwt beam="1">  1       21 0.28564838E-02 0.12500000E+03</pdfrwt>
<pdfrwt beam="2">  1       21 0.32366934E-01 0.12500000E+03</pdfrwt>
<totfact> 0.61918407E+06</totfact>
</mgrwt>
</event>
<event>
 3    0  0.1723241E+001  0.1250000E+03  0.7546771E-02  0.1235069E+00
         21   -1    0    0  502  501  0.00000000000E+00  0.00000000000E+00  0.10173553522E+03  0.10173553522E+03  0.00000000000E+00 0.  1.
         21   -1    0    0  501  502 -0.00000000000E+00 -0.00000000000E+00 -0.38396121782E+02  0.38396121782E+02  0.00000000000E+00 0.  1.
         25    1    1    2    0    0  0.00000000000E+00  0.00000000000E+00  0.63339413443E+02  0.14013165701E+03  0.12500000000E+03 0.  0.
<mgrwt>
<rscale>  2 0.12500000E+03</rscale>
<asrwt>0</asrwt>
<pdfrwt beam="1">  1       21 0.15651621E-01 0.12500000E+03</pdfrwt>
<pdfrwt beam="2">  1       21 0.59070957E-02 0.12500000E+03</pdfrwt>
<totfact> 0.72022125E+06</totfact>
</mgrwt>
</event>
<event>
 3    0  0.1582844E+001  0.1250000E+03  0.7546771E-02  0.1235069E+00
         21   -1    0    0  502  501  0.00000000000E+00  0.00000000000E+00  0.27724844124E+03  0.27724844124E+03  0.00000000000E+00 0. -1.
         21   -1    0    0  501  502 -0.00000000000E+00 -0.00000000000E+00 -0.14089348826E+02  0.14089348826E+02  0.00000000000E+00 0. -1.
         25    1    1    2    0    0  0.00000000000E+00  0.00000000000E+00  0.26315909241E+03  0.29133779006E+03  0.12500000000E+03 0.  0.
<mgrwt>
<rscale>  2 0.12500000E+03</rscale>
<asrwt>0</asrwt>
<pdfrwt beam="1">  1       21 0.42653602E-01 0.12500000E+03</pdfrwt>
<pdfrwt beam="2">  1       21 0.21675923E-02 0.12500000E+03</pdfrwt>
<totfact> 0.56183810E+06</totfact>
</mgrwt>
</event>
<event>
 3    0  0.1718291E+001  0.1250000E+03  0.7546771E-02  0.1235069E+00
         21   -1    0    0  502  501  0.00000000000E+00  0.00000000000E+00  0.11409449533E+03  0.11409449533E+03  0.00000000000E+00 0.  1.
         21   -1    0    0  501  502 -0.00000000000E+00 -0.00000000000E+00 -0.34236971633E+02  0.34236971633E+02  0.00000000000E+00 0.  1.
         25    1    1    2    0    0  0.00000000000E+00  0.00000000000E+00  0.79857523692E+02  0.14833146696E+03  0.12500000000E+03 0.  0.
<mgrwt>
<rscale>  2 0.12500000E+03</rscale>
<asrwt>0</asrwt>
<pdfrwt beam="1">  1       21 0.17552999E-01 0.12500000E+03</pdfrwt>
<pdfrwt beam="2">  1       21 0.52672264E-02 0.12500000E+03</pdfrwt>
<totfact> 0.70969433E+06</totfact>
</mgrwt>
</event>
<event>
 3    0  0.1735611E+001  0.1250000E+03  0.7546771E-02  0.1235069E+00
         21   -1    0    0  502  501  0.00000000000E+00  0.00000000000E+00  0.72812680270E+02  0.72812680270E+02  0.00000000000E+00 0.  1.
         21   -1    0    0  501  502 -0.00000000000E+00 -0.00000000000E+00 -0.53647935847E+02  0.53647935847E+02  0.00000000000E+00 0.  1.
         25    1    1    2    0    0  0.00000000000E+00  0.00000000000E+00  0.19164744423E+02  0.12646061612E+03  0.12500000000E+03 0.  0.
<mgrwt>
<rscale>  2 0.12500000E+03</rscale>
<asrwt>0</asrwt>
<pdfrwt beam="1">  1       21 0.11201951E-01 0.12500000E+03</pdfrwt>
<pdfrwt beam="2">  1       21 0.82535285E-02 0.12500000E+03</pdfrwt>
<totfact> 0.73842764E+06</totfact>
</mgrwt>
</event>
<event>
 3    0  0.1706582E+001  0.1250000E+03  0.7546771E-02  0.1235069E+00
         21   -1    0    0  502  501  0.00000000000E+00  0.00000000000E+00  0.89803096250E+02  0.89803096250E+02  0.00000000000E+00 0. -1.
         21   -1    0    0  501  502 -0.00000000000E+00 -0.00000000000E+00 -0.43497943424E+02  0.43497943424E+02  0.00000000000E+00 0. -1.
         25    1    1    2    0    0  0.00000000000E+00  0.00000000000E+00  0.46305152825E+02  0.13330103967E+03  0.12500000000E+03 0.  0.
<mgrwt>
<rscale>  2 0.12500000E+03</rscale>
<asrwt>0</asrwt>
<pdfrwt beam="1">  1       21 0.13815861E-01 0.12500000E+03</pdfrwt>
<pdfrwt beam="2">  1       21 0.66919913E-02 0.12500000E+03</pdfrwt>
<totfact> 0.72922226E+06</totfact>
</mgrwt>
</event>
<event>
 3    0  0.1726558E+001  0.1250000E+03  0.7546771E-02  0.1235069E+00
         21   -1    0    0  502  501  0.00000000000E+00  0.00000000000E+00  0.92598203655E+02  0.92598203655E+02  0.00000000000E+00 0.  1.
         21   -1    0    0  501  502 -0.00000000000E+00 -0.00000000000E+00 -0.42184943615E+02  0.42184943615E+02  0.00000000000E+00 0.  1.
         25    1    1    2    0    0  0.00000000000E+00  0.00000000000E+00  0.50413260040E+02  0.13478314727E+03  0.12500000000E+03 0.  0.
<mgrwt>
<rscale>  2 0.12500000E+03</rscale>
<asrwt>0</asrwt>
<pdfrwt beam="1">  1       21 0.14245877E-01 0.12500000E+03</pdfrwt>
<pdfrwt beam="2">  1       21 0.64899913E-02 0.12500000E+03</pdfrwt>
<totfact> 0.72725197E+06</totfact>
</mgrwt>
</event>
<event>
 3    0  0.1727646E+001  0.1250000E+03  0.7546771E-02  0.1235069E+00
         21   -1    0    0  502  501  0.00000000000E+00  0.00000000000E+00  0.39347712434E+02  0.39347712434E+02  0.00000000000E+00 0.  1.
         21   -1    0    0  501  502 -0.00000000000E+00 -0.00000000000E+00 -0.99275148628E+02  0.99275148628E+02  0.00000000000E+00 0.  1.
         25    1    1    2    0    0  0.00000000000E+00  0.00000000000E+00 -0.59927436194E+02  0.13862286106E+03  0.12500000000E+03 0.  0.
<mgrwt>
<rscale>  2 0.12500000E+03</rscale>
<asrwt>0</asrwt>
<pdfrwt beam="1">  1       21 0.60534942E-02 0.12500000E+03</pdfrwt>
<pdfrwt beam="2">  1       21 0.15273100E-01 0.12500000E+03</pdfrwt>
<totfact> 0.72219604E+06</totfact>
</mgrwt>
</event>
<event>
 3    0  0.1710839E+001  0.1250000E+03  0.7546771E-02  0.1235069E+00
         21   -1    0    0  502  501  0.00000000000E+00  0.00000000000E+00  0.13998086876E+03  0.13998086876E+03  0.00000000000E+00 0.  1.
         21   -1    0    0  501  502 -0.00000000000E+00 -0.00000000000E+00 -0.27905599063E+02  0.27905599063E+02  0.00000000000E+00 0.  1.
         25    1    1    2    0    0  0.00000000000E+00  0.00000000000E+00  0.11207526969E+03  0.16788646782E+03  0.12500000000E+03 0.  0.
<mgrwt>
<rscale>  2 0.12500000E+03</rscale>
<asrwt>0</asrwt>
<pdfrwt beam="1">  1       21 0.21535518E-01 0.12500000E+03</pdfrwt>
<pdfrwt beam="2">  1       21 0.42931692E-02 0.12500000E+03</pdfrwt>
<totfact> 0.68568464E+06</totfact>
</mgrwt>
</event>
<event>
 3    0  0.1368989E+001  0.1250000E+03  0.7546771E-02  0.1235069E+00
         21   -1    0    0  502  501  0.00000000000E+00  0.00000000000E+00  0.37046836289E+01  0.37046836289E+01  0.00000000000E+00 0. -1.
         21   -1    0    0  501  502 -0.00000000000E+00 -0.00000000000E+00 -0.10544085248E+04  0.10544085248E+04  0.00000000000E+00 0. -1.
         25    1    1    2    0    0  0.00000000000E+00  0.00000000000E+00 -0.10507038412E+04  0.10581132084E+04  0.12500000000E+03 0.  0.
<mgrwt>
<rscale>  2 0.12500000E+03</rscale>
<asrwt>0</asrwt>
<pdfrwt beam="1">  1       21 0.56995074E-03 0.12500000E+03</pdfrwt>
<pdfrwt beam="2">  1       21 0.16221686E+00 0.12500000E+03</pdfrwt>
<totfact> 0.22207795E+06</totfact>
</mgrwt>
</event>
<event>
 3    0  0.1492377E+001  0.1250000E+03  0.7546771E-02  0.1235069E+00
         21   -1    0    0  502  501  0.00000000000E+00  0.00000000000E+00  0.84328082002E+01  0.84328082002E+01  0.00000000000E+00 0.  1.
         21   -1    0    0  501  502 -0.00000000000E+00 -0.00000000000E+00 -0.46322054377E+03  0.46322054377E+03  0.00000000000E+00 0.  1.
         25    1    1    2    0    0  0.00000000000E+00  0.00000000000E+00 -0.45478773557E+03  0.47165335197E+03  0.12500000000E+03 0.  0.
<mgrwt>
<rscale>  2 0.12500000E+03</rscale>
<asrwt>0</asrwt>
<pdfrwt beam="1">  1       21 0.12973550E-02 0.12500000E+03</pdfrwt>
<pdfrwt beam="2">  1       21 0.71264705E-01 0.12500000E+03</pdfrwt>
<totfact> 0.43624303E+06</totfact>
</mgrwt>
</event>
<event>
 3    0  0.1730125E+001  0.1250000E+03  0.7546771E-02  0.1235069E+00
         21   -1    0    0  502  501  0.00000000000E+00  0.00000000000E+00  0.95271280867E+02  0.95271280867E+02  0.00000000000E+00 0.  1.
         21   -1    0    0  501  502 -0.00000000000E+00 -0.00000000000E+00 -0.41001338121E+02  0.41001338121E+02  0.00000000000E+00 0.  1.
         25    1    1    2    0    0  0.00000000000E+00  0.00000000000E+00  0.54269942746E+02  0.13627261899E+03  0.12500000000E+03 0.  0.
<mgrwt>
<rscale>  2 0.12500000E+03</rscale>
<asrwt>0</asrwt>
<pdfrwt beam="1">  1       21 0.14657120E-01 0.12500000E+03</pdfrwt>
<pdfrwt beam="2">  1       21 0.63078982E-02 0.12500000E+03</pdfrwt>
<totfact> 0.72528404E+06</totfact>
</mgrwt>
</event>
<event>
 3    0  0.1719005E+001  0.1250000E+03  0.7546771E-02  0.1235069E+00
         21   -1    0    0  502  501  0.00000000000E+00  0.00000000000E+00  0.11822845118E+03  0.11822845118E+03  0.00000000000E+00 0.  1.
         21   -1    0    0  501  502 -0.00000000000E+00 -0.00000000000E+00 -0.33039847523E+02  0.33039847523E+02  0.00000000000E+00 0.  1.
         25    1    1    2    0    0  0.00000000000E+00  0.00000000000E+00  0.85188603659E+02  0.15126829871E+03  0.12500000000E+03 0.  0.
<mgrwt>
<rscale>  2 0.12500000E+03</rscale>
<asrwt>0</asrwt>
<pdfrwt beam="1">  1       21 0.18188992E-01 0.12500000E+03</pdfrwt>
<pdfrwt beam="2">  1       21 0.50830535E-02 0.12500000E+03</pdfrwt>
<totfact> 0.70600241E+06</totfact>
</mgrwt>
</event>
<event>
 3    0  0.1723999E+001  0.1250000E+03  0.7546771E-02  0.1235069E+00
         21   -1    0    0  502  501  0.00000000000E+00  0.00000000000E+00  0.38606963743E+02  0.38606963743E+02  0.00000000000E+00 0.  1.
         21   -1    0    0  501  502 -0.00000000000E+00 -0.00000000000E+00 -0.10117993287E+03  0.10117993287E+03  0.00000000000E+00 0.  1.
         25    1    1    2    0    0  0.00000000000E+00  0.00000000000E+00 -0.62572969131E+02  0.13978689662E+03  0.12500000000E+03 0.  0.
<mgrwt>
<rscale>  2 0.12500000E+03</rscale>
<asrwt>0</asrwt>
<pdfrwt beam="1">  1       21 0.59395329E-02 0.12500000E+03</pdfrwt>
<pdfrwt beam="2">  1       21 0.15566143E-01 0.12500000E+03</pdfrwt>
<totfact> 0.72067141E+06</totfact>
</mgrwt>
</event>
<event>
 3    0  0.1626163E+001  0.1250000E+03  0.7546771E-02  0.1235069E+00
         21   -1    0    0  502  501  0.00000000000E+00  0.00000000000E+00  0.22443822969E+03  0.22443822969E+03  0.00000000000E+00 0. -1.
         21   -1    0    0  501  502 -0.00000000000E+00 -0.00000000000E+00 -0.17404566082E+02  0.17404566082E+02  0.00000000000E+00 0. -1.
         25    1    1    2    0    0  0.00000000000E+00  0.00000000000E+00  0.20703366361E+03  0.24184279578E+03  0.12500000000E+03 0.  0.
<mgrwt>
<rscale>  2 0.12500000E+03</rscale>
<asrwt>0</asrwt>
<pdfrwt beam="1">  1       21 0.34528956E-01 0.12500000E+03</pdfrwt>
<pdfrwt beam="2">  1       21 0.26776257E-02 0.12500000E+03</pdfrwt>
<totfact> 0.60654795E+06</totfact>
</mgrwt>
</event>
<event>
 3    0  0.1677385E+001  0.1250000E+03  0.7546771E-02  0.1235069E+00
         21   -1    0    0  502  501  0.00000000000E+00  0.00000000000E+00  0.20951914439E+02  0.20951914439E+02  0.00000000000E+00 0.  1.
         21   -1    0    0  501  502 -0.00000000000E+00 -0.00000000000E+00 -0.18643881023E+03  0.18643881023E+03  0.00000000000E+00 0.  1.
         25    1    1    2    0    0  0.00000000000E+00  0.00000000000E+00 -0.16548689579E+03  0.20739072467E+03  0.12500000000E+03 0.  0.
<mgrwt>
<rscale>  2 0.12500000E+03</rscale>
<asrwt>0</asrwt>
<pdfrwt beam="1">  1       21 0.32233714E-02 0.12500000E+03</pdfrwt>
<pdfrwt beam="2">  1       21 0.28682894E-01 0.12500000E+03</pdfrwt>
<totfact> 0.64135111E+06</totfact>
</mgrwt>
</event>
<event>
 3    0  0.1368989E+001  0.1250000E+03  0.7546771E-02  0.1235069E+00
         21   -1    0    0  502  501  0.00000000000E+00  0.00000000000E+00  0.10434139978E+04  0.10434139978E+04  0.00000000000E+00 0. -1.
         21   -1    0    0  501  502 -0.00000000000E+00 -0.00000000000E+00 -0.37437201421E+01  0.37437201421E+01  0.00000000000E+00 0. -1.
         25    1    1    2    0    0  0.00000000000E+00  0.00000000000E+00  0.10396702776E+04  0.10471577179E+04  0.12500000000E+03 0.  0.
<mgrwt>
<rscale>  2 0.12500000E+03</rscale>
<asrwt>0</asrwt>
<pdfrwt beam="1">  1       21 0.16052500E+00 0.12500000E+03</pdfrwt>
<pdfrwt beam="2">  1       21 0.57595777E-03 0.12500000E+03</pdfrwt>
<totfact> 0.22466504E+06</totfact>
</mgrwt>
</event>
<event>
 3    0  0.1735043E+001  0.1250000E+03  0.7546771E-02  0.1235069E+00
         21   -1    0    0  502  501  0.00000000000E+00  0.00000000000E+00  0.73467568094E+02  0.73467568094E+02  0.00000000000E+00 0.  1.
         21   -1    0    0  501  502 -0.00000000000E+00 -0.00000000000E+00 -0.53169719665E+02  0.53169719665E+02  0.00000000000E+00 0.  1.
         25    1    1    2    0    0  0.00000000000E+00  0.00000000000E+00  0.20297848430E+02  0.12663728776E+03  0.12500000000E+03 0.  0.
<mgrwt>
<rscale>  2 0.12500000E+03</rscale>
<asrwt>0</asrwt>
<pdfrwt beam="1">  1       21 0.11302703E-01 0.12500000E+03</pdfrwt>
<pdfrwt beam="2">  1       21 0.81799569E-02 0.12500000E+03</pdfrwt>
<totfact> 0.73818600E+06</totfact>
</mgrwt>
</event>
<event>
 3    0  0.1624227E+001  0.1250000E+03  0.7546771E-02  0.1235069E+00
         21   -1    0    0  502  501  0.00000000000E+00  0.00000000000E+00  0.23506806092E+03  0.23506806092E+03  0.00000000000E+00 0.  1.
         21   -1    0    0  501  502 -0.00000000000E+00 -0.00000000000E+00 -0.16617527642E+02  0.16617527642E+02  0.00000000000E+00 0.  1.
         25    1    1    2    0    0  0.00000000000E+00  0.00000000000E+00  0.21845053328E+03  0.25168558856E+03  0.12500000000E+03 0.  0.
<mgrwt>
<rscale>  2 0.12500000E+03</rscale>
<asrwt>0</asrwt>
<pdfrwt beam="1">  1       21 0.36164315E-01 0.12500000E+03</pdfrwt>
<pdfrwt beam="2">  1       21 0.25565429E-02 0.12500000E+03</pdfrwt>
<totfact> 0.59719857E+06</totfact>
</mgrwt>
</event>
<event>
 3    0  0.1690950E+001  0.1250000E+03  0.7546771E-02  0.1235069E+00
         21   -1    0    0  502  501  0.00000000000E+00  0.00000000000E+00  0.15133091945E+03  0.15133091945E+03  0.00000000000E+00 0.  1.
         21   -1    0    0  501  502 -0.00000000000E+00 -0.00000000000E+00 -0.25812636402E+02  0.25812636402E+02  0.00000000000E+00 0.  1.
         25    1    1    2    0    0  0.00000000000E+00  0.00000000000E+00  0.12551828304E+03  0.17714355585E+03  0.12500000000E+03 0.  0.
<mgrwt>
<rscale>  2 0.12500000E+03</rscale>
<asrwt>0</asrwt>
<pdfrwt beam="1">  1       21 0.23281679E-01 0.12500000E+03</pdfrwt>
<pdfrwt beam="2">  1       21 0.39711749E-02 0.12500000E+03</pdfrwt>
<totfact> 0.67480739E+06</totfact>
</mgrwt>
</event>
<event>
 3    0  0.1734590E+001  0.1250000E+03  0.7546771E-02  0.1235069E+00
         21   -1    0    0  502  501  0.00000000000E+00  0.00000000000E+00  0.50411669859E+02  0.50411669859E+02  0.00000000000E+00 0.  1.
         21   -1    0    0  501  502 -0.00000000000E+00 -0.00000000000E+00 -0.77487018600E+02  0.77487018600E+02  0.00000000000E+00 0.  1.
         25    1    1    2    0    0  0.00000000000E+00  0.00000000000E+00 -0.27075348742E+02  0.12789868846E+03  0.12500000000E+03 0.  0.
<mgrwt>
<rscale>  2 0.12500000E+03</rscale>
<asrwt>0</asrwt>
<pdfrwt beam="1">  1       21 0.77556415E-02 0.12500000E+03</pdfrwt>
<pdfrwt beam="2">  1       21 0.11921080E-01 0.12500000E+03</pdfrwt>
<totfact> 0.73647249E+06</totfact>
</mgrwt>
</event>
<event>
 3    0  0.1730194E+001  0.1250000E+03  0.7546771E-02  0.1235069E+00
         21   -1    0    0  502  501  0.00000000000E+00  0.00000000000E+00  0.45540611459E+02  0.45540611459E+02  0.00000000000E+00 0.  1.
         21   -1    0    0  501  502 -0.00000000000E+00 -0.00000000000E+00 -0.85775088977E+02  0.85775088977E+02  0.00000000000E+00 0.  1.
         25    1    1    2    0    0  0.00000000000E+00  0.00000000000E+00 -0.40234477518E+02  0.13131570044E+03  0.12500000000E+03 0.  0.
<mgrwt>
<rscale>  2 0.12500000E+03</rscale>
<asrwt>0</asrwt>
<pdfrwt beam="1">  1       21 0.70062480E-02 0.12500000E+03</pdfrwt>
<pdfrwt beam="2">  1       21 0.13196167E-01 0.12500000E+03</pdfrwt>
<totfact> 0.73188160E+06</totfact>
</mgrwt>
</event>
<event>
 3    0  0.1411705E+001  0.1250000E+03  0.7546771E-02  0.1235069E+00
         21   -1    0    0  502  501  0.00000000000E+00  0.00000000000E+00  0.70620150686E+01  0.70620150686E+01  0.00000000000E+00 0. -1.
         21   -1    0    0  501  502 -0.00000000000E+00 -0.00000000000E+00 -0.55313532498E+03  0.55313532498E+03  0.00000000000E+00 0. -1.
         25    1    1    2    0    0  0.00000000000E+00  0.00000000000E+00 -0.54607330991E+03  0.56019734005E+03  0.12500000000E+03 0.  0.
<mgrwt>
<rscale>  2 0.12500000E+03</rscale>
<asrwt>0</asrwt>
<pdfrwt beam="1">  1       21 0.10864639E-02 0.12500000E+03</pdfrwt>
<pdfrwt beam="2">  1       21 0.85097737E-01 0.12500000E+03</pdfrwt>
<totfact> 0.38956835E+06</totfact>
</mgrwt>
</event>
<event>
 3    0  0.1692717E+001  0.1250000E+03  0.7546771E-02  0.1235069E+00
         21   -1    0    0  502  501  0.00000000000E+00  0.00000000000E+00  0.11906297920E+03  0.11906297920E+03  0.00000000000E+00 0. -1.
         21   -1    0    0  501  502 -0.00000000000E+00 -0.00000000000E+00 -0.32808266903E+02  0.32808266903E+02  0.00000000000E+00 0. -1.
         25    1    1    2    0    0  0.00000000000E+00  0.00000000000E+00  0.86254712301E+02  0.15187124611E+03  0.12500000000E+03 0.  0.
<mgrwt>
<rscale>  2 0.12500000E+03</rscale>
<asrwt>0</asrwt>
<pdfrwt beam="1">  1       21 0.18317381E-01 0.12500000E+03</pdfrwt>
<pdfrwt beam="2">  1       21 0.50474257E-02 0.12500000E+03</pdfrwt>
<totfact> 0.70524923E+06</totfact>
</mgrwt>
</event>
<event>
 3    0  0.1374425E+001  0.1250000E+03  0.7546771E-02  0.1235069E+00
         21   -1    0    0  502  501  0.00000000000E+00  0.00000000000E+00  0.59356119685E+01  0.59356119685E+01  0.00000000000E+00 0.  1.
         21   -1    0    0  501  502 -0.00000000000E+00 -0.00000000000E+00 -0.65810400355E+03  0.65810400355E+03  0.00000000000E+00 0.  1.
         25    1    1    2    0    0  0.00000000000E+00  0.00000000000E+00 -0.65216839158E+03  0.66403961552E+03  0.12500000000E+03 0.  0.
<mgrwt>
<rscale>  2 0.12500000E+03</rscale>
<asrwt>0</asrwt>
<pdfrwt beam="1">  1       21 0.91317153E-03 0.12500000E+03</pdfrwt>
<pdfrwt beam="2">  1       21 0.10124672E+00 0.12500000E+03</pdfrwt>
<totfact> 0.34343104E+06</totfact>
</mgrwt>
</event>
<event>
 3    0  0.1736329E+001  0.1250000E+03  0.7546771E-02  0.1235069E+00
         21   -1    0    0  502  501  0.00000000000E+00  0.00000000000E+00  0.57903825999E+02  0.57903825999E+02  0.00000000000E+00 0.  1.
         21   -1    0    0  501  502 -0.00000000000E+00 -0.00000000000E+00 -0.67460999901E+02  0.67460999901E+02  0.00000000000E+00 0.  1.
         25    1    1    2    0    0  0.00000000000E+00  0.00000000000E+00 -0.95571739018E+01  0.12536482590E+03  0.12500000000E+03 0.  0.
<mgrwt>
<rscale>  2 0.12500000E+03</rscale>
<asrwt>0</asrwt>
<pdfrwt beam="1">  1       21 0.89082809E-02 0.12500000E+03</pdfrwt>
<pdfrwt beam="2">  1       21 0.10378615E-01 0.12500000E+03</pdfrwt>
<totfact> 0.73994321E+06</totfact>
</mgrwt>
</event>
<event>
 3    0  0.1705933E+001  0.1250000E+03  0.7546771E-02  0.1235069E+00
         21   -1    0    0  502  501  0.00000000000E+00  0.00000000000E+00  0.83478006094E+02  0.83478006094E+02  0.00000000000E+00 0. -1.
         21   -1    0    0  501  502 -0.00000000000E+00 -0.00000000000E+00 -0.46793762606E+02  0.46793762606E+02  0.00000000000E+00 0. -1.
         25    1    1    2    0    0  0.00000000000E+00  0.00000000000E+00  0.36684243488E+02  0.13027176870E+03  0.12500000000E+03 0.  0.
<mgrwt>
<rscale>  2 0.12500000E+03</rscale>
<asrwt>0</asrwt>
<pdfrwt beam="1">  1       21 0.12842770E-01 0.12500000E+03</pdfrwt>
<pdfrwt beam="2">  1       21 0.71990404E-02 0.12500000E+03</pdfrwt>
<totfact> 0.73328615E+06</totfact>
</mgrwt>
</event>
<event>
 3    0  0.1368989E+001  0.1250000E+03  0.7546771E-02  0.1235069E+00
         21   -1    0    0  502  501  0.00000000000E+00  0.00000000000E+00  0.81757152963E+03  0.81757152963E+03  0.00000000000E+00 0.  1.
         21   -1    0    0  501  502 -0.00000000000E+00 -0.00000000000E+00 -0.47778694077E+01  0.47778694077E+01  0.00000000000E+00 0.  1.
         25    1    1    2    0    0  0.00000000000E+00  0.00000000000E+00  0.81279366022E+03  0.82234939904E+03  0.12500000000E+03 0.  0.
<mgrwt>
<rscale>  2 0.12500000E+03</rscale>
<asrwt>0</asrwt>
<pdfrwt beam="1">  1       21 0.12578012E+00 0.12500000E+03</pdfrwt>
<pdfrwt beam="2">  1       21 0.73505748E-03 0.12500000E+03</pdfrwt>
<totfact> 0.28635618E+06</totfact>
</mgrwt>
</event>
<event>
 3    0  0.1578364E+001  0.1250000E+03  0.7546771E-02  0.1235069E+00
         21   -1    0    0  502  501  0.00000000000E+00  0.00000000000E+00  0.12512157757E+02  0.12512157757E+02  0.00000000000E+00 0. -1.
         21   -1    0    0  501  502 -0.00000000000E+00 -0.00000000000E+00 -0.31219635142E+03  0.31219635142E+03  0.00000000000E+00 0. -1.
         25    1    1    2    0    0  0.00000000000E+00  0.00000000000E+00 -0.29968419366E+03  0.32470850918E+03  0.12500000000E+03 0.  0.
<mgrwt>
<rscale>  2 0.12500000E+03</rscale>
<asrwt>0</asrwt>
<pdfrwt beam="1">  1       21 0.19249474E-02 0.12500000E+03</pdfrwt>
<pdfrwt beam="2">  1       21 0.48030207E-01 0.12500000E+03</pdfrwt>
<totfact> 0.53462314E+06</totfact>
</mgrwt>
</event>
<event>
 3    0  0.1699213E+001  0.1250000E+03  0.7546771E-02  0.1235069E+00
         21   -1    0    0  502  501  0.00000000000E+00  0.00000000000E+00  0.14485311166E+03  0.14485311166E+03  0.00000000000E+00 0.  1.
         21   -1    0    0  501  502 -0.00000000000E+00 -0.00000000000E+00 -0.26966973337E+02  0.26966973337E+02  0.00000000000E+00 0.  1.
         25    1    1    2    0    0  0.00000000000E+00  0.00000000000E+00  0.11788613833E+03  0.17182008500E+03  0.12500000000E+03 0.  0.
<mgrwt>
<rscale>  2 0.12500000E+03</rscale>
<asrwt>0</asrwt>
<pdfrwt beam="1">  1       21 0.22285094E-01 0.12500000E+03</pdfrwt>
<pdfrwt beam="2">  1       21 0.41487652E-02 0.12500000E+03</pdfrwt>
<totfact> 0.68102528E+06</totfact>
</mgrwt>
</event>
<event>
 3    0  0.1639754E+001  0.1250000E+03  0.7546771E-02  0.1235069E+00
         21   -1    0    0  502  501  0.00000000000E+00  0.00000000000E+00  0.21141852878E+02  0.21141852878E+02  0.00000000000E+00 0. -1.
         21   -1    0    0  501  502 -0.00000000000E+00 -0.00000000000E+00 -0.18476384367E+03  0.18476384367E+03  0.00000000000E+00 0. -1.
         25    1    1    2    0    0  0.00000000000E+00  0.00000000000E+00 -0.16362199079E+03  0.20590569655E+03  0.12500000000E+03 0.  0.
<mgrwt>
<rscale>  2 0.12500000E+03</rscale>
<asrwt>0</asrwt>
<pdfrwt beam="1">  1       21 0.32525928E-02 0.12500000E+03</pdfrwt>
<pdfrwt beam="2">  1       21 0.28425206E-01 0.12500000E+03</pdfrwt>
<totfact> 0.64292895E+06</totfact>
</mgrwt>
</event>
<event>
 3    0  0.1368989E+001  0.1250000E+03  0.7546771E-02  0.1235069E+00
         21   -1    0    0  502  501  0.00000000000E+00  0.00000000000E+00  0.19352455017E+01  0.19352455017E+01  0.00000000000E+00 0.  1.
         21   -1    0    0  501  502 -0.00000000000E+00 -0.00000000000E+00 -0.20184777572E+04  0.20184777572E+04  0.00000000000E+00 0.  1.
         25    1    1    2    0    0  0.00000000000E+00  0.00000000000E+00 -0.20165425117E+04  0.20204130027E+04  0.12500000000E+03 0.  0.
<mgrwt>
<rscale>  2 0.12500000E+03</rscale>
<asrwt>0</asrwt>
<pdfrwt beam="1">  1       21 0.29772803E-03 0.12500000E+03</pdfrwt>
<pdfrwt beam="2">  1       21 0.31053718E+00 0.12500000E+03</pdfrwt>
<totfact> 0.77504529E+05</totfact>
</mgrwt>
</event>
<event>
 3    0  0.1368989E+001  0.1250000E+03  0.7546771E-02  0.1235069E+00
         21   -1    0    0  502  501  0.00000000000E+00  0.00000000000E+00  0.77527925287E+03  0.77527925287E+03  0.00000000000E+00 0.  1.
         21   -1    0    0  501  502 -0.00000000000E+00 -0.00000000000E+00 -0.50385070741E+01  0.50385070741E+01  0.00000000000E+00 0.  1.
         25    1    1    2    0    0  0.00000000000E+00  0.00000000000E+00  0.77024074580E+03  0.78031775994E+03  0.12500000000E+03 0.  0.
<mgrwt>
<rscale>  2 0.12500000E+03</rscale>
<asrwt>0</asrwt>
<pdfrwt beam="1">  1       21 0.11927364E+00 0.12500000E+03</pdfrwt>
<pdfrwt beam="2">  1       21 0.77515555E-03 0.12500000E+03</pdfrwt>
<totfact> 0.30025400E+06</totfact>
</mgrwt>
</event>
<event>
 3    0  0.1461263E+001  0.1250000E+03  0.7546771E-02  0.1235069E+00
         21   -1    0    0  502  501  0.00000000000E+00  0.00000000000E+00  0.78124777052E+01  0.78124777052E+01  0.00000000000E+00 0.  1.
         21   -1    0    0  501  502 -0.00000000000E+00 -0.00000000000E+00 -0.50000142687E+03  0.50000142687E+03  0.00000000000E+00 0.  1.
         25    1    1    2    0    0  0.00000000000E+00  0.00000000000E+00 -0.49218894917E+03  0.50781390458E+03  0.12500000000E+03 0.  0.
<mgrwt>
<rscale>  2 0.12500000E+03</rscale>
<asrwt>0</asrwt>
<pdfrwt beam="1">  1       21 0.12019192E-02 0.12500000E+03</pdfrwt>
<pdfrwt beam="2">  1       21 0.76923323E-01 0.12500000E+03</pdfrwt>
<totfact> 0.41623442E+06</totfact>
</mgrwt>
</event>
<event>
 3    0  0.1516541E+001  0.1250000E+03  0.7546771E-02  0.1235069E+00
         21   -1    0    0  502  501  0.00000000000E+00  0.00000000000E+00  0.39225048936E+03  0.39225048936E+03  0.00000000000E+00 0. -1.
         21   -1    0    0  501  502 -0.00000000000E+00 -0.00000000000E+00 -0.99585599151E+01  0.99585599151E+01  0.00000000000E+00 0. -1.
         25    1    1    2    0    0  0.00000000000E+00  0.00000000000E+00  0.38229192944E+03  0.40220904927E+03  0.12500000000E+03 0.  0.
<mgrwt>
<rscale>  2 0.12500000E+03</rscale>
<asrwt>0</asrwt>
<pdfrwt beam="1">  1       21 0.60346217E-01 0.12500000E+03</pdfrwt>
<pdfrwt beam="2">  1       21 0.15320864E-02 0.12500000E+03</pdfrwt>
<totfact> 0.47895176E+06</totfact>
</mgrwt>
</event>
<event>
 3    0  0.1421181E+001  0.1250000E+03  0.7546771E-02  0.1235069E+00
         21   -1    0    0  502  501  0.00000000000E+00  0.00000000000E+00  0.71320949653E+01  0.71320949653E+01  0.00000000000E+00 0. -1.
         21   -1    0    0  501  502 -0.00000000000E+00 -0.00000000000E+00 -0.54770022258E+03  0.54770022258E+03  0.00000000000E+00 0. -1.
         25    1    1    2    0    0  0.00000000000E+00  0.00000000000E+00 -0.54056812762E+03  0.55483231755E+03  0.12500000000E+03 0.  0.
<mgrwt>
<rscale>  2 0.12500000E+03</rscale>
<asrwt>0</asrwt>
<pdfrwt beam="1">  1       21 0.10972452E-02 0.12500000E+03</pdfrwt>
<pdfrwt beam="2">  1       21 0.84261590E-01 0.12500000E+03</pdfrwt>
<totfact> 0.39218342E+06</totfact>
</mgrwt>
</event>
<event>
 3    0  0.1688726E+001  0.1250000E+03  0.7546771E-02  0.1235069E+00
         21   -1    0    0  502  501  0.00000000000E+00  0.00000000000E+00  0.24692988434E+02  0.24692988434E+02  0.00000000000E+00 0.  1.
         21   -1    0    0  501  502 -0.00000000000E+00 -0.00000000000E+00 -0.15819267929E+03  0.15819267929E+03  0.00000000000E+00 0.  1.
         25    1    1    2    0    0  0.00000000000E+00  0.00000000000E+00 -0.13349969085E+03  0.18288566772E+03  0.12500000000E+03 0.  0.
<mgrwt>
<rscale>  2 0.12500000E+03</rscale>
<asrwt>0</asrwt>
<pdfrwt beam="1">  1       21 0.37989213E-02 0.12500000E+03</pdfrwt>
<pdfrwt beam="2">  1       21 0.24337335E-01 0.12500000E+03</pdfrwt>
<totfact> 0.66822034E+06</totfact>
</mgrwt>
</event>
<event>
 3    0  0.1511401E+001  0.1250000E+03  0.7546771E-02  0.1235069E+00
         21   -1    0    0  502  501  0.00000000000E+00  0.00000000000E+00  0.42620398309E+03  0.42620398309E+03  0.00000000000E+00 0.  1.
         21   -1    0    0  501  502 -0.00000000000E+00 -0.00000000000E+00 -0.91652123278E+01  0.91652123278E+01  0.00000000000E+00 0.  1.
         25    1    1    2    0    0  0.00000000000E+00  0.00000000000E+00  0.41703877077E+03  0.43536919542E+03  0.12500000000E+03 0.  0.
<mgrwt>
<rscale>  2 0.12500000E+03</rscale>
<asrwt>0</asrwt>
<pdfrwt beam="1">  1       21 0.65569828E-01 0.12500000E+03</pdfrwt>
<pdfrwt beam="2">  1       21 0.14100330E-02 0.12500000E+03</pdfrwt>
<totfact> 0.45780548E+06</totfact>
</mgrwt>
</event>
<event>
 3    0  0.1380050E+001  0.1250000E+03  0.7546771E-02  0.1235069E+00
         21   -1    0    0  502  501  0.00000000000E+00  0.00000000000E+00  0.64806543114E+01  0.64806543114E+01  0.00000000000E+00 0. -1.
         21   -1    0    0  501  502 -0.00000000000E+00 -0.00000000000E+00 -0.60275549540E+03  0.60275549540E+03  0.00000000000E+00 0. -1.
         25    1    1    2    0    0  0.00000000000E+00  0.00000000000E+00 -0.59627484109E+03  0.60923614971E+03  0.12500000000E+03 0.  0.
<mgrwt>
<rscale>  2 0.12500000E+03</rscale>
<asrwt>0</asrwt>
<pdfrwt beam="1">  1       21 0.99702344E-03 0.12500000E+03</pdfrwt>
<pdfrwt beam="2">  1       21 0.92731643E-01 0.12500000E+03</pdfrwt>
<totfact> 0.36678233E+06</totfact>
</mgrwt>
</event>
<event>
 3    0  0.1374073E+001  0.1250000E+03  0.7546771E-02  0.1235069E+00
         21   -1    0    0  502  501  0.00000000000E+00  0.00000000000E+00  0.75191619248E+03  0.75191619248E+03  0.00000000000E+00 0.  1.
         21   -1    0    0  501  502 -0.00000000000E+00 -0.00000000000E+00 -0.51950603526E+01  0.51950603526E+01  0.00000000000E+00 0.  1.
         25    1    1    2    0    0  0.00000000000E+00  0.00000000000E+00  0.74672113213E+03  0.75711125283E+03  0.12500000000E+03 0.  0.
<mgrwt>
<rscale>  2 0.12500000E+03</rscale>
<asrwt>0</asrwt>
<pdfrwt beam="1">  1       21 0.11567933E+00 0.12500000E+03</pdfrwt>
<pdfrwt beam="2">  1       21 0.79924065E-03 0.12500000E+03</pdfrwt>
<totfact> 0.30820333E+06</totfact>
</mgrwt>
</event>
<event>
 3    0  0.1650237E+001  0.1250000E+03  0.7546771E-02  0.1235069E+00
         21   -1    0    0  502  501  0.00000000000E+00  0.00000000000E+00  0.20801824222E+02  0.20801824222E+02  0.00000000000E+00 0. -1.
         21   -1    0    0  501  502 -0.00000000000E+00 -0.00000000000E+00 -0.18778401155E+03  0.18778401155E+03  0.00000000000E+00 0. -1.
         25    1    1    2    0    0  0.00000000000E+00  0.00000000000E+00 -0.16698218733E+03  0.20858583577E+03  0.12500000000E+03 0.  0.
<mgrwt>
<rscale>  2 0.12500000E+03</rscale>
<asrwt>0</asrwt>
<pdfrwt beam="1">  1       21 0.32002806E-02 0.12500000E+03</pdfrwt>
<pdfrwt beam="2">  1       21 0.28889848E-01 0.12500000E+03</pdfrwt>
<totfact> 0.64008629E+06</totfact>
</mgrwt>
</event>
<event>
 3    0  0.1702724E+001  0.1250000E+03  0.7546771E-02  0.1235069E+00
         21   -1    0    0  502  501  0.00000000000E+00  0.00000000000E+00  0.44562235825E+02  0.44562235825E+02  0.00000000000E+00 0. -1.
         21   -1    0    0  501  502 -0.00000000000E+00 -0.00000000000E+00 -0.87658303667E+02  0.87658303667E+02  0.00000000000E+00 0. -1.
         25    1    1    2    0    0  0.00000000000E+00  0.00000000000E+00 -0.43096067842E+02  0.13222053949E+03  0.12500000000E+03 0.  0.
<mgrwt>
<rscale>  2 0.12500000E+03</rscale>
<asrwt>0</asrwt>
<pdfrwt beam="1">  1       21 0.68557286E-02 0.12500000E+03</pdfrwt>
<pdfrwt beam="2">  1       21 0.13485893E-01 0.12500000E+03</pdfrwt>
<totfact> 0.73066662E+06</totfact>
</mgrwt>
</event>
<event>
 3    0  0.1528153E+001  0.1250000E+03  0.7546771E-02  0.1235069E+00
         21   -1    0    0  502  501  0.00000000000E+00  0.00000000000E+00  0.38658173020E+03  0.38658173020E+03  0.00000000000E+00 0. -1.
         21   -1    0    0  501  502 -0.00000000000E+00 -0.00000000000E+00 -0.10104590297E+02  0.10104590297E+02  0.00000000000E+00 0. -1.
         25    1    1    2    0    0  0.00000000000E+00  0.00000000000E+00  0.37647713990E+03  0.39668632050E+03  0.12500000000E+03 0.  0.
<mgrwt>
<rscale>  2 0.12500000E+03</rscale>
<asrwt>0</asrwt>
<pdfrwt beam="1">  1       21 0.59474101E-01 0.12500000E+03</pdfrwt>
<pdfrwt beam="2">  1       21 0.15545527E-02 0.12500000E+03</pdfrwt>
<totfact> 0.48261928E+06</totfact>
</mgrwt>
</event>
<event>
 3    0  0.1701335E+001  0.1250000E+03  0.7546771E-02  0.1235069E+00
         21   -1    0    0  502  501  0.00000000000E+00  0.00000000000E+00  0.44111179076E+02  0.44111179076E+02  0.00000000000E+00 0. -1.
         21   -1    0    0  501  502 -0.00000000000E+00 -0.00000000000E+00 -0.88554649453E+02  0.88554649453E+02  0.00000000000E+00 0. -1.
         25    1    1    2    0    0  0.00000000000E+00  0.00000000000E+00 -0.44443470377E+02  0.13266582853E+03  0.12500000000E+03 0.  0.
<mgrwt>
<rscale>  2 0.12500000E+03</rscale>
<asrwt>0</asrwt>
<pdfrwt beam="1">  1       21 0.67863353E-02 0.12500000E+03</pdfrwt>
<pdfrwt beam="2">  1       21 0.13623792E-01 0.12500000E+03</pdfrwt>
<totfact> 0.73007054E+06</totfact>
</mgrwt>
</event>
<event>
 3    0  0.1607943E+001  0.1250000E+03  0.7546771E-02  0.1235069E+00
         21   -1    0    0  502  501  0.00000000000E+00  0.00000000000E+00  0.23214386603E+03  0.23214386603E+03  0.00000000000E+00 0. -1.
         21   -1    0    0  501  502 -0.00000000000E+00 -0.00000000000E+00 -0.16826849947E+02  0.16826849947E+02  0.00000000000E+00 0. -1.
         25    1    1    2    0    0  0.00000000000E+00  0.00000000000E+00  0.21531701609E+03  0.24897071598E+03  0.12500000000E+03 0.  0.
<mgrwt>
<rscale>  2 0.12500000E+03</rscale>
<asrwt>0</asrwt>
<pdfrwt beam="1">  1       21 0.35714439E-01 0.12500000E+03</pdfrwt>
<pdfrwt beam="2">  1       21 0.25887463E-02 0.12500000E+03</pdfrwt>
<totfact> 0.59975231E+06</totfact>
</mgrwt>
</event>
<event>
 3    0  0.1679467E+001  0.1250000E+03  0.7546771E-02  0.1235069E+00
         21   -1    0    0  502  501  0.00000000000E+00  0.00000000000E+00  0.12828357970E+03  0.12828357970E+03  0.00000000000E+00 0. -1.
         21   -1    0    0  501  502 -0.00000000000E+00 -0.00000000000E+00 -0.30450116915E+02  0.30450116915E+02  0.00000000000E+00 0. -1.
         25    1    1    2    0    0  0.00000000000E+00  0.00000000000E+00  0.97833462782E+02  0.15873369661E+03  0.12500000000E+03 0.  0.
<mgrwt>
<rscale>  2 0.12500000E+03</rscale>
<asrwt>0</asrwt>
<pdfrwt beam="1">  1       21 0.19735935E-01 0.12500000E+03</pdfrwt>
<pdfrwt beam="2">  1       21 0.46846334E-02 0.12500000E+03</pdfrwt>
<totfact> 0.69674556E+06</totfact>
</mgrwt>
</event>
<event>
 3    0  0.1568654E+001  0.1250000E+03  0.7546771E-02  0.1235069E+00
         21   -1    0    0  502  501  0.00000000000E+00  0.00000000000E+00  0.32716097558E+03  0.32716097558E+03  0.00000000000E+00 0.  1.
         21   -1    0    0  501  502 -0.00000000000E+00 -0.00000000000E+00 -0.11939840909E+02  0.11939840909E+02  0.00000000000E+00 0.  1.
         25    1    1    2    0    0  0.00000000000E+00  0.00000000000E+00  0.31522113467E+03  0.33910081649E+03  0.12500000000E+03 0.  0.
<mgrwt>
<rscale>  2 0.12500000E+03</rscale>
<asrwt>0</asrwt>
<pdfrwt beam="1">  1       21 0.50332451E-01 0.12500000E+03</pdfrwt>
<pdfrwt beam="2">  1       21 0.18368989E-02 0.12500000E+03</pdfrwt>
<totfact> 0.52353583E+06</totfact>
</mgrwt>
</event>
<event>
 3    0  0.1368989E+001  0.1250000E+03  0.7546771E-02  0.1235069E+00
         21   -1    0    0  502  501  0.00000000000E+00  0.00000000000E+00  0.98698555347E+03  0.98698555347E+03  0.00000000000E+00 0.  1.
         21   -1    0    0  501  502 -0.00000000000E+00 -0.00000000000E+00 -0.39577580303E+01  0.39577580303E+01  0.00000000000E+00 0.  1.
         25    1    1    2    0    0  0.00000000000E+00  0.00000000000E+00  0.98302779544E+03  0.99094331150E+03  0.12500000000E+03 0.  0.
<mgrwt>
<rscale>  2 0.12500000E+03</rscale>
<asrwt>0</asrwt>
<pdfrwt beam="1">  1       21 0.15184374E+00 0.12500000E+03</pdfrwt>
<pdfrwt beam="2">  1       21 0.60888664E-03 0.12500000E+03</pdfrwt>
<totfact> 0.23846307E+06</totfact>
</mgrwt>
</event>
<event>
 3    0  0.1680472E+001  0.1250000E+03  0.7546771E-02  0.1235069E+00
         21   -1    0    0  502  501  0.00000000000E+00  0.00000000000E+00  0.27296517197E+02  0.27296517197E+02  0.00000000000E+00 0. -1.
         21   -1    0    0  501  502 -0.00000000000E+00 -0.00000000000E+00 -0.14310433715E+03  0.14310433715E+03  0.00000000000E+00 0. -1.
         25    1    1    2    0    0  0.00000000000E+00  0.00000000000E+00 -0.11580781995E+03  0.17040085435E+03  0.12500000000E+03 0.  0.
<mgrwt>
<rscale>  2 0.12500000E+03</rscale>
<asrwt>0</asrwt>
<pdfrwt beam="1">  1       21 0.41994641E-02 0.12500000E+03</pdfrwt>
<pdfrwt beam="2">  1       21 0.22016052E-01 0.12500000E+03</pdfrwt>
<totfact> 0.68270148E+06</totfact>
</mgrwt>
</event>
<event>
 3    0  0.1368989E+001  0.1250000E+03  0.7546771E-02  0.1235069E+00
         21   -1    0    0  502  501  0.00000000000E+00  0.00000000000E+00  0.25174978933E+01  0.25174978933E+01  0.00000000000E+00 0. -1.
         21   -1    0    0  501  502 -0.00000000000E+00 -0.00000000000E+00 -0.15516398287E+04  0.15516398287E+04  0.00000000000E+00 0. -1.
         25    1    1    2    0    0  0.00000000000E+00  0.00000000000E+00 -0.15491223309E+04  0.15541573266E+04  0.12500000000E+03 0.  0.
<mgrwt>
<rscale>  2 0.12500000E+03</rscale>
<asrwt>0</asrwt>
<pdfrwt beam="1">  1       21 0.38730736E-03 0.12500000E+03</pdfrwt>
<pdfrwt beam="2">  1       21 0.23871382E+00 0.12500000E+03</pdfrwt>
<totfact> 0.13208582E+06</totfact>
</mgrwt>
</event>
<event>
 3    0  0.1709395E+001  0.1250000E+03  0.7546771E-02  0.1235069E+00
         21   -1    0    0  502  501  0.00000000000E+00  0.00000000000E+00  0.52296709720E+02  0.52296709720E+02  0.00000000000E+00 0. -1.
         21   -1    0    0  501  502 -0.00000000000E+00 -0.00000000000E+00 -0.74693991666E+02  0.74693991666E+02  0.00000000000E+00 0. -1.
         25    1    1    2    0    0  0.00000000000E+00  0.00000000000E+00 -0.22397281946E+02  0.12699070139E+03  0.12500000000E+03 0.  0.
<mgrwt>
<rscale>  2 0.12500000E+03</rscale>
<asrwt>0</asrwt>
<pdfrwt beam="1">  1       21 0.80456477E-02 0.12500000E+03</pdfrwt>
<pdfrwt beam="2">  1       21 0.11491383E-01 0.12500000E+03</pdfrwt>
<totfact> 0.73770402E+06</totfact>
</mgrwt>
</event>
<event>
 3    0  0.1617426E+001  0.1250000E+03  0.7546771E-02  0.1235069E+00
         21   -1    0    0  502  501  0.00000000000E+00  0.00000000000E+00  0.27218728872E+03  0.27218728872E+03  0.00000000000E+00 0.  1.
         21   -1    0    0  501  502 -0.00000000000E+00 -0.00000000000E+00 -0.14351331462E+02  0.14351331462E+02  0.00000000000E+00 0.  1.
         25    1    1    2    0    0  0.00000000000E+00  0.00000000000E+00  0.25783595726E+03  0.28653862018E+03  0.12500000000E+03 0.  0.
<mgrwt>
<rscale>  2 0.12500000E+03</rscale>
<asrwt>0</asrwt>
<pdfrwt beam="1">  1       21 0.41874964E-01 0.12500000E+03</pdfrwt>
<pdfrwt beam="2">  1       21 0.22078973E-02 0.12500000E+03</pdfrwt>
<totfact> 0.56593757E+06</totfact>
</mgrwt>
</event>
<event>
 3    0  0.1395292E+001  0.1250000E+03  0.7546771E-02  0.1235069E+00
         21   -1    0    0  502  501  0.00000000000E+00  0.00000000000E+00  0.60525196351E+01  0.60525196351E+01  0.00000000000E+00 0.  1.
         21   -1    0    0  501  502 -0.00000000000E+00 -0.00000000000E+00 -0.64539237135E+03  0.64539237135E+03  0.00000000000E+00 0.  1.
         25    1    1    2    0    0  0.00000000000E+00  0.00000000000E+00 -0.63933985172E+03  0.65144489099E+03  0.12500000000E+03 0.  0.
<mgrwt>
<rscale>  2 0.12500000E+03</rscale>
<asrwt>0</asrwt>
<pdfrwt beam="1">  1       21 0.93115694E-03 0.12500000E+03</pdfrwt>
<pdfrwt beam="2">  1       21 0.99291126E-01 0.12500000E+03</pdfrwt>
<totfact> 0.34864514E+06</totfact>
</mgrwt>
</event>
<event>
 3    0  0.1664822E+001  0.1250000E+03  0.7546771E-02  0.1235069E+00
         21   -1    0    0  502  501  0.00000000000E+00  0.00000000000E+00  0.21206724706E+02  0.21206724706E+02  0.00000000000E+00 0.  1.
         21   -1    0    0  501  502 -0.00000000000E+00 -0.00000000000E+00 -0.18419864709E+03  0.18419864709E+03  0.00000000000E+00 0.  1.
         25    1    1    2    0    0  0.00000000000E+00  0.00000000000E+00 -0.16299192238E+03  0.20540537179E+03  0.12500000000E+03 0.  0.
<mgrwt>
<rscale>  2 0.12500000E+03</rscale>
<asrwt>0</asrwt>
<pdfrwt beam="1">  1       21 0.32625731E-02 0.12500000E+03</pdfrwt>
<pdfrwt beam="2">  1       21 0.28338252E-01 0.12500000E+03</pdfrwt>
<totfact> 0.64346209E+06</totfact>
</mgrwt>
</event>
<event>
 3    0  0.1544867E+001  0.1250000E+03  0.7546771E-02  0.1235069E+00
         21   -1    0    0  502  501  0.00000000000E+00  0.00000000000E+00  0.36211628315E+03  0.36211628315E+03  0.00000000000E+00 0. -1.
         21   -1    0    0  501  502 -0.00000000000E+00 -0.00000000000E+00 -0.10787280721E+02  0.10787280721E+02  0.00000000000E+00 0. -1.
         25    1    1    2    0    0  0.00000000000E+00  0.00000000000E+00  0.35132900243E+03  0.37290356387E+03  0.12500000000E+03 0.  0.
<mgrwt>
<rscale>  2 0.12500000E+03</rscale>
<asrwt>0</asrwt>
<pdfrwt beam="1">  1       21 0.55710188E-01 0.12500000E+03</pdfrwt>
<pdfrwt beam="2">  1       21 0.16595819E-02 0.12500000E+03</pdfrwt>
<totfact> 0.49890159E+06</totfact>
</mgrwt>
</event>
<event>
 3    0  0.1693940E+001  0.1250000E+03  0.7546771E-02  0.1235069E+00
         21   -1    0    0  502  501  0.00000000000E+00  0.00000000000E+00  0.10419309004E+03  0.10419309004E+03  0.00000000000E+00 0. -1.
         21   -1    0    0  501  502 -0.00000000000E+00 -0.00000000000E+00 -0.37490489997E+02  0.37490489997E+02  0.00000000000E+00 0. -1.
         25    1    1    2    0    0  0.00000000000E+00  0.00000000000E+00  0.66702600046E+02  0.14168358004E+03  0.12500000000E+03 0.  0.
<mgrwt>
<rscale>  2 0.12500000E+03</rscale>
<asrwt>0</asrwt>
<pdfrwt beam="1">  1       21 0.16029706E-01 0.12500000E+03</pdfrwt>
<pdfrwt beam="2">  1       21 0.57677677E-02 0.12500000E+03</pdfrwt>
<totfact> 0.71820276E+06</totfact>
</mgrwt>
</event>
<event>
 3    0  0.1681040E+001  0.1250000E+03  0.7546771E-02  0.1235069E+00
         21   -1    0    0  502  501  0.00000000000E+00  0.00000000000E+00  0.13312074277E+03  0.13312074277E+03  0.00000000000E+00 0. -1.
         21   -1    0    0  501  502 -0.00000000000E+00 -0.00000000000E+00 -0.29343661392E+02  0.29343661392E+02  0.00000000000E+00 0. -1.
         25    1    1    2    0    0  0.00000000000E+00  0.00000000000E+00  0.10377708137E+03  0.16246440416E+03  0.12500000000E+03 0.  0.
<mgrwt>
<rscale>  2 0.12500000E+03</rscale>
<asrwt>0</asrwt>
<pdfrwt beam="1">  1       21 0.20480114E-01 0.12500000E+03</pdfrwt>
<pdfrwt beam="2">  1       21 0.45144095E-02 0.12500000E+03</pdfrwt>
<totfact> 0.69219619E+06</totfact>
</mgrwt>
</event>
<event>
 3    0  0.1728095E+001  0.1250000E+03  0.7546771E-02  0.1235069E+00
         21   -1    0    0  502  501  0.00000000000E+00  0.00000000000E+00  0.96397016953E+02  0.96397016953E+02  0.00000000000E+00 0.  1.
         21   -1    0    0  501  502 -0.00000000000E+00 -0.00000000000E+00 -0.40522519508E+02  0.40522519508E+02  0.00000000000E+00 0.  1.
         25    1    1    2    0    0  0.00000000000E+00  0.00000000000E+00  0.55874497445E+02  0.13691953646E+03  0.12500000000E+03 0.  0.
<mgrwt>
<rscale>  2 0.12500000E+03</rscale>
<asrwt>0</asrwt>
<pdfrwt beam="1">  1       21 0.14830310E-01 0.12500000E+03</pdfrwt>
<pdfrwt beam="2">  1       21 0.62342338E-02 0.12500000E+03</pdfrwt>
<totfact> 0.72443297E+06</totfact>
</mgrwt>
</event>
<event>
 3    0  0.1706601E+001  0.1250000E+03  0.7546771E-02  0.1235069E+00
         21   -1    0    0  502  501  0.00000000000E+00  0.00000000000E+00  0.89790791027E+02  0.89790791027E+02  0.00000000000E+00 0. -1.
         21   -1    0    0  501  502 -0.00000000000E+00 -0.00000000000E+00 -0.43503904524E+02  0.43503904524E+02  0.00000000000E+00 0. -1.
         25    1    1    2    0    0  0.00000000000E+00  0.00000000000E+00  0.46286886503E+02  0.13329469555E+03  0.12500000000E+03 0.  0.
<mgrwt>
<rscale>  2 0.12500000E+03</rscale>
<asrwt>0</asrwt>
<pdfrwt beam="1">  1       21 0.13813968E-01 0.12500000E+03</pdfrwt>
<pdfrwt beam="2">  1       21 0.66929084E-02 0.12500000E+03</pdfrwt>
<totfact> 0.72923072E+06</totfact>
</mgrwt>
</event>
<event>
 3    0  0.1636449E+001  0.1250000E+03  0.7546771E-02  0.1235069E+00
         21   -1    0    0  502  501  0.00000000000E+00  0.00000000000E+00  0.22171760989E+03  0.22171760989E+03  0.00000000000E+00 0.  1.
         21   -1    0    0  501  502 -0.00000000000E+00 -0.00000000000E+00 -0.17618131469E+02  0.17618131469E+02  0.00000000000E+00 0.  1.
         25    1    1    2    0    0  0.00000000000E+00  0.00000000000E+00  0.20409947842E+03  0.23933574136E+03  0.12500000000E+03 0.  0.
<mgrwt>
<rscale>  2 0.12500000E+03</rscale>
<asrwt>0</asrwt>
<pdfrwt beam="1">  1       21 0.34110400E-01 0.12500000E+03</pdfrwt>
<pdfrwt beam="2">  1       21 0.27104819E-02 0.12500000E+03</pdfrwt>
<totfact> 0.60897002E+06</totfact>
</mgrwt>
</event>
<event>
 3    0  0.1737063E+001  0.1250000E+03  0.7546771E-02  0.1235069E+00
         21   -1    0    0  502  501  0.00000000000E+00  0.00000000000E+00  0.62033340807E+02  0.62033340807E+02  0.00000000000E+00 0.  1.
         21   -1    0    0  501  502 -0.00000000000E+00 -0.00000000000E+00 -0.62970169738E+02  0.62970169738E+02  0.00000000000E+00 0.  1.
         25    1    1    2    0    0  0.00000000000E+00  0.00000000000E+00 -0.93682893060E+00  0.12500351054E+03  0.12500000000E+03 0.  0.
<mgrwt>
<rscale>  2 0.12500000E+03</rscale>
<asrwt>0</asrwt>
<pdfrwt beam="1">  1       21 0.95435909E-02 0.12500000E+03</pdfrwt>
<pdfrwt beam="2">  1       21 0.96877184E-02 0.12500000E+03</pdfrwt>
<totfact> 0.74043107E+06</totfact>
</mgrwt>
</event>
<event>
 3    0  0.1664317E+001  0.1250000E+03  0.7546771E-02  0.1235069E+00
         21   -1    0    0  502  501  0.00000000000E+00  0.00000000000E+00  0.20151518975E+03  0.20151518975E+03  0.00000000000E+00 0.  1.
         21   -1    0    0  501  502 -0.00000000000E+00 -0.00000000000E+00 -0.19384394819E+02  0.19384394819E+02  0.00000000000E+00 0.  1.
         25    1    1    2    0    0  0.00000000000E+00  0.00000000000E+00  0.18213079493E+03  0.22089958457E+03  0.12500000000E+03 0.  0.
<mgrwt>
<rscale>  2 0.12500000E+03</rscale>
<asrwt>0</asrwt>
<pdfrwt beam="1">  1       21 0.31002335E-01 0.12500000E+03</pdfrwt>
<pdfrwt beam="2">  1       21 0.29822147E-02 0.12500000E+03</pdfrwt>
<totfact> 0.62730705E+06</totfact>
</mgrwt>
</event>
<event>
 3    0  0.1618781E+001  0.1250000E+03  0.7546771E-02  0.1235069E+00
         21   -1    0    0  502  501  0.00000000000E+00  0.00000000000E+00  0.14367660760E+02  0.14367660760E+02  0.00000000000E+00 0.  1.
         21   -1    0    0  501  502 -0.00000000000E+00 -0.00000000000E+00 -0.27187793930E+03  0.27187793930E+03  0.00000000000E+00 0.  1.
         25    1    1    2    0    0  0.00000000000E+00  0.00000000000E+00 -0.25751027854E+03  0.28624560006E+03  0.12500000000E+03 0.  0.
<mgrwt>
<rscale>  2 0.12500000E+03</rscale>
<asrwt>0</asrwt>
<pdfrwt beam="1">  1       21 0.22104095E-02 0.12500000E+03</pdfrwt>
<pdfrwt beam="2">  1       21 0.41827373E-01 0.12500000E+03</pdfrwt>
<totfact> 0.56618947E+06</totfact>
</mgrwt>
</event>
<event>
 3    0  0.1368989E+001  0.1250000E+03  0.7546771E-02  0.1235069E+00
         21   -1    0    0  502  501  0.00000000000E+00  0.00000000000E+00  0.90438530527E+03  0.90438530527E+03  0.00000000000E+00 0. -1.
         21   -1    0    0  501  502 -0.00000000000E+00 -0.00000000000E+00 -0.43192320543E+01  0.43192320543E+01  0.00000000000E+00 0. -1.
         25    1    1    2    0    0  0.00000000000E+00  0.00000000000E+00  0.90006607322E+03  0.90870453733E+03  0.12500000000E+03 0.  0.
<mgrwt>
<rscale>  2 0.12500000E+03</rscale>
<asrwt>0</asrwt>
<pdfrwt beam="1">  1       21 0.13913605E+00 0.12500000E+03</pdfrwt>
<pdfrwt beam="2">  1       21 0.66449796E-03 0.12500000E+03</pdfrwt>
<totfact> 0.26050403E+06</totfact>
</mgrwt>
</event>
<event>
 3    0  0.1542139E+001  0.1250000E+03  0.7546771E-02  0.1235069E+00
         21   -1    0    0  502  501  0.00000000000E+00  0.00000000000E+00  0.39046841055E+03  0.39046841055E+03  0.00000000000E+00 0.  1.
         21   -1    0    0  501  502 -0.00000000000E+00 -0.00000000000E+00 -0.10004010297E+02  0.10004010297E+02  0.00000000000E+00 0.  1.
         25    1    1    2    0    0  0.00000000000E+00  0.00000000000E+00  0.38046440025E+03  0.40047242085E+03  0.12500000000E+03 0.  0.
<mgrwt>
<rscale>  2 0.12500000E+03</rscale>
<asrwt>0</asrwt>
<pdfrwt beam="1">  1       21 0.60072052E-01 0.12500000E+03</pdfrwt>
<pdfrwt beam="2">  1       21 0.15390788E-02 0.12500000E+03</pdfrwt>
<totfact> 0.48010036E+06</totfact>
</mgrwt>
</event>
<event>
 3    0  0.1368989E+001  0.1250000E+03  0.7546771E-02  0.1235069E+00
         21   -1    0    0  502  501  0.00000000000E+00  0.00000000000E+00  0.45367229714E+01  0.45367229714E+01  0.00000000000E+00 0.  1.
         21   -1    0    0  501  502 -0.00000000000E+00 -0.00000000000E+00 -0.86102899044E+03  0.86102899044E+03  0.00000000000E+00 0.  1.
         25    1    1    2    0    0  0.00000000000E+00  0.00000000000E+00 -0.85649226747E+03  0.86556571341E+03  0.12500000000E+03 0.  0.
<mgrwt>
<rscale>  2 0.12500000E+03</rscale>
<asrwt>0</asrwt>
<pdfrwt beam="1">  1       21 0.69795820E-03 0.12500000E+03</pdfrwt>
<pdfrwt beam="2">  1       21 0.13246584E+00 0.12500000E+03</pdfrwt>
<totfact> 0.27302066E+06</totfact>
</mgrwt>
</event>
<event>
 3    0  0.1380319E+001  0.1250000E+03  0.7546771E-02  0.1235069E+00
         21   -1    0    0  502  501  0.00000000000E+00  0.00000000000E+00  0.74786882907E+03  0.74786882907E+03  0.00000000000E+00 0.  1.
         21   -1    0    0  501  502 -0.00000000000E+00 -0.00000000000E+00 -0.52231753058E+01  0.52231753058E+01  0.00000000000E+00 0.  1.
         25    1    1    2    0    0  0.00000000000E+00  0.00000000000E+00  0.74264565377E+03  0.75309200438E+03  0.12500000000E+03 0.  0.
<mgrwt>
<rscale>  2 0.12500000E+03</rscale>
<asrwt>0</asrwt>
<pdfrwt beam="1">  1       21 0.11505666E+00 0.12500000E+03</pdfrwt>
<pdfrwt beam="2">  1       21 0.80356602E-03 0.12500000E+03</pdfrwt>
<totfact> 0.30960426E+06</totfact>
</mgrwt>
</event>
<event>
 3    0  0.1664658E+001  0.1250000E+03  0.7546771E-02  0.1235069E+00
         21   -1    0    0  502  501  0.00000000000E+00  0.00000000000E+00  0.15828981840E+03  0.15828981840E+03  0.00000000000E+00 0. -1.
         21   -1    0    0  501  502 -0.00000000000E+00 -0.00000000000E+00 -0.24677834869E+02  0.24677834869E+02  0.00000000000E+00 0. -1.
         25    1    1    2    0    0  0.00000000000E+00  0.00000000000E+00  0.13361198353E+03  0.18296765327E+03  0.12500000000E+03 0.  0.
<mgrwt>
<rscale>  2 0.12500000E+03</rscale>
<asrwt>0</asrwt>
<pdfrwt beam="1">  1       21 0.24352279E-01 0.12500000E+03</pdfrwt>
<pdfrwt beam="2">  1       21 0.37965901E-02 0.12500000E+03</pdfrwt>
<totfact> 0.66812717E+06</totfact>
</mgrwt>
</event>
<event>
 3    0  0.1593565E+001  0.1250000E+03  0.7546771E-02  0.1235069E+00
         21   -1    0    0  502  501  0.00000000000E+00  0.00000000000E+00  0.14318007396E+02  0.14318007396E+02  0.00000000000E+00 0. -1.
         21   -1    0    0  501  502 -0.00000000000E+00 -0.00000000000E+00 -0.27282078379E+03  0.27282078379E+03  0.00000000000E+00 0. -1.
         25    1    1    2    0    0  0.00000000000E+00  0.00000000000E+00 -0.25850277639E+03  0.28713879118E+03  0.12500000000E+03 0.  0.
<mgrwt>
<rscale>  2 0.12500000E+03</rscale>
<asrwt>0</asrwt>
<pdfrwt beam="1">  1       21 0.22027704E-02 0.12500000E+03</pdfrwt>
<pdfrwt beam="2">  1       21 0.41972428E-01 0.12500000E+03</pdfrwt>
<totfact> 0.56542218E+06</totfact>
</mgrwt>
</event>
<event>
 3    0  0.1727908E+001  0.1250000E+03  0.7546771E-02  0.1235069E+00
         21   -1    0    0  502  501  0.00000000000E+00  0.00000000000E+00  0.40630246290E+02  0.40630246290E+02  0.00000000000E+00 0.  1.
         21   -1    0    0  501  502 -0.00000000000E+00 -0.00000000000E+00 -0.96141430502E+02  0.96141430502E+02  0.00000000000E+00 0.  1.
         25    1    1    2    0    0  0.00000000000E+00  0.00000000000E+00 -0.55511184212E+02  0.13677167679E+03  0.12500000000E+03 0.  0.
<mgrwt>
<rscale>  2 0.12500000E+03</rscale>
<asrwt>0</asrwt>
<pdfrwt beam="1">  1       21 0.62508072E-02 0.12500000E+03</pdfrwt>
<pdfrwt beam="2">  1       21 0.14790989E-01 0.12500000E+03</pdfrwt>
<totfact> 0.72462730E+06</totfact>
</mgrwt>
</event>
<event>
 3    0  0.1727694E+001  0.1250000E+03  0.7546771E-02  0.1235069E+00
         21   -1    0    0  502  501  0.00000000000E+00  0.00000000000E+00  0.44684277351E+02  0.44684277351E+02  0.00000000000E+00 0.  1.
         21   -1    0    0  501  502 -0.00000000000E+00 -0.00000000000E+00 -0.87418891646E+02  0.87418891646E+02  0.00000000000E+00 0.  1.
         25    1    1    2    0    0  0.00000000000E+00  0.00000000000E+00 -0.42734614296E+02  0.13210316900E+03  0.12500000000E+03 0.  0.
<mgrwt>
<rscale>  2 0.12500000E+03</rscale>
<asrwt>0</asrwt>
<pdfrwt beam="1">  1       21 0.68745044E-02 0.12500000E+03</pdfrwt>
<pdfrwt beam="2">  1       21 0.13449060E-01 0.12500000E+03</pdfrwt>
<totfact> 0.73082394E+06</totfact>
</mgrwt>
</event>
<event>
 3    0  0.1368989E+001  0.1250000E+03  0.7546771E-02  0.1235069E+00
         21   -1    0    0  502  501  0.00000000000E+00  0.00000000000E+00  0.12701307162E+04  0.12701307162E+04  0.00000000000E+00 0.  1.
         21   -1    0    0  501  502 -0.00000000000E+00 -0.00000000000E+00 -0.30754708551E+01  0.30754708551E+01  0.00000000000E+00 0.  1.
         25    1    1    2    0    0  0.00000000000E+00  0.00000000000E+00  0.12670552454E+04  0.12732061871E+04  0.12500000000E+03 0.  0.
<mgrwt>
<rscale>  2 0.12500000E+03</rscale>
<asrwt>0</asrwt>
<pdfrwt beam="1">  1       21 0.19540431E+00 0.12500000E+03</pdfrwt>
<pdfrwt beam="2">  1       21 0.47315038E-03 0.12500000E+03</pdfrwt>
<totfact> 0.17740450E+06</totfact>
</mgrwt>
</event>
<event>
 3    0  0.1695326E+001  0.1250000E+03  0.7546771E-02  0.1235069E+00
         21   -1    0    0  502  501  0.00000000000E+00  0.00000000000E+00  0.37806603844E+02  0.37806603844E+02  0.00000000000E+00 0. -1.
         21   -1    0    0  501  502 -0.00000000000E+00 -0.00000000000E+00 -0.10332189625E+03  0.10332189625E+03  0.00000000000E+00 0. -1.
         25    1    1    2    0    0  0.00000000000E+00  0.00000000000E+00 -0.65515292408E+02  0.14112850010E+03  0.12500000000E+03 0.  0.
<mgrwt>
<rscale>  2 0.12500000E+03</rscale>
<asrwt>0</asrwt>
<pdfrwt beam="1">  1       21 0.58164007E-02 0.12500000E+03</pdfrwt>
<pdfrwt beam="2">  1       21 0.15895676E-01 0.12500000E+03</pdfrwt>
<totfact> 0.71892326E+06</totfact>
</mgrwt>
</event>
<event>
 3    0  0.1542499E+001  0.1250000E+03  0.7546771E-02  0.1235069E+00
         21   -1    0    0  502  501  0.00000000000E+00  0.00000000000E+00  0.95040612850E+01  0.95040612850E+01  0.00000000000E+00 0.  1.
         21   -1    0    0  501  502 -0.00000000000E+00 -0.00000000000E+00 -0.41100850288E+03  0.41100850288E+03  0.00000000000E+00 0.  1.
         25    1    1    2    0    0  0.00000000000E+00  0.00000000000E+00 -0.40150444159E+03  0.42051256416E+03  0.12500000000E+03 0.  0.
<mgrwt>
<rscale>  2 0.12500000E+03</rscale>
<asrwt>0</asrwt>
<pdfrwt beam="1">  1       21 0.14621632E-02 0.12500000E+03</pdfrwt>
<pdfrwt beam="2">  1       21 0.63232083E-01 0.12500000E+03</pdfrwt>
<totfact> 0.46709883E+06</totfact>
</mgrwt>
</event>
<event>
 3    0  0.1599314E+001  0.1250000E+03  0.7546771E-02  0.1235069E+00
         21   -1    0    0  502  501  0.00000000000E+00  0.00000000000E+00  0.28003305405E+03  0.28003305405E+03  0.00000000000E+00 0.  1.
         21   -1    0    0  501  502 -0.00000000000E+00 -0.00000000000E+00 -0.13949246146E+02  0.13949246146E+02  0.00000000000E+00 0.  1.
         25    1    1    2    0    0  0.00000000000E+00  0.00000000000E+00  0.26608380791E+03  0.29398230020E+03  0.12500000000E+03 0.  0.
<mgrwt>
<rscale>  2 0.12500000E+03</rscale>
<asrwt>0</asrwt>
<pdfrwt beam="1">  1       21 0.43082004E-01 0.12500000E+03</pdfrwt>
<pdfrwt beam="2">  1       21 0.21460381E-02 0.12500000E+03</pdfrwt>
<totfact> 0.55960007E+06</totfact>
</mgrwt>
</event>
<event>
 3    0  0.1714159E+001  0.1250000E+03  0.7546771E-02  0.1235069E+00
         21   -1    0    0  502  501  0.00000000000E+00  0.00000000000E+00  0.33741780352E+02  0.33741780352E+02  0.00000000000E+00 0.  1.
         21   -1    0    0  501  502 -0.00000000000E+00 -0.00000000000E+00 -0.11576893570E+03  0.11576893570E+03  0.00000000000E+00 0.  1.
         25    1    1    2    0    0  0.00000000000E+00  0.00000000000E+00 -0.82027155348E+02  0.14951071605E+03  0.12500000000E+03 0.  0.
<mgrwt>
<rscale>  2 0.12500000E+03</rscale>
<asrwt>0</asrwt>
<pdfrwt beam="1">  1       21 0.51910430E-02 0.12500000E+03</pdfrwt>
<pdfrwt beam="2">  1       21 0.17810606E-01 0.12500000E+03</pdfrwt>
<totfact> 0.70820718E+06</totfact>
</mgrwt>
</event>
<event>
 3    0  0.1474481E+001  0.1250000E+03  0.7546771E-02  0.1235069E+00
         21   -1    0    0  502  501  0.00000000000E+00  0.00000000000E+00  0.48337166491E+03  0.48337166491E+03  0.00000000000E+00 0. -1.
         21   -1    0    0  501  502 -0.00000000000E+00 -0.00000000000E+00 -0.80812556540E+01  0.80812556540E+01  0.00000000000E+00 0. -1.
         25    1    1    2    0    0  0.00000000000E+00  0.00000000000E+00  0.47529040925E+03  0.49145292056E+03  0.12500000000E+03 0.  0.
<mgrwt>
<rscale>  2 0.12500000E+03</rscale>
<asrwt>0</asrwt>
<pdfrwt beam="1">  1       21 0.74364849E-01 0.12500000E+03</pdfrwt>
<pdfrwt beam="2">  1       21 0.12432705E-02 0.12500000E+03</pdfrwt>
<totfact> 0.42511431E+06</totfact>
</mgrwt>
</event>
<event>
 3    0  0.1713580E+001  0.1250000E+03  0.7546771E-02  0.1235069E+00
         21   -1    0    0  502  501  0.00000000000E+00  0.00000000000E+00  0.13882759373E+03  0.13882759373E+03  0.00000000000E+00 0.  1.
         21   -1    0    0  501  502 -0.00000000000E+00 -0.00000000000E+00 -0.28137417750E+02  0.28137417750E+02  0.00000000000E+00 0.  1.
         25    1    1    2    0    0  0.00000000000E+00  0.00000000000E+00  0.11069017598E+03  0.16696501148E+03  0.12500000000E+03 0.  0.
<mgrwt>
<rscale>  2 0.12500000E+03</rscale>
<asrwt>0</asrwt>
<pdfrwt beam="1">  1       21 0.21358091E-01 0.12500000E+03</pdfrwt>
<pdfrwt beam="2">  1       21 0.43288336E-02 0.12500000E+03</pdfrwt>
<totfact> 0.68678303E+06</totfact>
</mgrwt>
</event>
<event>
 3    0  0.1603033E+001  0.1250000E+03  0.7546771E-02  0.1235069E+00
         21   -1    0    0  502  501  0.00000000000E+00  0.00000000000E+00  0.31168287851E+03  0.31168287851E+03  0.00000000000E+00 0.  1.
         21   -1    0    0  501  502 -0.00000000000E+00 -0.00000000000E+00 -0.12532770548E+02  0.12532770548E+02  0.00000000000E+00 0.  1.
         25    1    1    2    0    0  0.00000000000E+00  0.00000000000E+00  0.29915010796E+03  0.32421564905E+03  0.12500000000E+03 0.  0.
<mgrwt>
<rscale>  2 0.12500000E+03</rscale>
<asrwt>0</asrwt>
<pdfrwt beam="1">  1       21 0.47951206E-01 0.12500000E+03</pdfrwt>
<pdfrwt beam="2">  1       21 0.19281188E-02 0.12500000E+03</pdfrwt>
<totfact> 0.53500958E+06</totfact>
</mgrwt>
</event>
<event>
 3    0  0.1662829E+001  0.1250000E+03  0.7546771E-02  0.1235069E+00
         21   -1    0    0  502  501  0.00000000000E+00  0.00000000000E+00  0.23074520496E+02  0.23074520496E+02  0.00000000000E+00 0. -1.
         21   -1    0    0  501  502 -0.00000000000E+00 -0.00000000000E+00 -0.16928845827E+03  0.16928845827E+03  0.00000000000E+00 0. -1.
         25    1    1    2    0    0  0.00000000000E+00  0.00000000000E+00 -0.14621393777E+03  0.19236297876E+03  0.12500000000E+03 0.  0.
<mgrwt>
<rscale>  2 0.12500000E+03</rscale>
<asrwt>0</asrwt>
<pdfrwt beam="1">  1       21 0.35499265E-02 0.12500000E+03</pdfrwt>
<pdfrwt beam="2">  1       21 0.26044376E-01 0.12500000E+03</pdfrwt>
<totfact> 0.65760800E+06</totfact>
</mgrwt>
</event>
<event>
 3    0  0.1368989E+001  0.1250000E+03  0.7546771E-02  0.1235069E+00
         21   -1    0    0  502  501  0.00000000000E+00  0.00000000000E+00  0.13117604419E+04  0.13117604419E+04  0.00000000000E+00 0. -1.
         21   -1    0    0  501  502 -0.00000000000E+00 -0.00000000000E+00 -0.29778684243E+01  0.29778684243E+01  0.00000000000E+00 0. -1.
         25    1    1    2    0    0  0.00000000000E+00  0.00000000000E+00  0.13087825734E+04  0.13147383103E+04  0.12500000000E+03 0.  0.
<mgrwt>
<rscale>  2 0.12500000E+03</rscale>
<asrwt>0</asrwt>
<pdfrwt beam="1">  1       21 0.20180884E+00 0.12500000E+03</pdfrwt>
<pdfrwt beam="2">  1       21 0.45813465E-03 0.12500000E+03</pdfrwt>
<totfact> 0.16989821E+06</totfact>
</mgrwt>
</event>
<event>
 3    0  0.1399559E+001  0.1250000E+03  0.7546771E-02  0.1235069E+00
         21   -1    0    0  502  501  0.00000000000E+00  0.00000000000E+00  0.66085076889E+01  0.66085076889E+01  0.00000000000E+00 0. -1.
         21   -1    0    0  501  502 -0.00000000000E+00 -0.00000000000E+00 -0.59109411442E+03  0.59109411442E+03  0.00000000000E+00 0. -1.
         25    1    1    2    0    0  0.00000000000E+00  0.00000000000E+00 -0.58448560673E+03  0.59770262211E+03  0.12500000000E+03 0.  0.
<mgrwt>
<rscale>  2 0.12500000E+03</rscale>
<asrwt>0</asrwt>
<pdfrwt beam="1">  1       21 0.10166936E-02 0.12500000E+03</pdfrwt>
<pdfrwt beam="2">  1       21 0.90937549E-01 0.12500000E+03</pdfrwt>
<totfact> 0.37196735E+06</totfact>
</mgrwt>
</event>
<event>
 3    0  0.1468244E+001  0.1250000E+03  0.7546771E-02  0.1235069E+00
         21   -1    0    0  502  501  0.00000000000E+00  0.00000000000E+00  0.49800244834E+03  0.49800244834E+03  0.00000000000E+00 0.  1.
         21   -1    0    0  501  502 -0.00000000000E+00 -0.00000000000E+00 -0.78438369389E+01  0.78438369389E+01  0.00000000000E+00 0.  1.
         25    1    1    2    0    0  0.00000000000E+00  0.00000000000E+00  0.49015861140E+03  0.50584628528E+03  0.12500000000E+03 0.  0.
<mgrwt>
<rscale>  2 0.12500000E+03</rscale>
<asrwt>0</asrwt>
<pdfrwt beam="1">  1       21 0.76615737E-01 0.12500000E+03</pdfrwt>
<pdfrwt beam="2">  1       21 0.12067445E-02 0.12500000E+03</pdfrwt>
<totfact> 0.41728786E+06</totfact>
</mgrwt>
</event>
<event>
 3    0  0.1368989E+001  0.1250000E+03  0.7546771E-02  0.1235069E+00
         21   -1    0    0  502  501  0.00000000000E+00  0.00000000000E+00  0.13548452891E+04  0.13548452891E+04  0.00000000000E+00 0.  1.
         21   -1    0    0  501  502 -0.00000000000E+00 -0.00000000000E+00 -0.28831705224E+01  0.28831705224E+01  0.00000000000E+00 0.  1.
         25    1    1    2    0    0  0.00000000000E+00  0.00000000000E+00  0.13519621186E+04  0.13577284596E+04  0.12500000000E+03 0.  0.
<mgrwt>
<rscale>  2 0.12500000E+03</rscale>
<asrwt>0</asrwt>
<pdfrwt beam="1">  1       21 0.20843723E+00 0.12500000E+03</pdfrwt>
<pdfrwt beam="2">  1       21 0.44356578E-03 0.12500000E+03</pdfrwt>
<totfact> 0.16246668E+06</totfact>
</mgrwt>
</event>
<event>
 3    0  0.1368989E+001  0.1250000E+03  0.7546771E-02  0.1235069E+00
         21   -1    0    0  502  501  0.00000000000E+00  0.00000000000E+00  0.20063318546E+04  0.20063318546E+04  0.00000000000E+00 0. -1.
         21   -1    0    0  501  502 -0.00000000000E+00 -0.00000000000E+00 -0.19469610628E+01  0.19469610628E+01  0.00000000000E+00 0. -1.
         25    1    1    2    0    0  0.00000000000E+00  0.00000000000E+00  0.20043848935E+04  0.20082788157E+04  0.12500000000E+03 0.  0.
<mgrwt>
<rscale>  2 0.12500000E+03</rscale>
<asrwt>0</asrwt>
<pdfrwt beam="1">  1       21 0.30866478E+00 0.12500000E+03</pdfrwt>
<pdfrwt beam="2">  1       21 0.29953408E-03 0.12500000E+03</pdfrwt>
<totfact> 0.78675840E+05</totfact>
</mgrwt>
</event>
<event>
 3    0  0.1711997E+001  0.1250000E+03  0.7546771E-02  0.1235069E+00
         21   -1    0    0  502  501  0.00000000000E+00  0.00000000000E+00  0.32209745130E+02  0.32209745130E+02  0.00000000000E+00 0.  1.
         21   -1    0    0  501  502 -0.00000000000E+00 -0.00000000000E+00 -0.12127540855E+03  0.12127540855E+03  0.00000000000E+00 0.  1.
         25    1    1    2    0    0  0.00000000000E+00  0.00000000000E+00 -0.89065663422E+02  0.15348515368E+03  0.12500000000E+03 0.  0.
<mgrwt>
<rscale>  2 0.12500000E+03</rscale>
<asrwt>0</asrwt>
<pdfrwt beam="1">  1       21 0.49553453E-02 0.12500000E+03</pdfrwt>
<pdfrwt beam="2">  1       21 0.18657756E-01 0.12500000E+03</pdfrwt>
<totfact> 0.70324098E+06</totfact>
</mgrwt>
</event>
<event>
 3    0  0.1525315E+001  0.1250000E+03  0.7546771E-02  0.1235069E+00
         21   -1    0    0  502  501  0.00000000000E+00  0.00000000000E+00  0.44714678986E+03  0.44714678986E+03  0.00000000000E+00 0.  1.
         21   -1    0    0  501  502 -0.00000000000E+00 -0.00000000000E+00 -0.87359455297E+01  0.87359455297E+01  0.00000000000E+00 0.  1.
         25    1    1    2    0    0  0.00000000000E+00  0.00000000000E+00  0.43841084433E+03  0.45588273539E+03  0.12500000000E+03 0.  0.
<mgrwt>
<rscale>  2 0.12500000E+03</rscale>
<asrwt>0</asrwt>
<pdfrwt beam="1">  1       21 0.68791796E-01 0.12500000E+03</pdfrwt>
<pdfrwt beam="2">  1       21 0.13439920E-02 0.12500000E+03</pdfrwt>
<totfact> 0.44542346E+06</totfact>
</mgrwt>
</event>
<event>
 3    0  0.1707428E+001  0.1250000E+03  0.7546771E-02  0.1235069E+00
         21   -1    0    0  502  501  0.00000000000E+00  0.00000000000E+00  0.14141450132E+03  0.14141450132E+03  0.00000000000E+00 0.  1.
         21   -1    0    0  501  502 -0.00000000000E+00 -0.00000000000E+00 -0.27622697557E+02  0.27622697557E+02  0.00000000000E+00 0.  1.
         25    1    1    2    0    0  0.00000000000E+00  0.00000000000E+00  0.11379180376E+03  0.16903719887E+03  0.12500000000E+03 0.  0.
<mgrwt>
<rscale>  2 0.12500000E+03</rscale>
<asrwt>0</asrwt>
<pdfrwt beam="1">  1       21 0.21756077E-01 0.12500000E+03</pdfrwt>
<pdfrwt beam="2">  1       21 0.42496459E-02 0.12500000E+03</pdfrwt>
<totfact> 0.68431761E+06</totfact>
</mgrwt>
</event>
<event>
 3    0  0.1582900E+001  0.1250000E+03  0.7546771E-02  0.1235069E+00
         21   -1    0    0  502  501  0.00000000000E+00  0.00000000000E+00  0.32068810295E+03  0.32068810295E+03  0.00000000000E+00 0.  1.
         21   -1    0    0  501  502 -0.00000000000E+00 -0.00000000000E+00 -0.12180838528E+02  0.12180838528E+02  0.00000000000E+00 0.  1.
         25    1    1    2    0    0  0.00000000000E+00  0.00000000000E+00  0.30850726442E+03  0.33286894148E+03  0.12500000000E+03 0.  0.
<mgrwt>
<rscale>  2 0.12500000E+03</rscale>
<asrwt>0</asrwt>
<pdfrwt beam="1">  1       21 0.49336625E-01 0.12500000E+03</pdfrwt>
<pdfrwt beam="2">  1       21 0.18739754E-02 0.12500000E+03</pdfrwt>
<totfact> 0.52829048E+06</totfact>
</mgrwt>
</event>
<event>
 3    0  0.1664168E+001  0.1250000E+03  0.7546771E-02  0.1235069E+00
         21   -1    0    0  502  501  0.00000000000E+00  0.00000000000E+00  0.15849514503E+03  0.15849514503E+03  0.00000000000E+00 0. -1.
         21   -1    0    0  501  502 -0.00000000000E+00 -0.00000000000E+00 -0.24645865331E+02  0.24645865331E+02  0.00000000000E+00 0. -1.
         25    1    1    2    0    0  0.00000000000E+00  0.00000000000E+00  0.13384927970E+03  0.18314101036E+03  0.12500000000E+03 0.  0.
<mgrwt>
<rscale>  2 0.12500000E+03</rscale>
<asrwt>0</asrwt>
<pdfrwt beam="1">  1       21 0.24383868E-01 0.12500000E+03</pdfrwt>
<pdfrwt beam="2">  1       21 0.37916717E-02 0.12500000E+03</pdfrwt>
<totfact> 0.66793024E+06</totfact>
</mgrwt>
</event>
<event>
 3    0  0.1719537E+001  0.1250000E+03  0.7546771E-02  0.1235069E+00
         21   -1    0    0  502  501  0.00000000000E+00  0.00000000000E+00  0.37754705607E+02  0.37754705607E+02  0.00000000000E+00 0.  1.
         21   -1    0    0  501  502 -0.00000000000E+00 -0.00000000000E+00 -0.10346392422E+03  0.10346392422E+03  0.00000000000E+00 0.  1.
         25    1    1    2    0    0  0.00000000000E+00  0.00000000000E+00 -0.65709218617E+02  0.14121862983E+03  0.12500000000E+03 0.  0.
<mgrwt>
<rscale>  2 0.12500000E+03</rscale>
<asrwt>0</asrwt>
<pdfrwt beam="1">  1       21 0.58084162E-02 0.12500000E+03</pdfrwt>
<pdfrwt beam="2">  1       21 0.15917527E-01 0.12500000E+03</pdfrwt>
<totfact> 0.71880616E+06</totfact>
</mgrwt>
</event>
<event>
 3    0  0.1719481E+001  0.1250000E+03  0.7546771E-02  0.1235069E+00
         21   -1    0    0  502  501  0.00000000000E+00  0.00000000000E+00  0.11353845320E+03  0.11353845320E+03  0.00000000000E+00 0.  1.
         21   -1    0    0  501  502 -0.00000000000E+00 -0.00000000000E+00 -0.34404643448E+02  0.34404643448E+02  0.00000000000E+00 0.  1.
         25    1    1    2    0    0  0.00000000000E+00  0.00000000000E+00  0.79133809754E+02  0.14794309665E+03  0.12500000000E+03 0.  0.
<mgrwt>
<rscale>  2 0.12500000E+03</rscale>
<asrwt>0</asrwt>
<pdfrwt beam="1">  1       21 0.17467454E-01 0.12500000E+03</pdfrwt>
<pdfrwt beam="2">  1       21 0.52930221E-02 0.12500000E+03</pdfrwt>
<totfact> 0.71018551E+06</totfact>
</mgrwt>
</event>
<event>
 3    0  0.1526760E+001  0.1250000E+03  0.7546771E-02  0.1235069E+00
         21   -1    0    0  502  501  0.00000000000E+00  0.00000000000E+00  0.37078369775E+03  0.37078369775E+03  0.00000000000E+00 0. -1.
         21   -1    0    0  501  502 -0.00000000000E+00 -0.00000000000E+00 -0.10535117978E+02  0.10535117978E+02  0.00000000000E+00 0. -1.
         25    1    1    2    0    0  0.00000000000E+00  0.00000000000E+00  0.36024857977E+03  0.38131881573E+03  0.12500000000E+03 0.  0.
<mgrwt>
<rscale>  2 0.12500000E+03</rscale>
<asrwt>0</asrwt>
<pdfrwt beam="1">  1       21 0.57043636E-01 0.12500000E+03</pdfrwt>
<pdfrwt beam="2">  1       21 0.16207877E-02 0.12500000E+03</pdfrwt>
<totfact> 0.49305415E+06</totfact>
</mgrwt>
</event>
<event>
 3    0  0.1715802E+001  0.1250000E+03  0.7546771E-02  0.1235069E+00
         21   -1    0    0  502  501  0.00000000000E+00  0.00000000000E+00  0.10846777230E+03  0.10846777230E+03  0.00000000000E+00 0.  1.
         21   -1    0    0  501  502 -0.00000000000E+00 -0.00000000000E+00 -0.36013001072E+02  0.36013001072E+02  0.00000000000E+00 0.  1.
         25    1    1    2    0    0  0.00000000000E+00  0.00000000000E+00  0.72454771224E+02  0.14448077337E+03  0.12500000000E+03 0.  0.
<mgrwt>
<rscale>  2 0.12500000E+03</rscale>
<asrwt>0</asrwt>
<pdfrwt beam="1">  1       21 0.16687349E-01 0.12500000E+03</pdfrwt>
<pdfrwt beam="2">  1       21 0.55404617E-02 0.12500000E+03</pdfrwt>
<totfact> 0.71459613E+06</totfact>
</mgrwt>
</event>
<event>
 3    0  0.1724203E+001  0.1250000E+03  0.7546771E-02  0.1235069E+00
         21   -1    0    0  502  501  0.00000000000E+00  0.00000000000E+00  0.98508338500E+02  0.98508338500E+02  0.00000000000E+00 0.  1.
         21   -1    0    0  501  502 -0.00000000000E+00 -0.00000000000E+00 -0.39654003503E+02  0.39654003503E+02  0.00000000000E+00 0.  1.
         25    1    1    2    0    0  0.00000000000E+00  0.00000000000E+00  0.58854334997E+02  0.13816234200E+03  0.12500000000E+03 0.  0.
<mgrwt>
<rscale>  2 0.12500000E+03</rscale>
<asrwt>0</asrwt>
<pdfrwt beam="1">  1       21 0.15155129E-01 0.12500000E+03</pdfrwt>
<pdfrwt beam="2">  1       21 0.61006159E-02 0.12500000E+03</pdfrwt>
<totfact> 0.72280128E+06</totfact>
</mgrwt>
</event>
<event>
 3    0  0.1664371E+001  0.1250000E+03  0.7546771E-02  0.1235069E+00
         21   -1    0    0  502  501  0.00000000000E+00  0.00000000000E+00  0.18415628300E+03  0.18415628300E+03  0.00000000000E+00 0.  1.
         21   -1    0    0  501  502 -0.00000000000E+00 -0.00000000000E+00 -0.21211603190E+02  0.21211603190E+02  0.00000000000E+00 0.  1.
         25    1    1    2    0    0  0.00000000000E+00  0.00000000000E+00  0.16294467981E+03  0.20536788619E+03  0.12500000000E+03 0.  0.
<mgrwt>
<rscale>  2 0.12500000E+03</rscale>
<asrwt>0</asrwt>
<pdfrwt beam="1">  1       21 0.28331735E-01 0.12500000E+03</pdfrwt>
<pdfrwt beam="2">  1       21 0.32633237E-02 0.12500000E+03</pdfrwt>
<totfact> 0.64350207E+06</totfact>
</mgrwt>
</event>
<event>
 3    0  0.1690872E+001  0.1250000E+03  0.7546771E-02  0.1235069E+00
         21   -1    0    0  502  501  0.00000000000E+00  0.00000000000E+00  0.24831907474E+02  0.24831907474E+02  0.00000000000E+00 0.  1.
         21   -1    0    0  501  502 -0.00000000000E+00 -0.00000000000E+00 -0.15730768988E+03  0.15730768988E+03  0.00000000000E+00 0.  1.
         25    1    1    2    0    0  0.00000000000E+00  0.00000000000E+00 -0.13247578240E+03  0.18213959735E+03  0.12500000000E+03 0.  0.
<mgrwt>
<rscale>  2 0.12500000E+03</rscale>
<asrwt>0</asrwt>
<pdfrwt beam="1">  1       21 0.38202936E-02 0.12500000E+03</pdfrwt>
<pdfrwt beam="2">  1       21 0.24201182E-01 0.12500000E+03</pdfrwt>
<totfact> 0.66906933E+06</totfact>
</mgrwt>
</event>
<event>
 3    0  0.1395388E+001  0.1250000E+03  0.7546771E-02  0.1235069E+00
         21   -1    0    0  502  501  0.00000000000E+00  0.00000000000E+00  0.64512968615E+01  0.64512968615E+01  0.00000000000E+00 0.  1.
         21   -1    0    0  501  502 -0.00000000000E+00 -0.00000000000E+00 -0.60549841123E+03  0.60549841123E+03  0.00000000000E+00 0.  1.
         25    1    1    2    0    0  0.00000000000E+00  0.00000000000E+00 -0.59904711437E+03  0.61194970809E+03  0.12500000000E+03 0.  0.
<mgrwt>
<rscale>  2 0.12500000E+03</rscale>
<asrwt>0</asrwt>
<pdfrwt beam="1">  1       21 0.99250712E-03 0.12500000E+03</pdfrwt>
<pdfrwt beam="2">  1       21 0.93153610E-01 0.12500000E+03</pdfrwt>
<totfact> 0.36557734E+06</totfact>
</mgrwt>
</event>
<event>
 3    0  0.1620462E+001  0.1250000E+03  0.7546771E-02  0.1235069E+00
         21   -1    0    0  502  501  0.00000000000E+00  0.00000000000E+00  0.21863057597E+03  0.21863057597E+03  0.00000000000E+00 0. -1.
         21   -1    0    0  501  502 -0.00000000000E+00 -0.00000000000E+00 -0.17866897083E+02  0.17866897083E+02  0.00000000000E+00 0. -1.
         25    1    1    2    0    0  0.00000000000E+00  0.00000000000E+00  0.20076367889E+03  0.23649747305E+03  0.12500000000E+03 0.  0.
<mgrwt>
<rscale>  2 0.12500000E+03</rscale>
<asrwt>0</asrwt>
<pdfrwt beam="1">  1       21 0.33635471E-01 0.12500000E+03</pdfrwt>
<pdfrwt beam="2">  1       21 0.27487536E-02 0.12500000E+03</pdfrwt>
<totfact> 0.61173251E+06</totfact>
</mgrwt>
</event>
<event>
 3    0  0.1685245E+001  0.1250000E+03  0.7546771E-02  0.1235069E+00
         21   -1    0    0  502  501  0.00000000000E+00  0.00000000000E+00  0.12248079825E+03  0.12248079825E+03  0.00000000000E+00 0. -1.
         21   -1    0    0  501  502 -0.00000000000E+00 -0.00000000000E+00 -0.31892754259E+02  0.31892754259E+02  0.00000000000E+00 0. -1.
         25    1    1    2    0    0  0.00000000000E+00  0.00000000000E+00  0.90588043988E+02  0.15437355251E+03  0.12500000000E+03 0.  0.
<mgrwt>
<rscale>  2 0.12500000E+03</rscale>
<asrwt>0</asrwt>
<pdfrwt beam="1">  1       21 0.18843200E-01 0.12500000E+03</pdfrwt>
<pdfrwt beam="2">  1       21 0.49065776E-02 0.12500000E+03</pdfrwt>
<totfact> 0.70213602E+06</totfact>
</mgrwt>
</event>
<event>
 3    0  0.1584308E+001  0.1250000E+03  0.7546771E-02  0.1235069E+00
         21   -1    0    0  502  501  0.00000000000E+00  0.00000000000E+00  0.30169901804E+03  0.30169901804E+03  0.00000000000E+00 0.  1.
         21   -1    0    0  501  502 -0.00000000000E+00 -0.00000000000E+00 -0.12947506509E+02  0.12947506509E+02  0.00000000000E+00 0.  1.
         25    1    1    2    0    0  0.00000000000E+00  0.00000000000E+00  0.28875151153E+03  0.31464652455E+03  0.12500000000E+03 0.  0.
<mgrwt>
<rscale>  2 0.12500000E+03</rscale>
<asrwt>0</asrwt>
<pdfrwt beam="1">  1       21 0.46415228E-01 0.12500000E+03</pdfrwt>
<pdfrwt beam="2">  1       21 0.19919243E-02 0.12500000E+03</pdfrwt>
<totfact> 0.54260326E+06</totfact>
</mgrwt>
</event>
<event>
 3    0  0.1680312E+001  0.1250000E+03  0.7546771E-02  0.1235069E+00
         21   -1    0    0  502  501  0.00000000000E+00  0.00000000000E+00  0.18517028173E+03  0.18517028173E+03  0.00000000000E+00 0.  1.
         21   -1    0    0  501  502 -0.00000000000E+00 -0.00000000000E+00 -0.21095447733E+02  0.21095447733E+02  0.00000000000E+00 0.  1.
         25    1    1    2    0    0  0.00000000000E+00  0.00000000000E+00  0.16407483400E+03  0.20626572946E+03  0.12500000000E+03 0.  0.
<mgrwt>
<rscale>  2 0.12500000E+03</rscale>
<asrwt>0</asrwt>
<pdfrwt beam="1">  1       21 0.28487735E-01 0.12500000E+03</pdfrwt>
<pdfrwt beam="2">  1       21 0.32454536E-02 0.12500000E+03</pdfrwt>
<totfact> 0.64254578E+06</totfact>
</mgrwt>
</event>
<event>
 3    0  0.1475858E+001  0.1250000E+03  0.7546771E-02  0.1235069E+00
         21   -1    0    0  502  501  0.00000000000E+00  0.00000000000E+00  0.81230265778E+01  0.81230265778E+01  0.00000000000E+00 0. -1.
         21   -1    0    0  501  502 -0.00000000000E+00 -0.00000000000E+00 -0.48088602968E+03  0.48088602968E+03  0.00000000000E+00 0. -1.
         25    1    1    2    0    0  0.00000000000E+00  0.00000000000E+00 -0.47276300311E+03  0.48900905626E+03  0.12500000000E+03 0.  0.
<mgrwt>
<rscale>  2 0.12500000E+03</rscale>
<asrwt>0</asrwt>
<pdfrwt beam="1">  1       21 0.12496965E-02 0.12500000E+03</pdfrwt>
<pdfrwt beam="2">  1       21 0.73982458E-01 0.12500000E+03</pdfrwt>
<totfact> 0.42646478E+06</totfact>
</mgrwt>
</event>
<event>
 3    0  0.1581849E+001  0.1250000E+03  0.7546771E-02  0.1235069E+00
         21   -1    0    0  502  501  0.00000000000E+00  0.00000000000E+00  0.29268397859E+03  0.29268397859E+03  0.00000000000E+00 0. -1.
         21   -1    0    0  501  502 -0.00000000000E+00 -0.00000000000E+00 -0.13346306207E+02  0.13346306207E+02  0.00000000000E+00 0. -1.
         25    1    1    2    0    0  0.00000000000E+00  0.00000000000E+00  0.27933767238E+03  0.30603028479E+03  0.12500000000E+03 0.  0.
<mgrwt>
<rscale>  2 0.12500000E+03</rscale>
<asrwt>0</asrwt>
<pdfrwt beam="1">  1       21 0.45028300E-01 0.12500000E+03</pdfrwt>
<pdfrwt beam="2">  1       21 0.20532781E-02 0.12500000E+03</pdfrwt>
<totfact> 0.54958729E+06</totfact>
</mgrwt>
</event>
<event>
 3    0  0.1437536E+001  0.1250000E+03  0.7546771E-02  0.1235069E+00
         21   -1    0    0  502  501  0.00000000000E+00  0.00000000000E+00  0.76144804496E+01  0.76144804496E+01  0.00000000000E+00 0.  1.
         21   -1    0    0  501  502 -0.00000000000E+00 -0.00000000000E+00 -0.51300282742E+03  0.51300282742E+03  0.00000000000E+00 0.  1.
         25    1    1    2    0    0  0.00000000000E+00  0.00000000000E+00 -0.50538834697E+03  0.52061730787E+03  0.12500000000E+03 0.  0.
<mgrwt>
<rscale>  2 0.12500000E+03</rscale>
<asrwt>0</asrwt>
<pdfrwt beam="1">  1       21 0.11714586E-02 0.12500000E+03</pdfrwt>
<pdfrwt beam="2">  1       21 0.78923508E-01 0.12500000E+03</pdfrwt>
<totfact> 0.40947576E+06</totfact>
</mgrwt>
</event>
<event>
 3    0  0.1676338E+001  0.1250000E+03  0.7546771E-02  0.1235069E+00
         21   -1    0    0  502  501  0.00000000000E+00  0.00000000000E+00  0.16339748722E+03  0.16339748722E+03  0.00000000000E+00 0.  1.
         21   -1    0    0  501  502 -0.00000000000E+00 -0.00000000000E+00 -0.23906426386E+02  0.23906426386E+02  0.00000000000E+00 0.  1.
         25    1    1    2    0    0  0.00000000000E+00  0.00000000000E+00  0.13949106084E+03  0.18730391361E+03  0.12500000000E+03 0.  0.
<mgrwt>
<rscale>  2 0.12500000E+03</rscale>
<asrwt>0</asrwt>
<pdfrwt beam="1">  1       21 0.25138074E-01 0.12500000E+03</pdfrwt>
<pdfrwt beam="2">  1       21 0.36779119E-02 0.12500000E+03</pdfrwt>
<totfact> 0.66323370E+06</totfact>
</mgrwt>
</event>
<event>
 3    0  0.1643904E+001  0.1250000E+03  0.7546771E-02  0.1235069E+00
         21   -1    0    0  502  501  0.00000000000E+00  0.00000000000E+00  0.20515681105E+02  0.20515681105E+02  0.00000000000E+00 0. -1.
         21   -1    0    0  501  502 -0.00000000000E+00 -0.00000000000E+00 -0.19040313505E+03  0.19040313505E+03  0.00000000000E+00 0. -1.
         25    1    1    2    0    0  0.00000000000E+00  0.00000000000E+00 -0.16988745394E+03  0.21091881615E+03  0.12500000000E+03 0.  0.
<mgrwt>
<rscale>  2 0.12500000E+03</rscale>
<asrwt>0</asrwt>
<pdfrwt beam="1">  1       21 0.31562587E-02 0.12500000E+03</pdfrwt>
<pdfrwt beam="2">  1       21 0.29292790E-01 0.12500000E+03</pdfrwt>
<totfact> 0.63762995E+06</totfact>
</mgrwt>
</event>
<event>
 3    0  0.1604386E+001  0.1250000E+03  0.7546771E-02  0.1235069E+00
         21   -1    0    0  502  501  0.00000000000E+00  0.00000000000E+00  0.26863713348E+03  0.26863713348E+03  0.00000000000E+00 0.  1.
         21   -1    0    0  501  502 -0.00000000000E+00 -0.00000000000E+00 -0.14540990478E+02  0.14540990478E+02  0.00000000000E+00 0.  1.
         25    1    1    2    0    0  0.00000000000E+00  0.00000000000E+00  0.25409614300E+03  0.28317812395E+03  0.12500000000E+03 0.  0.
<mgrwt>
<rscale>  2 0.12500000E+03</rscale>
<asrwt>0</asrwt>
<pdfrwt beam="1">  1       21 0.41328786E-01 0.12500000E+03</pdfrwt>
<pdfrwt beam="2">  1       21 0.22370757E-02 0.12500000E+03</pdfrwt>
<totfact> 0.56883769E+06</totfact>
</mgrwt>
</event>
<event>
 3    0  0.1678297E+001  0.1250000E+03  0.7546771E-02  0.1235069E+00
         21   -1    0    0  502  501  0.00000000000E+00  0.00000000000E+00  0.13431533684E+03  0.13431533684E+03  0.00000000000E+00 0. -1.
         21   -1    0    0  501  502 -0.00000000000E+00 -0.00000000000E+00 -0.29082680296E+02  0.29082680296E+02  0.00000000000E+00 0. -1.
         25    1    1    2    0    0  0.00000000000E+00  0.00000000000E+00  0.10523265654E+03  0.16339801713E+03  0.12500000000E+03 0.  0.
<mgrwt>
<rscale>  2 0.12500000E+03</rscale>
<asrwt>0</asrwt>
<pdfrwt beam="1">  1       21 0.20663898E-01 0.12500000E+03</pdfrwt>
<pdfrwt beam="2">  1       21 0.44742586E-02 0.12500000E+03</pdfrwt>
<totfact> 0.69106661E+06</totfact>
</mgrwt>
</event>
<event>
 3    0  0.1548905E+001  0.1250000E+03  0.7546771E-02  0.1235069E+00
         21   -1    0    0  502  501  0.00000000000E+00  0.00000000000E+00  0.95766939885E+01  0.95766939885E+01  0.00000000000E+00 0.  1.
         21   -1    0    0  501  502 -0.00000000000E+00 -0.00000000000E+00 -0.40789128322E+03  0.40789128322E+03  0.00000000000E+00 0.  1.
         25    1    1    2    0    0  0.00000000000E+00  0.00000000000E+00 -0.39831458923E+03  0.41746797721E+03  0.12500000000E+03 0.  0.
<mgrwt>
<rscale>  2 0.12500000E+03</rscale>
<asrwt>0</asrwt>
<pdfrwt beam="1">  1       21 0.14733377E-02 0.12500000E+03</pdfrwt>
<pdfrwt beam="2">  1       21 0.62752497E-01 0.12500000E+03</pdfrwt>
<totfact> 0.46903901E+06</totfact>
</mgrwt>
</event>
<event>
 3    0  0.1368989E+001  0.1250000E+03  0.7546771E-02  0.1235069E+00
         21   -1    0    0  502  501  0.00000000000E+00  0.00000000000E+00  0.44090114153E+01  0.44090114153E+01  0.00000000000E+00 0. -1.
         21   -1    0    0  501  502 -0.00000000000E+00 -0.00000000000E+00 -0.88596958185E+03  0.88596958185E+03  0.00000000000E+00 0. -1.
         25    1    1    2    0    0  0.00000000000E+00  0.00000000000E+00 -0.88156057044E+03  0.89037859327E+03  0.12500000000E+03 0.  0.
<mgrwt>
<rscale>  2 0.12500000E+03</rscale>
<asrwt>0</asrwt>
<pdfrwt beam="1">  1       21 0.67830956E-03 0.12500000E+03</pdfrwt>
<pdfrwt beam="2">  1       21 0.13630299E+00 0.12500000E+03</pdfrwt>
<totfact> 0.26576406E+06</totfact>
</mgrwt>
</event>
<event>
 3    0  0.1368989E+001  0.1250000E+03  0.7546771E-02  0.1235069E+00
         21   -1    0    0  502  501  0.00000000000E+00  0.00000000000E+00  0.79752404694E+03  0.79752404694E+03  0.00000000000E+00 0. -1.
         21   -1    0    0  501  502 -0.00000000000E+00 -0.00000000000E+00 -0.48979714342E+01  0.48979714342E+01  0.00000000000E+00 0. -1.
         25    1    1    2    0    0  0.00000000000E+00  0.00000000000E+00  0.79262607550E+03  0.80242201837E+03  0.12500000000E+03 0.  0.
<mgrwt>
<rscale>  2 0.12500000E+03</rscale>
<asrwt>0</asrwt>
<pdfrwt beam="1">  1       21 0.12269590E+00 0.12500000E+03</pdfrwt>
<pdfrwt beam="2">  1       21 0.75353470E-03 0.12500000E+03</pdfrwt>
<totfact> 0.29282745E+06</totfact>
</mgrwt>
</event>
<event>
 3    0  0.1717958E+001  0.1250000E+03  0.7546771E-02  0.1235069E+00
         21   -1    0    0  502  501  0.00000000000E+00  0.00000000000E+00  0.10741583027E+03  0.10741583027E+03  0.00000000000E+00 0.  1.
         21   -1    0    0  501  502 -0.00000000000E+00 -0.00000000000E+00 -0.36365682694E+02  0.36365682694E+02  0.00000000000E+00 0.  1.
         25    1    1    2    0    0  0.00000000000E+00  0.00000000000E+00  0.71050147578E+02  0.14378151297E+03  0.12500000000E+03 0.  0.
<mgrwt>
<rscale>  2 0.12500000E+03</rscale>
<asrwt>0</asrwt>
<pdfrwt beam="1">  1       21 0.16525512E-01 0.12500000E+03</pdfrwt>
<pdfrwt beam="2">  1       21 0.55947205E-02 0.12500000E+03</pdfrwt>
<totfact> 0.71549402E+06</totfact>
</mgrwt>
</event>
<event>
 3    0  0.1672172E+001  0.1250000E+03  0.7546771E-02  0.1235069E+00
         21   -1    0    0  502  501  0.00000000000E+00  0.00000000000E+00  0.14605852240E+03  0.14605852240E+03  0.00000000000E+00 0. -1.
         21   -1    0    0  501  502 -0.00000000000E+00 -0.00000000000E+00 -0.26744416799E+02  0.26744416799E+02  0.00000000000E+00 0. -1.
         25    1    1    2    0    0  0.00000000000E+00  0.00000000000E+00  0.11931410560E+03  0.17280293919E+03  0.12500000000E+03 0.  0.
<mgrwt>
<rscale>  2 0.12500000E+03</rscale>
<asrwt>0</asrwt>
<pdfrwt beam="1">  1       21 0.22470541E-01 0.12500000E+03</pdfrwt>
<pdfrwt beam="2">  1       21 0.41145258E-02 0.12500000E+03</pdfrwt>
<totfact> 0.67986907E+06</totfact>
</mgrwt>
</event>
<event>
 3    0  0.1696168E+001  0.1250000E+03  0.7546771E-02  0.1235069E+00
         21   -1    0    0  502  501  0.00000000000E+00  0.00000000000E+00  0.26122001904E+02  0.26122001904E+02  0.00000000000E+00 0.  1.
         21   -1    0    0  501  502 -0.00000000000E+00 -0.00000000000E+00 -0.14953869211E+03  0.14953869211E+03  0.00000000000E+00 0.  1.
         25    1    1    2    0    0  0.00000000000E+00  0.00000000000E+00 -0.12341669020E+03  0.17566069401E+03  0.12500000000E+03 0.  0.
<mgrwt>
<rscale>  2 0.12500000E+03</rscale>
<asrwt>0</asrwt>
<pdfrwt beam="1">  1       21 0.40187694E-02 0.12500000E+03</pdfrwt>
<pdfrwt beam="2">  1       21 0.23005953E-01 0.12500000E+03</pdfrwt>
<totfact> 0.67652848E+06</totfact>
</mgrwt>
</event>
<event>
 3    0  0.1732454E+001  0.1250000E+03  0.7546771E-02  0.1235069E+00
         21   -1    0    0  502  501  0.00000000000E+00  0.00000000000E+00  0.89051619338E+02  0.89051619338E+02  0.00000000000E+00 0.  1.
         21   -1    0    0  501  502 -0.00000000000E+00 -0.00000000000E+00 -0.43865008060E+02  0.43865008060E+02  0.00000000000E+00 0.  1.
         25    1    1    2    0    0  0.00000000000E+00  0.00000000000E+00  0.45186611278E+02  0.13291662740E+03  0.12500000000E+03 0.  0.
<mgrwt>
<rscale>  2 0.12500000E+03</rscale>
<asrwt>0</asrwt>
<pdfrwt beam="1">  1       21 0.13700249E-01 0.12500000E+03</pdfrwt>
<pdfrwt beam="2">  1       21 0.67484628E-02 0.12500000E+03</pdfrwt>
<totfact> 0.72973533E+06</totfact>
</mgrwt>
</event>
<event>
 3    0  0.1422671E+001  0.1250000E+03  0.7546771E-02  0.1235069E+00
         21   -1    0    0  502  501  0.00000000000E+00  0.00000000000E+00  0.57862825776E+03  0.57862825776E+03  0.00000000000E+00 0. -1.
         21   -1    0    0  501  502 -0.00000000000E+00 -0.00000000000E+00 -0.67508801162E+01  0.67508801162E+01  0.00000000000E+00 0. -1.
         25    1    1    2    0    0  0.00000000000E+00  0.00000000000E+00  0.57187737765E+03  0.58537913788E+03  0.12500000000E+03 0.  0.
<mgrwt>
<rscale>  2 0.12500000E+03</rscale>
<asrwt>0</asrwt>
<pdfrwt beam="1">  1       21 0.89019693E-01 0.12500000E+03</pdfrwt>
<pdfrwt beam="2">  1       21 0.10385974E-02 0.12500000E+03</pdfrwt>
<totfact> 0.37762311E+06</totfact>
</mgrwt>
</event>
<event>
 3    0  0.1697031E+001  0.1250000E+03  0.7546771E-02  0.1235069E+00
         21   -1    0    0  502  501  0.00000000000E+00  0.00000000000E+00  0.28560131750E+02  0.28560131750E+02  0.00000000000E+00 0.  1.
         21   -1    0    0  501  502 -0.00000000000E+00 -0.00000000000E+00 -0.13677282844E+03  0.13677282844E+03  0.00000000000E+00 0.  1.
         25    1    1    2    0    0  0.00000000000E+00  0.00000000000E+00 -0.10821269669E+03  0.16533296019E+03  0.12500000000E+03 0.  0.
<mgrwt>
<rscale>  2 0.12500000E+03</rscale>
<asrwt>0</asrwt>
<pdfrwt beam="1">  1       21 0.43938663E-02 0.12500000E+03</pdfrwt>
<pdfrwt beam="2">  1       21 0.21041974E-01 0.12500000E+03</pdfrwt>
<totfact> 0.68873666E+06</totfact>
</mgrwt>
</event>
<event>
 3    0  0.1691843E+001  0.1250000E+03  0.7546771E-02  0.1235069E+00
         21   -1    0    0  502  501  0.00000000000E+00  0.00000000000E+00  0.36073191365E+02  0.36073191365E+02  0.00000000000E+00 0. -1.
         21   -1    0    0  501  502 -0.00000000000E+00 -0.00000000000E+00 -0.10828678728E+03  0.10828678728E+03  0.00000000000E+00 0. -1.
         25    1    1    2    0    0  0.00000000000E+00  0.00000000000E+00 -0.72213595918E+02  0.14435997865E+03  0.12500000000E+03 0.  0.
<mgrwt>
<rscale>  2 0.12500000E+03</rscale>
<asrwt>0</asrwt>
<pdfrwt beam="1">  1       21 0.55497217E-02 0.12500000E+03</pdfrwt>
<pdfrwt beam="2">  1       21 0.16659506E-01 0.12500000E+03</pdfrwt>
<totfact> 0.71475106E+06</totfact>
</mgrwt>
</event>
<event>
 3    0  0.1677860E+001  0.1250000E+03  0.7546771E-02  0.1235069E+00
         21   -1    0    0  502  501  0.00000000000E+00  0.00000000000E+00  0.17864712137E+03  0.17864712137E+03  0.00000000000E+00 0.  1.
         21   -1    0    0  501  502 -0.00000000000E+00 -0.00000000000E+00 -0.21865731561E+02  0.21865731561E+02  0.00000000000E+00 0.  1.
         25    1    1    2    0    0  0.00000000000E+00  0.00000000000E+00  0.15678138981E+03  0.20051285293E+03  0.12500000000E+03 0.  0.
<mgrwt>
<rscale>  2 0.12500000E+03</rscale>
<asrwt>0</asrwt>
<pdfrwt beam="1">  1       21 0.27484172E-01 0.12500000E+03</pdfrwt>
<pdfrwt beam="2">  1       21 0.33639588E-02 0.12500000E+03</pdfrwt>
<totfact> 0.64871724E+06</totfact>
</mgrwt>
</event>
<event>
 3    0  0.1688017E+001  0.1250000E+03  0.7546771E-02  0.1235069E+00
         21   -1    0    0  502  501  0.00000000000E+00  0.00000000000E+00  0.17450872996E+03  0.17450872996E+03  0.00000000000E+00 0.  1.
         21   -1    0    0  501  502 -0.00000000000E+00 -0.00000000000E+00 -0.22384266970E+02  0.22384266970E+02  0.00000000000E+00 0.  1.
         25    1    1    2    0    0  0.00000000000E+00  0.00000000000E+00  0.15212446299E+03  0.19689299693E+03  0.12500000000E+03 0.  0.
<mgrwt>
<rscale>  2 0.12500000E+03</rscale>
<asrwt>0</asrwt>
<pdfrwt beam="1">  1       21 0.26847496E-01 0.12500000E+03</pdfrwt>
<pdfrwt beam="2">  1       21 0.34437335E-02 0.12500000E+03</pdfrwt>
<totfact> 0.65264434E+06</totfact>
</mgrwt>
</event>
<event>
 3    0  0.1577387E+001  0.1250000E+03  0.7546771E-02  0.1235069E+00
         21   -1    0    0  502  501  0.00000000000E+00  0.00000000000E+00  0.12098677094E+02  0.12098677094E+02  0.00000000000E+00 0.  1.
         21   -1    0    0  501  502 -0.00000000000E+00 -0.00000000000E+00 -0.32286587779E+03  0.32286587779E+03  0.00000000000E+00 0.  1.
         25    1    1    2    0    0  0.00000000000E+00  0.00000000000E+00 -0.31076720070E+03  0.33496455489E+03  0.12500000000E+03 0.  0.
<mgrwt>
<rscale>  2 0.12500000E+03</rscale>
<asrwt>0</asrwt>
<pdfrwt beam="1">  1       21 0.18613350E-02 0.12500000E+03</pdfrwt>
<pdfrwt beam="2">  1       21 0.49671672E-01 0.12500000E+03</pdfrwt>
<totfact> 0.52668383E+06</totfact>
</mgrwt>
</event>
<event>
 3    0  0.1699975E+001  0.1250000E+03  0.7546771E-02  0.1235069E+00
         21   -1    0    0  502  501  0.00000000000E+00  0.00000000000E+00  0.98331831913E+02  0.98331831913E+02  0.00000000000E+00 0. -1.
         21   -1    0    0  501  502 -0.00000000000E+00 -0.00000000000E+00 -0.39725182822E+02  0.39725182822E+02  0.00000000000E+00 0. -1.
         25    1    1    2    0    0  0.00000000000E+00  0.00000000000E+00  0.58606649091E+02  0.13805701474E+03  0.12500000000E+03 0.  0.
<mgrwt>
<rscale>  2 0.12500000E+03</rscale>
<asrwt>0</asrwt>
<pdfrwt beam="1">  1       21 0.15127974E-01 0.12500000E+03</pdfrwt>
<pdfrwt beam="2">  1       21 0.61115666E-02 0.12500000E+03</pdfrwt>
<totfact> 0.72293987E+06</totfact>
</mgrwt>
</event>
<event>
 3    0  0.1676490E+001  0.1250000E+03  0.7546771E-02  0.1235069E+00
         21   -1    0    0  502  501  0.00000000000E+00  0.00000000000E+00  0.16333460826E+03  0.16333460826E+03  0.00000000000E+00 0.  1.
         21   -1    0    0  501  502 -0.00000000000E+00 -0.00000000000E+00 -0.23915629650E+02  0.23915629650E+02  0.00000000000E+00 0.  1.
         25    1    1    2    0    0  0.00000000000E+00  0.00000000000E+00  0.13941897861E+03  0.18725023791E+03  0.12500000000E+03 0.  0.
<mgrwt>
<rscale>  2 0.12500000E+03</rscale>
<asrwt>0</asrwt>
<pdfrwt beam="1">  1       21 0.25128401E-01 0.12500000E+03</pdfrwt>
<pdfrwt beam="2">  1       21 0.36793277E-02 0.12500000E+03</pdfrwt>
<totfact> 0.66329386E+06</totfact>
</mgrwt>
</event>
<event>
 3    0  0.1693239E+001  0.1250000E+03  0.7546771E-02  0.1235069E+00
         21   -1    0    0  502  501  0.00000000000E+00  0.00000000000E+00  0.16654568946E+03  0.16654568946E+03  0.00000000000E+00 0.  1.
         21   -1    0    0  501  502 -0.00000000000E+00 -0.00000000000E+00 -0.23454524777E+02  0.23454524777E+02  0.00000000000E+00 0.  1.
         25    1    1    2    0    0  0.00000000000E+00  0.00000000000E+00  0.14309116468E+03  0.19000021424E+03  0.12500000000E+03 0.  0.
<mgrwt>
<rscale>  2 0.12500000E+03</rscale>
<asrwt>0</asrwt>
<pdfrwt beam="1">  1       21 0.25622413E-01 0.12500000E+03</pdfrwt>
<pdfrwt beam="2">  1       21 0.36083885E-02 0.12500000E+03</pdfrwt>
<totfact> 0.66022440E+06</totfact>
</mgrwt>
</event>
<event>
 3    0  0.1368989E+001  0.1250000E+03  0.7546771E-02  0.1235069E+00
         21   -1    0    0  502  501  0.00000000000E+00  0.00000000000E+00  0.76495731668E+03  0.76495731668E+03  0.00000000000E+00 0. -1.
         21   -1    0    0  501  502 -0.00000000000E+00 -0.00000000000E+00 -0.51064940682E+01  0.51064940682E+01  0.00000000000E+00 0. -1.
         25    1    1    2    0    0  0.00000000000E+00  0.00000000000E+00  0.75985082261E+03  0.77006381074E+03  0.12500000000E+03 0.  0.
<mgrwt>
<rscale>  2 0.12500000E+03</rscale>
<asrwt>0</asrwt>
<pdfrwt beam="1">  1       21 0.11768565E+00 0.12500000E+03</pdfrwt>
<pdfrwt beam="2">  1       21 0.78561508E-03 0.12500000E+03</pdfrwt>
<totfact> 0.30375434E+06</totfact>
</mgrwt>
</event>
<event>
 3    0  0.1370579E+001  0.1250000E+03  0.7546771E-02  0.1235069E+00
         21   -1    0    0  502  501  0.00000000000E+00  0.00000000000E+00  0.60245671034E+01  0.60245671034E+01  0.00000000000E+00 0. -1.
         21   -1    0    0  501  502 -0.00000000000E+00 -0.00000000000E+00 -0.64838683559E+03  0.64838683559E+03  0.00000000000E+00 0. -1.
         25    1    1    2    0    0  0.00000000000E+00  0.00000000000E+00 -0.64236226849E+03  0.65441140269E+03  0.12500000000E+03 0.  0.
<mgrwt>
<rscale>  2 0.12500000E+03</rscale>
<asrwt>0</asrwt>
<pdfrwt beam="1">  1       21 0.92685665E-03 0.12500000E+03</pdfrwt>
<pdfrwt beam="2">  1       21 0.99751803E-01 0.12500000E+03</pdfrwt>
<totfact> 0.34741734E+06</totfact>
</mgrwt>
</event>
<event>
 3    0  0.1712591E+001  0.1250000E+03  0.7546771E-02  0.1235069E+00
         21   -1    0    0  502  501  0.00000000000E+00  0.00000000000E+00  0.60784389022E+02  0.60784389022E+02  0.00000000000E+00 0. -1.
         21   -1    0    0  501  502 -0.00000000000E+00 -0.00000000000E+00 -0.64264033296E+02  0.64264033296E+02  0.00000000000E+00 0. -1.
         25    1    1    2    0    0  0.00000000000E+00  0.00000000000E+00 -0.34796442735E+01  0.12504842232E+03  0.12500000000E+03 0.  0.
<mgrwt>
<rscale>  2 0.12500000E+03</rscale>
<asrwt>0</asrwt>
<pdfrwt beam="1">  1       21 0.93514445E-02 0.12500000E+03</pdfrwt>
<pdfrwt beam="2">  1       21 0.98867744E-02 0.12500000E+03</pdfrwt>
<totfact> 0.74037041E+06</totfact>
</mgrwt>
</event>
<event>
 3    0  0.1416595E+001  0.1250000E+03  0.7546771E-02  0.1235069E+00
         21   -1    0    0  502  501  0.00000000000E+00  0.00000000000E+00  0.70980846355E+01  0.70980846355E+01  0.00000000000E+00 0. -1.
         21   -1    0    0  501  502 -0.00000000000E+00 -0.00000000000E+00 -0.55032451719E+03  0.55032451719E+03  0.00000000000E+00 0. -1.
         25    1    1    2    0    0  0.00000000000E+00  0.00000000000E+00 -0.54322643255E+03  0.55742260182E+03  0.12500000000E+03 0.  0.
<mgrwt>
<rscale>  2 0.12500000E+03</rscale>
<asrwt>0</asrwt>
<pdfrwt beam="1">  1       21 0.10920131E-02 0.12500000E+03</pdfrwt>
<pdfrwt beam="2">  1       21 0.84665308E-01 0.12500000E+03</pdfrwt>
<totfact> 0.39091770E+06</totfact>
</mgrwt>
</event>
<event>
 3    0  0.1418498E+001  0.1250000E+03  0.7546771E-02  0.1235069E+00
         21   -1    0    0  502  501  0.00000000000E+00  0.00000000000E+00  0.61862328282E+01  0.61862328282E+01  0.00000000000E+00 0.  1.
         21   -1    0    0  501  502 -0.00000000000E+00 -0.00000000000E+00 -0.63144244785E+03  0.63144244785E+03  0.00000000000E+00 0.  1.
         25    1    1    2    0    0  0.00000000000E+00  0.00000000000E+00 -0.62525621502E+03  0.63762868067E+03  0.12500000000E+03 0.  0.
<mgrwt>
<rscale>  2 0.12500000E+03</rscale>
<asrwt>0</asrwt>
<pdfrwt beam="1">  1       21 0.95172857E-03 0.12500000E+03</pdfrwt>
<pdfrwt beam="2">  1       21 0.97144946E-01 0.12500000E+03</pdfrwt>
<totfact> 0.35444352E+06</totfact>
</mgrwt>
</event>
<event>
 3    0  0.1611089E+001  0.1250000E+03  0.7546771E-02  0.1235069E+00
         21   -1    0    0  502  501  0.00000000000E+00  0.00000000000E+00  0.16052914802E+02  0.16052914802E+02  0.00000000000E+00 0. -1.
         21   -1    0    0  501  502 -0.00000000000E+00 -0.00000000000E+00 -0.24333587066E+03  0.24333587066E+03  0.00000000000E+00 0. -1.
         25    1    1    2    0    0  0.00000000000E+00  0.00000000000E+00 -0.22728295585E+03  0.25938878546E+03  0.12500000000E+03 0.  0.
<mgrwt>
<rscale>  2 0.12500000E+03</rscale>
<asrwt>0</asrwt>
<pdfrwt beam="1">  1       21 0.24696794E-02 0.12500000E+03</pdfrwt>
<pdfrwt beam="2">  1       21 0.37436285E-01 0.12500000E+03</pdfrwt>
<totfact> 0.59005339E+06</totfact>
</mgrwt>
</event>
<event>
 3    0  0.1698888E+001  0.1250000E+03  0.7546771E-02  0.1235069E+00
         21   -1    0    0  502  501  0.00000000000E+00  0.00000000000E+00  0.10163817512E+03  0.10163817512E+03  0.00000000000E+00 0. -1.
         21   -1    0    0  501  502 -0.00000000000E+00 -0.00000000000E+00 -0.38432901765E+02  0.38432901765E+02  0.00000000000E+00 0. -1.
         25    1    1    2    0    0  0.00000000000E+00  0.00000000000E+00  0.63205273358E+02  0.14007107689E+03  0.12500000000E+03 0.  0.
<mgrwt>
<rscale>  2 0.12500000E+03</rscale>
<asrwt>0</asrwt>
<pdfrwt beam="1">  1       21 0.15636642E-01 0.12500000E+03</pdfrwt>
<pdfrwt beam="2">  1       21 0.59127542E-02 0.12500000E+03</pdfrwt>
<totfact> 0.72030031E+06</totfact>
</mgrwt>
</event>
<event>
 3    0  0.1368989E+001  0.1250000E+03  0.7546771E-02  0.1235069E+00
         21   -1    0    0  502  501  0.00000000000E+00  0.00000000000E+00  0.30712845977E+01  0.30712845977E+01  0.00000000000E+00 0. -1.
         21   -1    0    0  501  502 -0.00000000000E+00 -0.00000000000E+00 -0.12718619443E+04  0.12718619443E+04  0.00000000000E+00 0. -1.
         25    1    1    2    0    0  0.00000000000E+00  0.00000000000E+00 -0.12687906597E+04  0.12749332289E+04  0.12500000000E+03 0.  0.
<mgrwt>
<rscale>  2 0.12500000E+03</rscale>
<asrwt>0</asrwt>
<pdfrwt beam="1">  1       21 0.47250537E-03 0.12500000E+03</pdfrwt>
<pdfrwt beam="2">  1       21 0.19567105E+00 0.12500000E+03</pdfrwt>
<totfact> 0.17708519E+06</totfact>
</mgrwt>
</event>
<event>
 3    0  0.1368989E+001  0.1250000E+03  0.7546771E-02  0.1235069E+00
         21   -1    0    0  502  501  0.00000000000E+00  0.00000000000E+00  0.31952939944E+01  0.31952939944E+01  0.00000000000E+00 0. -1.
         21   -1    0    0  501  502 -0.00000000000E+00 -0.00000000000E+00 -0.12225009676E+04  0.12225009676E+04  0.00000000000E+00 0. -1.
         25    1    1    2    0    0  0.00000000000E+00  0.00000000000E+00 -0.12193056736E+04  0.12256962616E+04  0.12500000000E+03 0.  0.
<mgrwt>
<rscale>  2 0.12500000E+03</rscale>
<asrwt>0</asrwt>
<pdfrwt beam="1">  1       21 0.49158420E-03 0.12500000E+03</pdfrwt>
<pdfrwt beam="2">  1       21 0.18807688E+00 0.12500000E+03</pdfrwt>
<totfact> 0.18638735E+06</totfact>
</mgrwt>
</event>
<event>
 3    0  0.1368989E+001  0.1250000E+03  0.7546771E-02  0.1235069E+00
         21   -1    0    0  502  501  0.00000000000E+00  0.00000000000E+00  0.86762849896E+03  0.86762849896E+03  0.00000000000E+00 0. -1.
         21   -1    0    0  501  502 -0.00000000000E+00 -0.00000000000E+00 -0.45022149511E+01  0.45022149511E+01  0.00000000000E+00 0. -1.
         25    1    1    2    0    0  0.00000000000E+00  0.00000000000E+00  0.86312628401E+03  0.87213071391E+03  0.12500000000E+03 0.  0.
<mgrwt>
<rscale>  2 0.12500000E+03</rscale>
<asrwt>0</asrwt>
<pdfrwt beam="1">  1       21 0.13348117E+00 0.12500000E+03</pdfrwt>
<pdfrwt beam="2">  1       21 0.69264915E-03 0.12500000E+03</pdfrwt>
<totfact> 0.27107389E+06</totfact>
</mgrwt>
</event>
<event>
 3    0  0.1454743E+001  0.1250000E+03  0.7546771E-02  0.1235069E+00
         21   -1    0    0  502  501  0.00000000000E+00  0.00000000000E+00  0.49397110734E+03  0.49397110734E+03  0.00000000000E+00 0. -1.
         21   -1    0    0  501  502 -0.00000000000E+00 -0.00000000000E+00 -0.79078511718E+01  0.79078511718E+01  0.00000000000E+00 0. -1.
         25    1    1    2    0    0  0.00000000000E+00  0.00000000000E+00  0.48606325617E+03  0.50187895851E+03  0.12500000000E+03 0.  0.
<mgrwt>
<rscale>  2 0.12500000E+03</rscale>
<asrwt>0</asrwt>
<pdfrwt beam="1">  1       21 0.75995530E-01 0.12500000E+03</pdfrwt>
<pdfrwt beam="2">  1       21 0.12165929E-02 0.12500000E+03</pdfrwt>
<totfact> 0.41942362E+06</totfact>
</mgrwt>
</event>
<event>
 3    0  0.1539725E+001  0.1250000E+03  0.7546771E-02  0.1235069E+00
         21   -1    0    0  502  501  0.00000000000E+00  0.00000000000E+00  0.34088627639E+03  0.34088627639E+03  0.00000000000E+00 0. -1.
         21   -1    0    0  501  502 -0.00000000000E+00 -0.00000000000E+00 -0.11459100206E+02  0.11459100206E+02  0.00000000000E+00 0. -1.
         25    1    1    2    0    0  0.00000000000E+00  0.00000000000E+00  0.32942717618E+03  0.35234537659E+03  0.12500000000E+03 0.  0.
<mgrwt>
<rscale>  2 0.12500000E+03</rscale>
<asrwt>0</asrwt>
<pdfrwt beam="1">  1       21 0.52444035E-01 0.12500000E+03</pdfrwt>
<pdfrwt beam="2">  1       21 0.17629388E-02 0.12500000E+03</pdfrwt>
<totfact> 0.51365688E+06</totfact>
</mgrwt>
</event>
<event>
 3    0  0.1580994E+001  0.1250000E+03  0.7546771E-02  0.1235069E+00
         21   -1    0    0  502  501  0.00000000000E+00  0.00000000000E+00  0.31132790919E+03  0.31132790919E+03  0.00000000000E+00 0. -1.
         21   -1    0    0  501  502 -0.00000000000E+00 -0.00000000000E+00 -0.12547060141E+02  0.12547060141E+02  0.00000000000E+00 0. -1.
         25    1    1    2    0    0  0.00000000000E+00  0.00000000000E+00  0.29878084905E+03  0.32387496933E+03  0.12500000000E+03 0.  0.
<mgrwt>
<rscale>  2 0.12500000E+03</rscale>
<asrwt>0</asrwt>
<pdfrwt beam="1">  1       21 0.47896596E-01 0.12500000E+03</pdfrwt>
<pdfrwt beam="2">  1       21 0.19303172E-02 0.12500000E+03</pdfrwt>
<totfact> 0.53527695E+06</totfact>
</mgrwt>
</event>
<event>
 3    0  0.1444895E+001  0.1250000E+03  0.7546771E-02  0.1235069E+00
         21   -1    0    0  502  501  0.00000000000E+00  0.00000000000E+00  0.67744583031E+01  0.67744583031E+01  0.00000000000E+00 0.  1.
         21   -1    0    0  501  502 -0.00000000000E+00 -0.00000000000E+00 -0.57661436903E+03  0.57661436903E+03  0.00000000000E+00 0.  1.
         25    1    1    2    0    0  0.00000000000E+00  0.00000000000E+00 -0.56983991073E+03  0.58338882734E+03  0.12500000000E+03 0.  0.
<mgrwt>
<rscale>  2 0.12500000E+03</rscale>
<asrwt>0</asrwt>
<pdfrwt beam="1">  1       21 0.10422241E-02 0.12500000E+03</pdfrwt>
<pdfrwt beam="2">  1       21 0.88709928E-01 0.12500000E+03</pdfrwt>
<totfact> 0.37854780E+06</totfact>
</mgrwt>
</event>
<event>
 3    0  0.1704609E+001  0.1250000E+03  0.7546771E-02  0.1235069E+00
         21   -1    0    0  502  501  0.00000000000E+00  0.00000000000E+00  0.91015398403E+02  0.91015398403E+02  0.00000000000E+00 0. -1.
         21   -1    0    0  501  502 -0.00000000000E+00 -0.00000000000E+00 -0.42918561788E+02  0.42918561788E+02  0.00000000000E+00 0. -1.
         25    1    1    2    0    0  0.00000000000E+00  0.00000000000E+00  0.48096836615E+02  0.13393396019E+03  0.12500000000E+03 0.  0.
<mgrwt>
<rscale>  2 0.12500000E+03</rscale>
<asrwt>0</asrwt>
<pdfrwt beam="1">  1       21 0.14002369E-01 0.12500000E+03</pdfrwt>
<pdfrwt beam="2">  1       21 0.66028557E-02 0.12500000E+03</pdfrwt>
<totfact> 0.72837935E+06</totfact>
</mgrwt>
</event>
<event>
 3    0  0.1368989E+001  0.1250000E+03  0.7546771E-02  0.1235069E+00
         21   -1    0    0  502  501  0.00000000000E+00  0.00000000000E+00  0.25253141707E+01  0.25253141707E+01  0.00000000000E+00 0.  1.
         21   -1    0    0  501  502 -0.00000000000E+00 -0.00000000000E+00 -0.15468372392E+04  0.15468372392E+04  0.00000000000E+00 0.  1.
         25    1    1    2    0    0  0.00000000000E+00  0.00000000000E+00 -0.15443119250E+04  0.15493625534E+04  0.12500000000E+03 0.  0.
<mgrwt>
<rscale>  2 0.12500000E+03</rscale>
<asrwt>0</asrwt>
<pdfrwt beam="1">  1       21 0.38850991E-03 0.12500000E+03</pdfrwt>
<pdfrwt beam="2">  1       21 0.23797494E+00 0.12500000E+03</pdfrwt>
<totfact> 0.13276496E+06</totfact>
</mgrwt>
</event>
<event>
 3    0  0.1537944E+001  0.1250000E+03  0.7546771E-02  0.1235069E+00
         21   -1    0    0  502  501  0.00000000000E+00  0.00000000000E+00  0.37597208319E+03  0.37597208319E+03  0.00000000000E+00 0.  1.
         21   -1    0    0  501  502 -0.00000000000E+00 -0.00000000000E+00 -0.10389734171E+02  0.10389734171E+02  0.00000000000E+00 0.  1.
         25    1    1    2    0    0  0.00000000000E+00  0.00000000000E+00  0.36558234902E+03  0.38636181736E+03  0.12500000000E+03 0.  0.
<mgrwt>
<rscale>  2 0.12500000E+03</rscale>
<asrwt>0</asrwt>
<pdfrwt beam="1">  1       21 0.57841848E-01 0.12500000E+03</pdfrwt>
<pdfrwt beam="2">  1       21 0.15984209E-02 0.12500000E+03</pdfrwt>
<totfact> 0.48959314E+06</totfact>
</mgrwt>
</event>
<event>
 3    0  0.1705236E+001  0.1250000E+03  0.7546771E-02  0.1235069E+00
         21   -1    0    0  502  501  0.00000000000E+00  0.00000000000E+00  0.30651422303E+02  0.30651422303E+02  0.00000000000E+00 0.  1.
         21   -1    0    0  501  502 -0.00000000000E+00 -0.00000000000E+00 -0.12744106820E+03  0.12744106820E+03  0.00000000000E+00 0.  1.
         25    1    1    2    0    0  0.00000000000E+00  0.00000000000E+00 -0.96789645894E+02  0.15809249050E+03  0.12500000000E+03 0.  0.
<mgrwt>
<rscale>  2 0.12500000E+03</rscale>
<asrwt>0</asrwt>
<pdfrwt beam="1">  1       21 0.47156033E-02 0.12500000E+03</pdfrwt>
<pdfrwt beam="2">  1       21 0.19606319E-01 0.12500000E+03</pdfrwt>
<totfact> 0.69753327E+06</totfact>
</mgrwt>
</event>
<event>
 3    0  0.1711218E+001  0.1250000E+03  0.7546771E-02  0.1235069E+00
         21   -1    0    0  502  501  0.00000000000E+00  0.00000000000E+00  0.72419007597E+02  0.72419007597E+02  0.00000000000E+00 0. -1.
         21   -1    0    0  501  502 -0.00000000000E+00 -0.00000000000E+00 -0.53939568211E+02  0.53939568211E+02  0.00000000000E+00 0. -1.
         25    1    1    2    0    0  0.00000000000E+00  0.00000000000E+00  0.18479439386E+02  0.12635857581E+03  0.12500000000E+03 0.  0.
<mgrwt>
<rscale>  2 0.12500000E+03</rscale>
<asrwt>0</asrwt>
<pdfrwt beam="1">  1       21 0.11141386E-01 0.12500000E+03</pdfrwt>
<pdfrwt beam="2">  1       21 0.82983951E-02 0.12500000E+03</pdfrwt>
<totfact> 0.73856745E+06</totfact>
</mgrwt>
</event>
<event>
 3    0  0.1592118E+001  0.1250000E+03  0.7546771E-02  0.1235069E+00
         21   -1    0    0  502  501  0.00000000000E+00  0.00000000000E+00  0.15531660525E+02  0.15531660525E+02  0.00000000000E+00 0. -1.
         21   -1    0    0  501  502 -0.00000000000E+00 -0.00000000000E+00 -0.25150240657E+03  0.25150240657E+03  0.00000000000E+00 0. -1.
         25    1    1    2    0    0  0.00000000000E+00  0.00000000000E+00 -0.23597074605E+03  0.26703406710E+03  0.12500000000E+03 0.  0.
<mgrwt>
<rscale>  2 0.12500000E+03</rscale>
<asrwt>0</asrwt>
<pdfrwt beam="1">  1       21 0.23894864E-02 0.12500000E+03</pdfrwt>
<pdfrwt beam="2">  1       21 0.38692676E-01 0.12500000E+03</pdfrwt>
<totfact> 0.58310501E+06</totfact>
</mgrwt>
</event>
<event>
 3    0  0.1697117E+001  0.1250000E+03  0.7546771E-02  0.1235069E+00
         21   -1    0    0  502  501  0.00000000000E+00  0.00000000000E+00  0.10560393309E+03  0.10560393309E+03  0.00000000000E+00 0. -1.
         21   -1    0    0  501  502 -0.00000000000E+00 -0.00000000000E+00 -0.36989626103E+02  0.36989626103E+02  0.00000000000E+00 0. -1.
         25    1    1    2    0    0  0.00000000000E+00  0.00000000000E+00  0.68614306988E+02  0.14259355919E+03  0.12500000000E+03 0.  0.
<mgrwt>
<rscale>  2 0.12500000E+03</rscale>
<asrwt>0</asrwt>
<pdfrwt beam="1">  1       21 0.16246759E-01 0.12500000E+03</pdfrwt>
<pdfrwt beam="2">  1       21 0.56907117E-02 0.12500000E+03</pdfrwt>
<totfact> 0.71702507E+06</totfact>
</mgrwt>
</event>
<event>
 3    0  0.1638594E+001  0.1250000E+03  0.7546771E-02  0.1235069E+00
         21   -1    0    0  502  501  0.00000000000E+00  0.00000000000E+00  0.18474201131E+02  0.18474201131E+02  0.00000000000E+00 0. -1.
         21   -1    0    0  501  502 -0.00000000000E+00 -0.00000000000E+00 -0.21144351370E+03  0.21144351370E+03  0.00000000000E+00 0. -1.
         25    1    1    2    0    0  0.00000000000E+00  0.00000000000E+00 -0.19296931257E+03  0.22991771483E+03  0.12500000000E+03 0.  0.
<mgrwt>
<rscale>  2 0.12500000E+03</rscale>
<asrwt>0</asrwt>
<pdfrwt beam="1">  1       21 0.28421847E-02 0.12500000E+03</pdfrwt>
<pdfrwt beam="2">  1       21 0.32529773E-01 0.12500000E+03</pdfrwt>
<totfact> 0.61822168E+06</totfact>
</mgrwt>
</event>
<event>
 3    0  0.1682008E+001  0.1250000E+03  0.7546771E-02  0.1235069E+00
         21   -1    0    0  502  501  0.00000000000E+00  0.00000000000E+00  0.30764737577E+02  0.30764737577E+02  0.00000000000E+00 0. -1.
         21   -1    0    0  501  502 -0.00000000000E+00 -0.00000000000E+00 -0.12697166651E+03  0.12697166651E+03  0.00000000000E+00 0. -1.
         25    1    1    2    0    0  0.00000000000E+00  0.00000000000E+00 -0.96206928937E+02  0.15773640409E+03  0.12500000000E+03 0.  0.
<mgrwt>
<rscale>  2 0.12500000E+03</rscale>
<asrwt>0</asrwt>
<pdfrwt beam="1">  1       21 0.47330366E-02 0.12500000E+03</pdfrwt>
<pdfrwt beam="2">  1       21 0.19534102E-01 0.12500000E+03</pdfrwt>
<totfact> 0.69797146E+06</totfact>
</mgrwt>
</event>
<event>
 3    0  0.1709408E+001  0.1250000E+03  0.7546771E-02  0.1235069E+00
         21   -1    0    0  502  501  0.00000000000E+00  0.00000000000E+00  0.74492190311E+02  0.74492190311E+02  0.00000000000E+00 0. -1.
         21   -1    0    0  501  502 -0.00000000000E+00 -0.00000000000E+00 -0.52438382919E+02  0.52438382919E+02  0.00000000000E+00 0. -1.
         25    1    1    2    0    0  0.00000000000E+00  0.00000000000E+00  0.22053807392E+02  0.12693057323E+03  0.12500000000E+03 0.  0.
<mgrwt>
<rscale>  2 0.12500000E+03</rscale>
<asrwt>0</asrwt>
<pdfrwt beam="1">  1       21 0.11460337E-01 0.12500000E+03</pdfrwt>
<pdfrwt beam="2">  1       21 0.80674435E-02 0.12500000E+03</pdfrwt>
<totfact> 0.73778590E+06</totfact>
</mgrwt>
</event>
<event>
 3    0  0.1368989E+001  0.1250000E+03  0.7546771E-02  0.1235069E+00
         21   -1    0    0  502  501  0.00000000000E+00  0.00000000000E+00  0.38287053036E+01  0.38287053036E+01  0.00000000000E+00 0. -1.
         21   -1    0    0  501  502 -0.00000000000E+00 -0.00000000000E+00 -0.10202535035E+04  0.10202535035E+04  0.00000000000E+00 0. -1.
         25    1    1    2    0    0  0.00000000000E+00  0.00000000000E+00 -0.10164247982E+04  0.10240822088E+04  0.12500000000E+03 0.  0.
<mgrwt>
<rscale>  2 0.12500000E+03</rscale>
<asrwt>0</asrwt>
<pdfrwt beam="1">  1       21 0.58903204E-03 0.12500000E+03</pdfrwt>
<pdfrwt beam="2">  1       21 0.15696196E+00 0.12500000E+03</pdfrwt>
<totfact> 0.23023254E+06</totfact>
</mgrwt>
</event>
<event>
 3    0  0.1368989E+001  0.1250000E+03  0.7546771E-02  0.1235069E+00
         21   -1    0    0  502  501  0.00000000000E+00  0.00000000000E+00  0.54348902615E+01  0.54348902615E+01  0.00000000000E+00 0. -1.
         21   -1    0    0  501  502 -0.00000000000E+00 -0.00000000000E+00 -0.71873576320E+03  0.71873576320E+03  0.00000000000E+00 0. -1.
         25    1    1    2    0    0  0.00000000000E+00  0.00000000000E+00 -0.71330087294E+03  0.72417065346E+03  0.12500000000E+03 0.  0.
<mgrwt>
<rscale>  2 0.12500000E+03</rscale>
<asrwt>0</asrwt>
<pdfrwt beam="1">  1       21 0.83613670E-03 0.12500000E+03</pdfrwt>
<pdfrwt beam="2">  1       21 0.11057477E+00 0.12500000E+03</pdfrwt>
<totfact> 0.31998847E+06</totfact>
</mgrwt>
</event>
<event>
 3    0  0.1702861E+001  0.1250000E+03  0.7546771E-02  0.1235069E+00
         21   -1    0    0  502  501  0.00000000000E+00  0.00000000000E+00  0.27146944016E+02  0.27146944016E+02  0.00000000000E+00 0.  1.
         21   -1    0    0  501  502 -0.00000000000E+00 -0.00000000000E+00 -0.14389280789E+03  0.14389280789E+03  0.00000000000E+00 0.  1.
         25    1    1    2    0    0  0.00000000000E+00  0.00000000000E+00 -0.11674586387E+03  0.17103975190E+03  0.12500000000E+03 0.  0.
<mgrwt>
<rscale>  2 0.12500000E+03</rscale>
<asrwt>0</asrwt>
<pdfrwt beam="1">  1       21 0.41764530E-02 0.12500000E+03</pdfrwt>
<pdfrwt beam="2">  1       21 0.22137355E-01 0.12500000E+03</pdfrwt>
<totfact> 0.68194592E+06</totfact>
</mgrwt>
</event>
<event>
 3    0  0.1688762E+001  0.1250000E+03  0.7546771E-02  0.1235069E+00
         21   -1    0    0  502  501  0.00000000000E+00  0.00000000000E+00  0.35575788906E+02  0.35575788906E+02  0.00000000000E+00 0. -1.
         21   -1    0    0  501  502 -0.00000000000E+00 -0.00000000000E+00 -0.10980079768E+03  0.10980079768E+03  0.00000000000E+00 0. -1.
         25    1    1    2    0    0  0.00000000000E+00  0.00000000000E+00 -0.74225008774E+02  0.14537658659E+03  0.12500000000E+03 0.  0.
<mgrwt>
<rscale>  2 0.12500000E+03</rscale>
<asrwt>0</asrwt>
<pdfrwt beam="1">  1       21 0.54731983E-02 0.12500000E+03</pdfrwt>
<pdfrwt beam="2">  1       21 0.16892430E-01 0.12500000E+03</pdfrwt>
<totfact> 0.71344940E+06</totfact>
</mgrwt>
</event>
<event>
 3    0  0.1368989E+001  0.1250000E+03  0.7546771E-02  0.1235069E+00
         21   -1    0    0  502  501  0.00000000000E+00  0.00000000000E+00  0.73147773459E+03  0.73147773459E+03  0.00000000000E+00 0.  1.
         21   -1    0    0  501  502 -0.00000000000E+00 -0.00000000000E+00 -0.53402172278E+01  0.53402172278E+01  0.00000000000E+00 0.  1.
         25    1    1    2    0    0  0.00000000000E+00  0.00000000000E+00  0.72613751736E+03  0.73681795182E+03  0.12500000000E+03 0.  0.
<mgrwt>
<rscale>  2 0.12500000E+03</rscale>
<asrwt>0</asrwt>
<pdfrwt beam="1">  1       21 0.11253496E+00 0.12500000E+03</pdfrwt>
<pdfrwt beam="2">  1       21 0.82157246E-03 0.12500000E+03</pdfrwt>
<totfact> 0.31538034E+06</totfact>
</mgrwt>
</event>
<event>
 3    0  0.1405231E+001  0.1250000E+03  0.7546771E-02  0.1235069E+00
         21   -1    0    0  502  501  0.00000000000E+00  0.00000000000E+00  0.61094399393E+01  0.61094399393E+01  0.00000000000E+00 0.  1.
         21   -1    0    0  501  502 -0.00000000000E+00 -0.00000000000E+00 -0.63937939301E+03  0.63937939301E+03  0.00000000000E+00 0.  1.
         25    1    1    2    0    0  0.00000000000E+00  0.00000000000E+00 -0.63326995307E+03  0.64548883295E+03  0.12500000000E+03 0.  0.
<mgrwt>
<rscale>  2 0.12500000E+03</rscale>
<asrwt>0</asrwt>
<pdfrwt beam="1">  1       21 0.93991360E-03 0.12500000E+03</pdfrwt>
<pdfrwt beam="2">  1       21 0.98366085E-01 0.12500000E+03</pdfrwt>
<totfact> 0.35112840E+06</totfact>
</mgrwt>
</event>
<event>
 3    0  0.1426040E+001  0.1250000E+03  0.7546771E-02  0.1235069E+00
         21   -1    0    0  502  501  0.00000000000E+00  0.00000000000E+00  0.58851750200E+03  0.58851750200E+03  0.00000000000E+00 0.  1.
         21   -1    0    0  501  502 -0.00000000000E+00 -0.00000000000E+00 -0.66374406652E+01  0.66374406652E+01  0.00000000000E+00 0.  1.
         25    1    1    2    0    0  0.00000000000E+00  0.00000000000E+00  0.58188006134E+03  0.59515494267E+03  0.12500000000E+03 0.  0.
<mgrwt>
<rscale>  2 0.12500000E+03</rscale>
<asrwt>0</asrwt>
<pdfrwt beam="1">  1       21 0.90541113E-01 0.12500000E+03</pdfrwt>
<pdfrwt beam="2">  1       21 0.10211452E-02 0.12500000E+03</pdfrwt>
<totfact> 0.37312675E+06</totfact>
</mgrwt>
</event>
<event>
 3    0  0.1564527E+001  0.1250000E+03  0.7546771E-02  0.1235069E+00
         21   -1    0    0  502  501  0.00000000000E+00  0.00000000000E+00  0.11062517983E+02  0.11062517983E+02  0.00000000000E+00 0. -1.
         21   -1    0    0  501  502 -0.00000000000E+00 -0.00000000000E+00 -0.35310677062E+03  0.35310677062E+03  0.00000000000E+00 0. -1.
         25    1    1    2    0    0  0.00000000000E+00  0.00000000000E+00 -0.34204425264E+03  0.36416928860E+03  0.12500000000E+03 0.  0.
<mgrwt>
<rscale>  2 0.12500000E+03</rscale>
<asrwt>0</asrwt>
<pdfrwt beam="1">  1       21 0.17019260E-02 0.12500000E+03</pdfrwt>
<pdfrwt beam="2">  1       21 0.54324115E-01 0.12500000E+03</pdfrwt>
<totfact> 0.50508715E+06</totfact>
</mgrwt>
</event>
<event>
 3    0  0.1368989E+001  0.1250000E+03  0.7546771E-02  0.1235069E+00
         21   -1    0    0  502  501  0.00000000000E+00  0.00000000000E+00  0.24861204791E+01  0.24861204791E+01  0.00000000000E+00 0.  1.
         21   -1    0    0  501  502 -0.00000000000E+00 -0.00000000000E+00 -0.15712231297E+04  0.15712231297E+04  0.00000000000E+00 0.  1.
         25    1    1    2    0    0  0.00000000000E+00  0.00000000000E+00 -0.15687370092E+04  0.15737092502E+04  0.12500000000E+03 0.  0.
<mgrwt>
<rscale>  2 0.12500000E+03</rscale>
<asrwt>0</asrwt>
<pdfrwt beam="1">  1       21 0.38247958E-03 0.12500000E+03</pdfrwt>
<pdfrwt beam="2">  1       21 0.24172695E+00 0.12500000E+03</pdfrwt>
<totfact> 0.12934629E+06</totfact>
</mgrwt>
</event>
<event>
 3    0  0.1467954E+001  0.1250000E+03  0.7546771E-02  0.1235069E+00
         21   -1    0    0  502  501  0.00000000000E+00  0.00000000000E+00  0.69305630311E+01  0.69305630311E+01  0.00000000000E+00 0.  1.
         21   -1    0    0  501  502 -0.00000000000E+00 -0.00000000000E+00 -0.56362664656E+03  0.56362664656E+03  0.00000000000E+00 0.  1.
         25    1    1    2    0    0  0.00000000000E+00  0.00000000000E+00 -0.55669608353E+03  0.57055720959E+03  0.12500000000E+03 0.  0.
<mgrwt>
<rscale>  2 0.12500000E+03</rscale>
<asrwt>0</asrwt>
<pdfrwt beam="1">  1       21 0.10662402E-02 0.12500000E+03</pdfrwt>
<pdfrwt beam="2">  1       21 0.86711814E-01 0.12500000E+03</pdfrwt>
<totfact> 0.38458913E+06</totfact>
</mgrwt>
</event>
<event>
 3    0  0.1685582E+001  0.1250000E+03  0.7546771E-02  0.1235069E+00
         21   -1    0    0  502  501  0.00000000000E+00  0.00000000000E+00  0.22228632656E+02  0.22228632656E+02  0.00000000000E+00 0.  1.
         21   -1    0    0  501  502 -0.00000000000E+00 -0.00000000000E+00 -0.17573055709E+03  0.17573055709E+03  0.00000000000E+00 0.  1.
         25    1    1    2    0    0  0.00000000000E+00  0.00000000000E+00 -0.15350192444E+03  0.19795918975E+03  0.12500000000E+03 0.  0.
<mgrwt>
<rscale>  2 0.12500000E+03</rscale>
<asrwt>0</asrwt>
<pdfrwt beam="1">  1       21 0.34197896E-02 0.12500000E+03</pdfrwt>
<pdfrwt beam="2">  1       21 0.27035471E-01 0.12500000E+03</pdfrwt>
<totfact> 0.65148594E+06</totfact>
</mgrwt>
</event>
<event>
 3    0  0.1474144E+001  0.1250000E+03  0.7546771E-02  0.1235069E+00
         21   -1    0    0  502  501  0.00000000000E+00  0.00000000000E+00  0.84618424766E+01  0.84618424766E+01  0.00000000000E+00 0. -1.
         21   -1    0    0  501  502 -0.00000000000E+00 -0.00000000000E+00 -0.46163114130E+03  0.46163114130E+03  0.00000000000E+00 0. -1.
         25    1    1    2    0    0  0.00000000000E+00  0.00000000000E+00 -0.45316929883E+03  0.47009298378E+03  0.12500000000E+03 0.  0.
<mgrwt>
<rscale>  2 0.12500000E+03</rscale>
<asrwt>0</asrwt>
<pdfrwt beam="1">  1       21 0.13018214E-02 0.12500000E+03</pdfrwt>
<pdfrwt beam="2">  1       21 0.71020204E-01 0.12500000E+03</pdfrwt>
<totfact> 0.43713849E+06</totfact>
</mgrwt>
</event>
<event>
 3    0  0.1708757E+001  0.1250000E+03  0.7546771E-02  0.1235069E+00
         21   -1    0    0  502  501  0.00000000000E+00  0.00000000000E+00  0.75174993766E+02  0.75174993766E+02  0.00000000000E+00 0. -1.
         21   -1    0    0  501  502 -0.00000000000E+00 -0.00000000000E+00 -0.51962092770E+02  0.51962092770E+02  0.00000000000E+00 0. -1.
         25    1    1    2    0    0  0.00000000000E+00  0.00000000000E+00  0.23212900996E+02  0.12713708654E+03  0.12500000000E+03 0.  0.
<mgrwt>
<rscale>  2 0.12500000E+03</rscale>
<asrwt>0</asrwt>
<pdfrwt beam="1">  1       21 0.11565384E-01 0.12500000E+03</pdfrwt>
<pdfrwt beam="2">  1       21 0.79941681E-02 0.12500000E+03</pdfrwt>
<totfact> 0.73750486E+06</totfact>
</mgrwt>
</event>
<event>
 3    0  0.1726858E+001  0.1250000E+03  0.7546771E-02  0.1235069E+00
         21   -1    0    0  502  501  0.00000000000E+00  0.00000000000E+00  0.39183945631E+02  0.39183945631E+02  0.00000000000E+00 0.  1.
         21   -1    0    0  501  502 -0.00000000000E+00 -0.00000000000E+00 -0.99690062782E+02  0.99690062782E+02  0.00000000000E+00 0.  1.
         25    1    1    2    0    0  0.00000000000E+00  0.00000000000E+00 -0.60506117151E+02  0.13887400841E+03  0.12500000000E+03 0.  0.
<mgrwt>
<rscale>  2 0.12500000E+03</rscale>
<asrwt>0</asrwt>
<pdfrwt beam="1">  1       21 0.60282993E-02 0.12500000E+03</pdfrwt>
<pdfrwt beam="2">  1       21 0.15336933E-01 0.12500000E+03</pdfrwt>
<totfact> 0.72186647E+06</totfact>
</mgrwt>
</event>
<event>
 3    0  0.1368989E+001  0.1250000E+03  0.7546771E-02  0.1235069E+00
         21   -1    0    0  502  501  0.00000000000E+00  0.00000000000E+00  0.43713422791E+01  0.43713422791E+01  0.00000000000E+00 0. -1.
         21   -1    0    0  501  502 -0.00000000000E+00 -0.00000000000E+00 -0.89360424113E+03  0.89360424113E+03  0.00000000000E+00 0. -1.
         25    1    1    2    0    0  0.00000000000E+00  0.00000000000E+00 -0.88923289885E+03  0.89797558341E+03  0.12500000000E+03 0.  0.
<mgrwt>
<rscale>  2 0.12500000E+03</rscale>
<asrwt>0</asrwt>
<pdfrwt beam="1">  1       21 0.67251382E-03 0.12500000E+03</pdfrwt>
<pdfrwt beam="2">  1       21 0.13747765E+00 0.12500000E+03</pdfrwt>
<totfact> 0.26357388E+06</totfact>
</mgrwt>
</event>
<event>
 3    0  0.1736449E+001  0.1250000E+03  0.7546771E-02  0.1235069E+00
         21   -1    0    0  502  501  0.00000000000E+00  0.00000000000E+00  0.57221326795E+02  0.57221326795E+02  0.00000000000E+00 0.  1.
         21   -1    0    0  501  502 -0.00000000000E+00 -0.00000000000E+00 -0.68265631343E+02  0.68265631343E+02  0.00000000000E+00 0.  1.
         25    1    1    2    0    0  0.00000000000E+00  0.00000000000E+00 -0.11044304548E+02  0.12548695814E+03  0.12500000000E+03 0.  0.
<mgrwt>
<rscale>  2 0.12500000E+03</rscale>
<asrwt>0</asrwt>
<pdfrwt beam="1">  1       21 0.88032810E-02 0.12500000E+03</pdfrwt>
<pdfrwt beam="2">  1       21 0.10502405E-01 0.12500000E+03</pdfrwt>
<totfact> 0.73977220E+06</totfact>
</mgrwt>
</event>
<event>
 3    0  0.1470686E+001  0.1250000E+03  0.7546771E-02  0.1235069E+00
         21   -1    0    0  502  501  0.00000000000E+00  0.00000000000E+00  0.73477843362E+01  0.73477843362E+01  0.00000000000E+00 0.  1.
         21   -1    0    0  501  502 -0.00000000000E+00 -0.00000000000E+00 -0.53162284320E+03  0.53162284320E+03  0.00000000000E+00 0.  1.
         25    1    1    2    0    0  0.00000000000E+00  0.00000000000E+00 -0.52427505886E+03  0.53897062753E+03  0.12500000000E+03 0.  0.
<mgrwt>
<rscale>  2 0.12500000E+03</rscale>
<asrwt>0</asrwt>
<pdfrwt beam="1">  1       21 0.11304280E-02 0.12500000E+03</pdfrwt>
<pdfrwt beam="2">  1       21 0.81788156E-01 0.12500000E+03</pdfrwt>
<totfact> 0.40006504E+06</totfact>
</mgrwt>
</event>
<event>
 3    0  0.1602317E+001  0.1250000E+03  0.7546771E-02  0.1235069E+00
         21   -1    0    0  502  501  0.00000000000E+00  0.00000000000E+00  0.25960046527E+03  0.25960046527E+03  0.00000000000E+00 0. -1.
         21   -1    0    0  501  502 -0.00000000000E+00 -0.00000000000E+00 -0.15047161013E+02  0.15047161013E+02  0.00000000000E+00 0. -1.
         25    1    1    2    0    0  0.00000000000E+00  0.00000000000E+00  0.24455330425E+03  0.27464762628E+03  0.12500000000E+03 0.  0.
<mgrwt>
<rscale>  2 0.12500000E+03</rscale>
<asrwt>0</asrwt>
<pdfrwt beam="1">  1       21 0.39938530E-01 0.12500000E+03</pdfrwt>
<pdfrwt beam="2">  1       21 0.23149480E-02 0.12500000E+03</pdfrwt>
<totfact> 0.57631135E+06</totfact>
</mgrwt>
</event>
<event>
 3    0  0.1420540E+001  0.1250000E+03  0.7546771E-02  0.1235069E+00
         21   -1    0    0  502  501  0.00000000000E+00  0.00000000000E+00  0.59171706391E+03  0.59171706391E+03  0.00000000000E+00 0.  1.
         21   -1    0    0  501  502 -0.00000000000E+00 -0.00000000000E+00 -0.66015503663E+01  0.66015503663E+01  0.00000000000E+00 0.  1.
         25    1    1    2    0    0  0.00000000000E+00  0.00000000000E+00  0.58511551355E+03  0.59831861428E+03  0.12500000000E+03 0.  0.
<mgrwt>
<rscale>  2 0.12500000E+03</rscale>
<asrwt>0</asrwt>
<pdfrwt beam="1">  1       21 0.91033353E-01 0.12500000E+03</pdfrwt>
<pdfrwt beam="2">  1       21 0.10156236E-02 0.12500000E+03</pdfrwt>
<totfact> 0.37168792E+06</totfact>
</mgrwt>
</event>
<event>
 3    0  0.1661778E+001  0.1250000E+03  0.7546771E-02  0.1235069E+00
         21   -1    0    0  502  501  0.00000000000E+00  0.00000000000E+00  0.22239101339E+02  0.22239101339E+02  0.00000000000E+00 0. -1.
         21   -1    0    0  501  502 -0.00000000000E+00 -0.00000000000E+00 -0.17564783489E+03  0.17564783489E+03  0.00000000000E+00 0. -1.
         25    1    1    2    0    0  0.00000000000E+00  0.00000000000E+00 -0.15340873355E+03  0.19788693622E+03  0.12500000000E+03 0.  0.
<mgrwt>
<rscale>  2 0.12500000E+03</rscale>
<asrwt>0</asrwt>
<pdfrwt beam="1">  1       21 0.34214002E-02 0.12500000E+03</pdfrwt>
<pdfrwt beam="2">  1       21 0.27022744E-01 0.12500000E+03</pdfrwt>
<totfact> 0.65156433E+06</totfact>
</mgrwt>
</event>
<event>
 3    0  0.1673403E+001  0.1250000E+03  0.7546771E-02  0.1235069E+00
         21   -1    0    0  502  501  0.00000000000E+00  0.00000000000E+00  0.18797829377E+03  0.18797829377E+03  0.00000000000E+00 0.  1.
         21   -1    0    0  501  502 -0.00000000000E+00 -0.00000000000E+00 -0.20780324800E+02  0.20780324800E+02  0.00000000000E+00 0.  1.
         25    1    1    2    0    0  0.00000000000E+00  0.00000000000E+00  0.16719796897E+03  0.20875861857E+03  0.12500000000E+03 0.  0.
<mgrwt>
<rscale>  2 0.12500000E+03</rscale>
<asrwt>0</asrwt>
<pdfrwt beam="1">  1       21 0.28919736E-01 0.12500000E+03</pdfrwt>
<pdfrwt beam="2">  1       21 0.31969732E-02 0.12500000E+03</pdfrwt>
<totfact> 0.63990381E+06</totfact>
</mgrwt>
</event>
<event>
 3    0  0.1596240E+001  0.1250000E+03  0.7546771E-02  0.1235069E+00
         21   -1    0    0  502  501  0.00000000000E+00  0.00000000000E+00  0.31470317119E+03  0.31470317119E+03  0.00000000000E+00 0.  1.
         21   -1    0    0  501  502 -0.00000000000E+00 -0.00000000000E+00 -0.12412490110E+02  0.12412490110E+02  0.00000000000E+00 0.  1.
         25    1    1    2    0    0  0.00000000000E+00  0.00000000000E+00  0.30229068107E+03  0.32711566130E+03  0.12500000000E+03 0.  0.
<mgrwt>
<rscale>  2 0.12500000E+03</rscale>
<asrwt>0</asrwt>
<pdfrwt beam="1">  1       21 0.48415866E-01 0.12500000E+03</pdfrwt>
<pdfrwt beam="2">  1       21 0.19096141E-02 0.12500000E+03</pdfrwt>
<totfact> 0.53274239E+06</totfact>
</mgrwt>
</event>
<event>
 3    0  0.1514889E+001  0.1250000E+03  0.7546771E-02  0.1235069E+00
         21   -1    0    0  502  501  0.00000000000E+00  0.00000000000E+00  0.41360660650E+03  0.41360660650E+03  0.00000000000E+00 0. -1.
         21   -1    0    0  501  502 -0.00000000000E+00 -0.00000000000E+00 -0.94443607490E+01  0.94443607490E+01  0.00000000000E+00 0. -1.
         25    1    1    2    0    0  0.00000000000E+00  0.00000000000E+00  0.40416224575E+03  0.42305096725E+03  0.12500000000E+03 0.  0.
<mgrwt>
<rscale>  2 0.12500000E+03</rscale>
<asrwt>0</asrwt>
<pdfrwt beam="1">  1       21 0.63631771E-01 0.12500000E+03</pdfrwt>
<pdfrwt beam="2">  1       21 0.14529789E-02 0.12500000E+03</pdfrwt>
<totfact> 0.46549072E+06</totfact>
</mgrwt>
</event>
<event>
 3    0  0.1598701E+001  0.1250000E+03  0.7546771E-02  0.1235069E+00
         21   -1    0    0  502  501  0.00000000000E+00  0.00000000000E+00  0.24828241947E+03  0.24828241947E+03  0.00000000000E+00 0. -1.
         21   -1    0    0  501  502 -0.00000000000E+00 -0.00000000000E+00 -0.15733091406E+02  0.15733091406E+02  0.00000000000E+00 0. -1.
         25    1    1    2    0    0  0.00000000000E+00  0.00000000000E+00  0.23254932807E+03  0.26401551088E+03  0.12500000000E+03 0.  0.
<mgrwt>
<rscale>  2 0.12500000E+03</rscale>
<asrwt>0</asrwt>
<pdfrwt beam="1">  1       21 0.38197292E-01 0.12500000E+03</pdfrwt>
<pdfrwt beam="2">  1       21 0.24204758E-02 0.12500000E+03</pdfrwt>
<totfact> 0.58583174E+06</totfact>
</mgrwt>
</event>
<event>
 3    0  0.1438775E+001  0.1250000E+03  0.7546771E-02  0.1235069E+00
         21   -1    0    0  502  501  0.00000000000E+00  0.00000000000E+00  0.53929009971E+03  0.53929009971E+03  0.00000000000E+00 0. -1.
         21   -1    0    0  501  502 -0.00000000000E+00 -0.00000000000E+00 -0.72433185814E+01  0.72433185814E+01  0.00000000000E+00 0. -1.
         25    1    1    2    0    0  0.00000000000E+00  0.00000000000E+00  0.53204678113E+03  0.54653341829E+03  0.12500000000E+03 0.  0.
<mgrwt>
<rscale>  2 0.12500000E+03</rscale>
<asrwt>0</asrwt>
<pdfrwt beam="1">  1       21 0.82967676E-01 0.12500000E+03</pdfrwt>
<pdfrwt beam="2">  1       21 0.11143571E-02 0.12500000E+03</pdfrwt>
<totfact> 0.39627913E+06</totfact>
</mgrwt>
</event>
<event>
 3    0  0.1552300E+001  0.1250000E+03  0.7546771E-02  0.1235069E+00
         21   -1    0    0  502  501  0.00000000000E+00  0.00000000000E+00  0.10885853559E+02  0.10885853559E+02  0.00000000000E+00 0. -1.
         21   -1    0    0  501  502 -0.00000000000E+00 -0.00000000000E+00 -0.35883727250E+03  0.35883727250E+03  0.00000000000E+00 0. -1.
         25    1    1    2    0    0  0.00000000000E+00  0.00000000000E+00 -0.34795141894E+03  0.36972312606E+03  0.12500000000E+03 0.  0.
<mgrwt>
<rscale>  2 0.12500000E+03</rscale>
<asrwt>0</asrwt>
<pdfrwt beam="1">  1       21 0.16747466E-02 0.12500000E+03</pdfrwt>
<pdfrwt beam="2">  1       21 0.55205738E-01 0.12500000E+03</pdfrwt>
<totfact> 0.50113997E+06</totfact>
</mgrwt>
</event>
<event>
 3    0  0.1597154E+001  0.1250000E+03  0.7546771E-02  0.1235069E+00
         21   -1    0    0  502  501  0.00000000000E+00  0.00000000000E+00  0.24895029003E+03  0.24895029003E+03  0.00000000000E+00 0. -1.
         21   -1    0    0  501  502 -0.00000000000E+00 -0.00000000000E+00 -0.15690883507E+02  0.15690883507E+02  0.00000000000E+00 0. -1.
         25    1    1    2    0    0  0.00000000000E+00  0.00000000000E+00  0.23325940652E+03  0.26464117354E+03  0.12500000000E+03 0.  0.
<mgrwt>
<rscale>  2 0.12500000E+03</rscale>
<asrwt>0</asrwt>
<pdfrwt beam="1">  1       21 0.38300042E-01 0.12500000E+03</pdfrwt>
<pdfrwt beam="2">  1       21 0.24139823E-02 0.12500000E+03</pdfrwt>
<totfact> 0.58526479E+06</totfact>
</mgrwt>
</event>
<event>
 3    0  0.1636501E+001  0.1250000E+03  0.7546771E-02  0.1235069E+00
         21   -1    0    0  502  501  0.00000000000E+00  0.00000000000E+00  0.19339691791E+03  0.19339691791E+03  0.00000000000E+00 0. -1.
         21   -1    0    0  501  502 -0.00000000000E+00 -0.00000000000E+00 -0.20198098512E+02  0.20198098512E+02  0.00000000000E+00 0. -1.
         25    1    1    2    0    0  0.00000000000E+00  0.00000000000E+00  0.17319881940E+03  0.21359501643E+03  0.12500000000E+03 0.  0.
<mgrwt>
<rscale>  2 0.12500000E+03</rscale>
<asrwt>0</asrwt>
<pdfrwt beam="1">  1       21 0.29753371E-01 0.12500000E+03</pdfrwt>
<pdfrwt beam="2">  1       21 0.31073999E-02 0.12500000E+03</pdfrwt>
<totfact> 0.63483273E+06</totfact>
</mgrwt>
</event>
<event>
 3    0  0.1675820E+001  0.1250000E+03  0.7546771E-02  0.1235069E+00
         21   -1    0    0  502  501  0.00000000000E+00  0.00000000000E+00  0.30114083485E+02  0.30114083485E+02  0.00000000000E+00 0. -1.
         21   -1    0    0  501  502 -0.00000000000E+00 -0.00000000000E+00 -0.12971505515E+03  0.12971505515E+03  0.00000000000E+00 0. -1.
         25    1    1    2    0    0  0.00000000000E+00  0.00000000000E+00 -0.99600971663E+02  0.15982913863E+03  0.12500000000E+03 0.  0.
<mgrwt>
<rscale>  2 0.12500000E+03</rscale>
<asrwt>0</asrwt>
<pdfrwt beam="1">  1       21 0.46329360E-02 0.12500000E+03</pdfrwt>
<pdfrwt beam="2">  1       21 0.19956162E-01 0.12500000E+03</pdfrwt>
<totfact> 0.69540379E+06</totfact>
</mgrwt>
</event>
<event>
 3    0  0.1368989E+001  0.1250000E+03  0.7546771E-02  0.1235069E+00
         21   -1    0    0  502  501  0.00000000000E+00  0.00000000000E+00  0.91301231611E+03  0.91301231611E+03  0.00000000000E+00 0.  1.
         21   -1    0    0  501  502 -0.00000000000E+00 -0.00000000000E+00 -0.42784198319E+01  0.42784198319E+01  0.00000000000E+00 0.  1.
         25    1    1    2    0    0  0.00000000000E+00  0.00000000000E+00  0.90873389628E+03  0.91729073594E+03  0.12500000000E+03 0.  0.
<mgrwt>
<rscale>  2 0.12500000E+03</rscale>
<asrwt>0</asrwt>
<pdfrwt beam="1">  1       21 0.14046328E+00 0.12500000E+03</pdfrwt>
<pdfrwt beam="2">  1       21 0.65821916E-03 0.12500000E+03</pdfrwt>
<totfact> 0.25808057E+06</totfact>
</mgrwt>
</event>
<event>
 3    0  0.1393036E+001  0.1250000E+03  0.7546771E-02  0.1235069E+00
         21   -1    0    0  502  501  0.00000000000E+00  0.00000000000E+00  0.57714908051E+01  0.57714908051E+01  0.00000000000E+00 0. -1.
         21   -1    0    0  501  502 -0.00000000000E+00 -0.00000000000E+00 -0.67681819688E+03  0.67681819688E+03  0.00000000000E+00 0. -1.
         25    1    1    2    0    0  0.00000000000E+00  0.00000000000E+00 -0.67104670608E+03  0.68258968769E+03  0.12500000000E+03 0.  0.
<mgrwt>
<rscale>  2 0.12500000E+03</rscale>
<asrwt>0</asrwt>
<pdfrwt beam="1">  1       21 0.88792190E-03 0.12500000E+03</pdfrwt>
<pdfrwt beam="2">  1       21 0.10412585E+00 0.12500000E+03</pdfrwt>
<totfact> 0.33592247E+06</totfact>
</mgrwt>
</event>
<event>
 3    0  0.1520494E+001  0.1250000E+03  0.7546771E-02  0.1235069E+00
         21   -1    0    0  502  501  0.00000000000E+00  0.00000000000E+00  0.42165445551E+03  0.42165445551E+03  0.00000000000E+00 0.  1.
         21   -1    0    0  501  502 -0.00000000000E+00 -0.00000000000E+00 -0.92641022736E+01  0.92641022736E+01  0.00000000000E+00 0.  1.
         25    1    1    2    0    0  0.00000000000E+00  0.00000000000E+00  0.41239035324E+03  0.43091855779E+03  0.12500000000E+03 0.  0.
<mgrwt>
<rscale>  2 0.12500000E+03</rscale>
<asrwt>0</asrwt>
<pdfrwt beam="1">  1       21 0.64869901E-01 0.12500000E+03</pdfrwt>
<pdfrwt beam="2">  1       21 0.14252468E-02 0.12500000E+03</pdfrwt>
<totfact> 0.46055970E+06</totfact>
</mgrwt>
</event>
<event>
 3    0  0.1704310E+001  0.1250000E+03  0.7546771E-02  0.1235069E+00
         21   -1    0    0  502  501  0.00000000000E+00  0.00000000000E+00  0.40871493709E+02  0.40871493709E+02  0.00000000000E+00 0. -1.
         21   -1    0    0  501  502 -0.00000000000E+00 -0.00000000000E+00 -0.95573947648E+02  0.95573947648E+02  0.00000000000E+00 0. -1.
         25    1    1    2    0    0  0.00000000000E+00  0.00000000000E+00 -0.54702453939E+02  0.13644544136E+03  0.12500000000E+03 0.  0.
<mgrwt>
<rscale>  2 0.12500000E+03</rscale>
<asrwt>0</asrwt>
<pdfrwt beam="1">  1       21 0.62879222E-02 0.12500000E+03</pdfrwt>
<pdfrwt beam="2">  1       21 0.14703684E-01 0.12500000E+03</pdfrwt>
<totfact> 0.72505647E+06</totfact>
</mgrwt>
</event>
<event>
 3    0  0.1709542E+001  0.1250000E+03  0.7546771E-02  0.1235069E+00
         21   -1    0    0  502  501  0.00000000000E+00  0.00000000000E+00  0.29726740542E+02  0.29726740542E+02  0.00000000000E+00 0.  1.
         21   -1    0    0  501  502 -0.00000000000E+00 -0.00000000000E+00 -0.13140525765E+03  0.13140525765E+03  0.00000000000E+00 0.  1.
         25    1    1    2    0    0  0.00000000000E+00  0.00000000000E+00 -0.10167851711E+03  0.16113199819E+03  0.12500000000E+03 0.  0.
<mgrwt>
<rscale>  2 0.12500000E+03</rscale>
<asrwt>0</asrwt>
<pdfrwt beam="1">  1       21 0.45733447E-02 0.12500000E+03</pdfrwt>
<pdfrwt beam="2">  1       21 0.20216193E-01 0.12500000E+03</pdfrwt>
<totfact> 0.69381442E+06</totfact>
</mgrwt>
</event>
<event>
 3    0  0.1689244E+001  0.1250000E+03  0.7546771E-02  0.1235069E+00
         21   -1    0    0  502  501  0.00000000000E+00  0.00000000000E+00  0.12392568204E+03  0.12392568204E+03  0.00000000000E+00 0. -1.
         21   -1    0    0  501  502 -0.00000000000E+00 -0.00000000000E+00 -0.31520907819E+02  0.31520907819E+02  0.00000000000E+00 0. -1.
         25    1    1    2    0    0  0.00000000000E+00  0.00000000000E+00  0.92404774221E+02  0.15544658986E+03  0.12500000000E+03 0.  0.
<mgrwt>
<rscale>  2 0.12500000E+03</rscale>
<asrwt>0</asrwt>
<pdfrwt beam="1">  1       21 0.19065489E-01 0.12500000E+03</pdfrwt>
<pdfrwt beam="2">  1       21 0.48493705E-02 0.12500000E+03</pdfrwt>
<totfact> 0.70080196E+06</totfact>
</mgrwt>
</event>
<event>
 3    0  0.1712095E+001  0.1250000E+03  0.7546771E-02  0.1235069E+00
         21   -1    0    0  502  501  0.00000000000E+00  0.00000000000E+00  0.59003912979E+02  0.59003912979E+02  0.00000000000E+00 0. -1.
         21   -1    0    0  501  502 -0.00000000000E+00 -0.00000000000E+00 -0.66203236409E+02  0.66203236409E+02  0.00000000000E+00 0. -1.
         25    1    1    2    0    0  0.00000000000E+00  0.00000000000E+00 -0.71993234294E+01  0.12520714939E+03  0.12500000000E+03 0.  0.
<mgrwt>
<rscale>  2 0.12500000E+03</rscale>
<asrwt>0</asrwt>
<pdfrwt beam="1">  1       21 0.90775251E-02 0.12500000E+03</pdfrwt>
<pdfrwt beam="2">  1       21 0.10185113E-01 0.12500000E+03</pdfrwt>
<totfact> 0.74015607E+06</totfact>
</mgrwt>
</event>
<event>
 3    0  0.1737251E+001  0.1250000E+03  0.7546771E-02  0.1235069E+00
         21   -1    0    0  502  501  0.00000000000E+00  0.00000000000E+00  0.60390663512E+02  0.60390663512E+02  0.00000000000E+00 0.  1.
         21   -1    0    0  501  502 -0.00000000000E+00 -0.00000000000E+00 -0.64683011790E+02  0.64683011790E+02  0.00000000000E+00 0.  1.
         25    1    1    2    0    0  0.00000000000E+00  0.00000000000E+00 -0.42923482779E+01  0.12507367530E+03  0.12500000000E+03 0.  0.
<mgrwt>
<rscale>  2 0.12500000E+03</rscale>
<asrwt>0</asrwt>
<pdfrwt beam="1">  1       21 0.92908714E-02 0.12500000E+03</pdfrwt>
<pdfrwt beam="2">  1       21 0.99512325E-02 0.12500000E+03</pdfrwt>
<totfact> 0.74033630E+06</totfact>
</mgrwt>
</event>
<event>
 3    0  0.1368989E+001  0.1250000E+03  0.7546771E-02  0.1235069E+00
         21   -1    0    0  502  501  0.00000000000E+00  0.00000000000E+00  0.90400243081E+03  0.90400243081E+03  0.00000000000E+00 0.  1.
         21   -1    0    0  501  502 -0.00000000000E+00 -0.00000000000E+00 -0.43210613898E+01  0.43210613898E+01  0.00000000000E+00 0.  1.
         25    1    1    2    0    0  0.00000000000E+00  0.00000000000E+00  0.89968136942E+03  0.90832349220E+03  0.12500000000E+03 0.  0.
<mgrwt>
<rscale>  2 0.12500000E+03</rscale>
<asrwt>0</asrwt>
<pdfrwt beam="1">  1       21 0.13907715E+00 0.12500000E+03</pdfrwt>
<pdfrwt beam="2">  1       21 0.66477939E-03 0.12500000E+03</pdfrwt>
<totfact> 0.26061227E+06</totfact>
</mgrwt>
</event>
<event>
 3    0  0.1671762E+001  0.1250000E+03  0.7546771E-02  0.1235069E+00
         21   -1    0    0  502  501  0.00000000000E+00  0.00000000000E+00  0.13715274301E+03  0.13715274301E+03  0.00000000000E+00 0. -1.
         21   -1    0    0  501  502 -0.00000000000E+00 -0.00000000000E+00 -0.28481019879E+02  0.28481019879E+02  0.00000000000E+00 0. -1.
         25    1    1    2    0    0  0.00000000000E+00  0.00000000000E+00  0.10867172313E+03  0.16563376289E+03  0.12500000000E+03 0.  0.
<mgrwt>
<rscale>  2 0.12500000E+03</rscale>
<asrwt>0</asrwt>
<pdfrwt beam="1">  1       21 0.21100422E-01 0.12500000E+03</pdfrwt>
<pdfrwt beam="2">  1       21 0.43816954E-02 0.12500000E+03</pdfrwt>
<totfact> 0.68837580E+06</totfact>
</mgrwt>
</event>
<event>
 3    0  0.1710884E+001  0.1250000E+03  0.7546771E-02  0.1235069E+00
         21   -1    0    0  502  501  0.00000000000E+00  0.00000000000E+00  0.56031259597E+02  0.56031259597E+02  0.00000000000E+00 0. -1.
         21   -1    0    0  501  502 -0.00000000000E+00 -0.00000000000E+00 -0.69715548572E+02  0.69715548572E+02  0.00000000000E+00 0. -1.
         25    1    1    2    0    0  0.00000000000E+00  0.00000000000E+00 -0.13684288976E+02  0.12574680817E+03  0.12500000000E+03 0.  0.
<mgrwt>
<rscale>  2 0.12500000E+03</rscale>
<asrwt>0</asrwt>
<pdfrwt beam="1">  1       21 0.86201938E-02 0.12500000E+03</pdfrwt>
<pdfrwt beam="2">  1       21 0.10725469E-01 0.12500000E+03</pdfrwt>
<totfact> 0.73941043E+06</totfact>
</mgrwt>
</event>
<event>
 3    0  0.1368989E+001  0.1250000E+03  0.7546771E-02  0.1235069E+00
         21   -1    0    0  502  501  0.00000000000E+00  0.00000000000E+00  0.35934928761E+01  0.35934928761E+01  0.00000000000E+00 0. -1.
         21   -1    0    0  501  502 -0.00000000000E+00 -0.00000000000E+00 -0.10870342963E+04  0.10870342963E+04  0.00000000000E+00 0. -1.
         25    1    1    2    0    0  0.00000000000E+00  0.00000000000E+00 -0.10834408035E+04  0.10906277892E+04  0.12500000000E+03 0.  0.
<mgrwt>
<rscale>  2 0.12500000E+03</rscale>
<asrwt>0</asrwt>
<pdfrwt beam="1">  1       21 0.55284500E-03 0.12500000E+03</pdfrwt>
<pdfrwt beam="2">  1       21 0.16723606E+00 0.12500000E+03</pdfrwt>
<totfact> 0.21461049E+06</totfact>
</mgrwt>
</event>
<event>
 3    0  0.1695444E+001  0.1250000E+03  0.7546771E-02  0.1235069E+00
         21   -1    0    0  502  501  0.00000000000E+00  0.00000000000E+00  0.36679175898E+02  0.36679175898E+02  0.00000000000E+00 0. -1.
         21   -1    0    0  501  502 -0.00000000000E+00 -0.00000000000E+00 -0.10649775804E+03  0.10649775804E+03  0.00000000000E+00 0. -1.
         25    1    1    2    0    0  0.00000000000E+00  0.00000000000E+00 -0.69818582144E+02  0.14317693394E+03  0.12500000000E+03 0.  0.
<mgrwt>
<rscale>  2 0.12500000E+03</rscale>
<asrwt>0</asrwt>
<pdfrwt beam="1">  1       21 0.56429501E-02 0.12500000E+03</pdfrwt>
<pdfrwt beam="2">  1       21 0.16384271E-01 0.12500000E+03</pdfrwt>
<totfact> 0.71627231E+06</totfact>
</mgrwt>
</event>
<event>
 3    0  0.1368989E+001  0.1250000E+03  0.7546771E-02  0.1235069E+00
         21   -1    0    0  502  501  0.00000000000E+00  0.00000000000E+00  0.42862384587E+01  0.42862384587E+01  0.00000000000E+00 0. -1.
         21   -1    0    0  501  502 -0.00000000000E+00 -0.00000000000E+00 -0.91134686921E+03  0.91134686921E+03  0.00000000000E+00 0. -1.
         25    1    1    2    0    0  0.00000000000E+00  0.00000000000E+00 -0.90706063075E+03  0.91563310767E+03  0.12500000000E+03 0.  0.
<mgrwt>
<rscale>  2 0.12500000E+03</rscale>
<asrwt>0</asrwt>
<pdfrwt beam="1">  1       21 0.65942097E-03 0.12500000E+03</pdfrwt>
<pdfrwt beam="2">  1       21 0.14020728E+00 0.12500000E+03</pdfrwt>
<totfact> 0.25854571E+06</totfact>
</mgrwt>
</event>
<event>
 3    0  0.1368989E+001  0.1250000E+03  0.7546771E-02  0.1235069E+00
         21   -1    0    0  502  501  0.00000000000E+00  0.00000000000E+00  0.34646919977E+01  0.34646919977E+01  0.00000000000E+00 0.  1.
         21   -1    0    0  501  502 -0.00000000000E+00 -0.00000000000E+00 -0.11274450954E+04  0.11274450954E+04  0.00000000000E+00 0.  1.
         25    1    1    2    0    0  0.00000000000E+00  0.00000000000E+00 -0.11239804034E+04  0.11309097874E+04  0.12500000000E+03 0.  0.
<mgrwt>
<rscale>  2 0.12500000E+03</rscale>
<asrwt>0</asrwt>
<pdfrwt beam="1">  1       21 0.53302925E-03 0.12500000E+03</pdfrwt>
<pdfrwt beam="2">  1       21 0.17345318E+00 0.12500000E+03</pdfrwt>
<totfact> 0.20576744E+06</totfact>
</mgrwt>
</event>
<event>
 3    0  0.1694593E+001  0.1250000E+03  0.7546771E-02  0.1235069E+00
         21   -1    0    0  502  501  0.00000000000E+00  0.00000000000E+00  0.34422534856E+02  0.34422534856E+02  0.00000000000E+00 0. -1.
         21   -1    0    0  501  502 -0.00000000000E+00 -0.00000000000E+00 -0.11347944061E+03  0.11347944061E+03  0.00000000000E+00 0. -1.
         25    1    1    2    0    0  0.00000000000E+00  0.00000000000E+00 -0.79056905758E+02  0.14790197547E+03  0.12500000000E+03 0.  0.
<mgrwt>
<rscale>  2 0.12500000E+03</rscale>
<asrwt>0</asrwt>
<pdfrwt beam="1">  1       21 0.52957745E-02 0.12500000E+03</pdfrwt>
<pdfrwt beam="2">  1       21 0.17458376E-01 0.12500000E+03</pdfrwt>
<totfact> 0.71023756E+06</totfact>
</mgrwt>
</event>
<event>
 3    0  0.1603129E+001  0.1250000E+03  0.7546771E-02  0.1235069E+00
         21   -1    0    0  502  501  0.00000000000E+00  0.00000000000E+00  0.14018794106E+02  0.14018794106E+02  0.00000000000E+00 0.  1.
         21   -1    0    0  501  502 -0.00000000000E+00 -0.00000000000E+00 -0.27864379563E+03  0.27864379563E+03  0.00000000000E+00 0.  1.
         25    1    1    2    0    0  0.00000000000E+00  0.00000000000E+00 -0.26462500153E+03  0.29266258974E+03  0.12500000000E+03 0.  0.
<mgrwt>
<rscale>  2 0.12500000E+03</rscale>
<asrwt>0</asrwt>
<pdfrwt beam="1">  1       21 0.21567375E-02 0.12500000E+03</pdfrwt>
<pdfrwt beam="2">  1       21 0.42868278E-01 0.12500000E+03</pdfrwt>
<totfact> 0.56071506E+06</totfact>
</mgrwt>
</event>
<event>
 3    0  0.1707061E+001  0.1250000E+03  0.7546771E-02  0.1235069E+00
         21   -1    0    0  502  501  0.00000000000E+00  0.00000000000E+00  0.12360670105E+03  0.12360670105E+03  0.00000000000E+00 0.  1.
         21   -1    0    0  501  502 -0.00000000000E+00 -0.00000000000E+00 -0.31602251065E+02  0.31602251065E+02  0.00000000000E+00 0.  1.
         25    1    1    2    0    0  0.00000000000E+00  0.00000000000E+00  0.92004449988E+02  0.15520895212E+03  0.12500000000E+03 0.  0.
<mgrwt>
<rscale>  2 0.12500000E+03</rscale>
<asrwt>0</asrwt>
<pdfrwt beam="1">  1       21 0.19016415E-01 0.12500000E+03</pdfrwt>
<pdfrwt beam="2">  1       21 0.48618848E-02 0.12500000E+03</pdfrwt>
<totfact> 0.70109698E+06</totfact>
</mgrwt>
</event>
<event>
 3    0  0.1736953E+001  0.1250000E+03  0.7546771E-02  0.1235069E+00
         21   -1    0    0  502  501  0.00000000000E+00  0.00000000000E+00  0.64762125796E+02  0.64762125796E+02  0.00000000000E+00 0.  1.
         21   -1    0    0  501  502 -0.00000000000E+00 -0.00000000000E+00 -0.60316889725E+02  0.60316889725E+02  0.00000000000E+00 0.  1.
         25    1    1    2    0    0  0.00000000000E+00  0.00000000000E+00  0.44452360711E+01  0.12507901552E+03  0.12500000000E+03 0.  0.
<mgrwt>
<rscale>  2 0.12500000E+03</rscale>
<asrwt>0</asrwt>
<pdfrwt beam="1">  1       21 0.99634041E-02 0.12500000E+03</pdfrwt>
<pdfrwt beam="2">  1       21 0.92795214E-02 0.12500000E+03</pdfrwt>
<totfact> 0.74032909E+06</totfact>
</mgrwt>
</event>
<event>
 3    0  0.1663595E+001  0.1250000E+03  0.7546771E-02  0.1235069E+00
         21   -1    0    0  502  501  0.00000000000E+00  0.00000000000E+00  0.15873471803E+03  0.15873471803E+03  0.00000000000E+00 0. -1.
         21   -1    0    0  501  502 -0.00000000000E+00 -0.00000000000E+00 -0.24608668151E+02  0.24608668151E+02  0.00000000000E+00 0. -1.
         25    1    1    2    0    0  0.00000000000E+00  0.00000000000E+00  0.13412604988E+03  0.18334338618E+03  0.12500000000E+03 0.  0.
<mgrwt>
<rscale>  2 0.12500000E+03</rscale>
<asrwt>0</asrwt>
<pdfrwt beam="1">  1       21 0.24420725E-01 0.12500000E+03</pdfrwt>
<pdfrwt beam="2">  1       21 0.37859491E-02 0.12500000E+03</pdfrwt>
<totfact> 0.66770049E+06</totfact>
</mgrwt>
</event>
<event>
 3    0  0.1580661E+001  0.1250000E+03  0.7546771E-02  0.1235069E+00
         21   -1    0    0  502  501  0.00000000000E+00  0.00000000000E+00  0.12553717390E+02  0.12553717390E+02  0.00000000000E+00 0. -1.
         21   -1    0    0  501  502 -0.00000000000E+00 -0.00000000000E+00 -0.31116281167E+03  0.31116281167E+03  0.00000000000E+00 0. -1.
         25    1    1    2    0    0  0.00000000000E+00  0.00000000000E+00 -0.29860909427E+03  0.32371652906E+03  0.12500000000E+03 0.  0.
<mgrwt>
<rscale>  2 0.12500000E+03</rscale>
<asrwt>0</asrwt>
<pdfrwt beam="1">  1       21 0.19313412E-02 0.12500000E+03</pdfrwt>
<pdfrwt beam="2">  1       21 0.47871200E-01 0.12500000E+03</pdfrwt>
<totfact> 0.53540135E+06</totfact>
</mgrwt>
</event>
<event>
 3    0  0.1404715E+001  0.1250000E+03  0.7546771E-02  0.1235069E+00
         21   -1    0    0  502  501  0.00000000000E+00  0.00000000000E+00  0.62795177469E+03  0.62795177469E+03  0.00000000000E+00 0. -1.
         21   -1    0    0  501  502 -0.00000000000E+00 -0.00000000000E+00 -0.62206210054E+01  0.62206210054E+01  0.00000000000E+00 0. -1.
         25    1    1    2    0    0  0.00000000000E+00  0.00000000000E+00  0.62173115368E+03  0.63417239569E+03  0.12500000000E+03 0.  0.
<mgrwt>
<rscale>  2 0.12500000E+03</rscale>
<asrwt>0</asrwt>
<pdfrwt beam="1">  1       21 0.96607915E-01 0.12500000E+03</pdfrwt>
<pdfrwt beam="2">  1       21 0.95701911E-03 0.12500000E+03</pdfrwt>
<totfact> 0.35591462E+06</totfact>
</mgrwt>
</event>
<event>
 3    0  0.1368989E+001  0.1250000E+03  0.7546771E-02  0.1235069E+00
         21   -1    0    0  502  501  0.00000000000E+00  0.00000000000E+00  0.10292272988E+04  0.10292272988E+04  0.00000000000E+00 0.  1.
         21   -1    0    0  501  502 -0.00000000000E+00 -0.00000000000E+00 -0.37953229616E+01  0.37953229616E+01  0.00000000000E+00 0.  1.
         25    1    1    2    0    0  0.00000000000E+00  0.00000000000E+00  0.10254319759E+04  0.10330226218E+04  0.12500000000E+03 0.  0.
<mgrwt>
<rscale>  2 0.12500000E+03</rscale>
<asrwt>0</asrwt>
<pdfrwt beam="1">  1       21 0.15834244E+00 0.12500000E+03</pdfrwt>
<pdfrwt beam="2">  1       21 0.58389666E-03 0.12500000E+03</pdfrwt>
<totfact> 0.22805609E+06</totfact>
</mgrwt>
</event>
<event>
 3    0  0.1368989E+001  0.1250000E+03  0.7546771E-02  0.1235069E+00
         21   -1    0    0  502  501  0.00000000000E+00  0.00000000000E+00  0.56276745579E+01  0.56276745579E+01  0.00000000000E+00 0. -1.
         21   -1    0    0  501  502 -0.00000000000E+00 -0.00000000000E+00 -0.69411440903E+03  0.69411440903E+03  0.00000000000E+00 0. -1.
         25    1    1    2    0    0  0.00000000000E+00  0.00000000000E+00 -0.68848673448E+03  0.69974208359E+03  0.12500000000E+03 0.  0.
<mgrwt>
<rscale>  2 0.12500000E+03</rscale>
<asrwt>0</asrwt>
<pdfrwt beam="1">  1       21 0.86579586E-03 0.12500000E+03</pdfrwt>
<pdfrwt beam="2">  1       21 0.10678686E+00 0.12500000E+03</pdfrwt>
<totfact> 0.32920078E+06</totfact>
</mgrwt>
</event>
<event>
 3    0  0.1368989E+001  0.1250000E+03  0.7546771E-02  0.1235069E+00
         21   -1    0    0  502  501  0.00000000000E+00  0.00000000000E+00  0.32045831559E+01  0.32045831559E+01  0.00000000000E+00 0.  1.
         21   -1    0    0  501  502 -0.00000000000E+00 -0.00000000000E+00 -0.12189572902E+04  0.12189572902E+04  0.00000000000E+00 0.  1.
         25    1    1    2    0    0  0.00000000000E+00  0.00000000000E+00 -0.12157527071E+04  0.12221618734E+04  0.12500000000E+03 0.  0.
<mgrwt>
<rscale>  2 0.12500000E+03</rscale>
<asrwt>0</asrwt>
<pdfrwt beam="1">  1       21 0.49301195E-03 0.12500000E+03</pdfrwt>
<pdfrwt beam="2">  1       21 0.18753221E+00 0.12500000E+03</pdfrwt>
<totfact> 0.18707215E+06</totfact>
</mgrwt>
</event>
<event>
 3    0  0.1481314E+001  0.1250000E+03  0.7546771E-02  0.1235069E+00
         21   -1    0    0  502  501  0.00000000000E+00  0.00000000000E+00  0.85312257067E+01  0.85312257067E+01  0.00000000000E+00 0. -1.
         21   -1    0    0  501  502 -0.00000000000E+00 -0.00000000000E+00 -0.45787676171E+03  0.45787676171E+03  0.00000000000E+00 0. -1.
         25    1    1    2    0    0  0.00000000000E+00  0.00000000000E+00 -0.44934553600E+03  0.46640798741E+03  0.12500000000E+03 0.  0.
<mgrwt>
<rscale>  2 0.12500000E+03</rscale>
<asrwt>0</asrwt>
<pdfrwt beam="1">  1       21 0.13124964E-02 0.12500000E+03</pdfrwt>
<pdfrwt beam="2">  1       21 0.70442571E-01 0.12500000E+03</pdfrwt>
<totfact> 0.43926459E+06</totfact>
</mgrwt>
</event>
<event>
 3    0  0.1730487E+001  0.1250000E+03  0.7546771E-02  0.1235069E+00
         21   -1    0    0  502  501  0.00000000000E+00  0.00000000000E+00  0.86006570330E+02  0.86006570330E+02  0.00000000000E+00 0.  1.
         21   -1    0    0  501  502 -0.00000000000E+00 -0.00000000000E+00 -0.45418041726E+02  0.45418041726E+02  0.00000000000E+00 0.  1.
         25    1    1    2    0    0  0.00000000000E+00  0.00000000000E+00  0.40588528604E+02  0.13142461206E+03  0.12500000000E+03 0.  0.
<mgrwt>
<rscale>  2 0.12500000E+03</rscale>
<asrwt>0</asrwt>
<pdfrwt beam="1">  1       21 0.13231780E-01 0.12500000E+03</pdfrwt>
<pdfrwt beam="2">  1       21 0.69873911E-02 0.12500000E+03</pdfrwt>
<totfact> 0.73173509E+06</totfact>
</mgrwt>
</event>
<event>
 3    0  0.1502761E+001  0.1250000E+03  0.7546771E-02  0.1235069E+00
         21   -1    0    0  502  501  0.00000000000E+00  0.00000000000E+00  0.45862982222E+03  0.45862982222E+03  0.00000000000E+00 0.  1.
         21   -1    0    0  501  502 -0.00000000000E+00 -0.00000000000E+00 -0.85172176138E+01  0.85172176138E+01  0.00000000000E+00 0.  1.
         25    1    1    2    0    0  0.00000000000E+00  0.00000000000E+00  0.45011260460E+03  0.46714703983E+03  0.12500000000E+03 0.  0.
<mgrwt>
<rscale>  2 0.12500000E+03</rscale>
<asrwt>0</asrwt>
<pdfrwt beam="1">  1       21 0.70558415E-01 0.12500000E+03</pdfrwt>
<pdfrwt beam="2">  1       21 0.13103415E-02 0.12500000E+03</pdfrwt>
<totfact> 0.43883701E+06</totfact>
</mgrwt>
</event>
<event>
 3    0  0.1688102E+001  0.1250000E+03  0.7546771E-02  0.1235069E+00
         21   -1    0    0  502  501  0.00000000000E+00  0.00000000000E+00  0.17447424992E+03  0.17447424992E+03  0.00000000000E+00 0.  1.
         21   -1    0    0  501  502 -0.00000000000E+00 -0.00000000000E+00 -0.22388690605E+02  0.22388690605E+02  0.00000000000E+00 0.  1.
         25    1    1    2    0    0  0.00000000000E+00  0.00000000000E+00  0.15208555932E+03  0.19686294053E+03  0.12500000000E+03 0.  0.
<mgrwt>
<rscale>  2 0.12500000E+03</rscale>
<asrwt>0</asrwt>
<pdfrwt beam="1">  1       21 0.26842191E-01 0.12500000E+03</pdfrwt>
<pdfrwt beam="2">  1       21 0.34444141E-02 0.12500000E+03</pdfrwt>
<totfact> 0.65267705E+06</totfact>
</mgrwt>
</event>
<event>
 3    0  0.1463718E+001  0.1250000E+03  0.7546771E-02  0.1235069E+00
         21   -1    0    0  502  501  0.00000000000E+00  0.00000000000E+00  0.43970688069E+03  0.43970688069E+03  0.00000000000E+00 0. -1.
         21   -1    0    0  501  502 -0.00000000000E+00 -0.00000000000E+00 -0.88837590940E+01  0.88837590940E+01  0.00000000000E+00 0. -1.
         25    1    1    2    0    0  0.00000000000E+00  0.00000000000E+00  0.43082312160E+03  0.44859063978E+03  0.12500000000E+03 0.  0.
<mgrwt>
<rscale>  2 0.12500000E+03</rscale>
<asrwt>0</asrwt>
<pdfrwt beam="1">  1       21 0.67647195E-01 0.12500000E+03</pdfrwt>
<pdfrwt beam="2">  1       21 0.13667325E-02 0.12500000E+03</pdfrwt>
<totfact> 0.44976728E+06</totfact>
</mgrwt>
</event>
<event>
 3    0  0.1688755E+001  0.1250000E+03  0.7546771E-02  0.1235069E+00
         21   -1    0    0  502  501  0.00000000000E+00  0.00000000000E+00  0.35574613605E+02  0.35574613605E+02  0.00000000000E+00 0. -1.
         21   -1    0    0  501  502 -0.00000000000E+00 -0.00000000000E+00 -0.10980442524E+03  0.10980442524E+03  0.00000000000E+00 0. -1.
         25    1    1    2    0    0  0.00000000000E+00  0.00000000000E+00 -0.74229811634E+02  0.14537903884E+03  0.12500000000E+03 0.  0.
<mgrwt>
<rscale>  2 0.12500000E+03</rscale>
<asrwt>0</asrwt>
<pdfrwt beam="1">  1       21 0.54730176E-02 0.12500000E+03</pdfrwt>
<pdfrwt beam="2">  1       21 0.16892988E-01 0.12500000E+03</pdfrwt>
<totfact> 0.71344627E+06</totfact>
</mgrwt>
</event>
<event>
 3    0  0.1617270E+001  0.1250000E+03  0.7546771E-02  0.1235069E+00
         21   -1    0    0  502  501  0.00000000000E+00  0.00000000000E+00  0.16228532486E+02  0.16228532486E+02  0.00000000000E+00 0. -1.
         21   -1    0    0  501  502 -0.00000000000E+00 -0.00000000000E+00 -0.24070260224E+03  0.24070260224E+03  0.00000000000E+00 0. -1.
         25    1    1    2    0    0  0.00000000000E+00  0.00000000000E+00 -0.22447406976E+03  0.25693113473E+03  0.12500000000E+03 0.  0.
<mgrwt>
<rscale>  2 0.12500000E+03</rscale>
<asrwt>0</asrwt>
<pdfrwt beam="1">  1       21 0.24966975E-02 0.12500000E+03</pdfrwt>
<pdfrwt beam="2">  1       21 0.37031166E-01 0.12500000E+03</pdfrwt>
<totfact> 0.59231703E+06</totfact>
</mgrwt>
</event>
<event>
 3    0  0.1662643E+001  0.1250000E+03  0.7546771E-02  0.1235069E+00
         21   -1    0    0  502  501  0.00000000000E+00  0.00000000000E+00  0.17506134110E+03  0.17506134110E+03  0.00000000000E+00 0. -1.
         21   -1    0    0  501  502 -0.00000000000E+00 -0.00000000000E+00 -0.22313607193E+02  0.22313607193E+02  0.00000000000E+00 0. -1.
         25    1    1    2    0    0  0.00000000000E+00  0.00000000000E+00  0.15274773391E+03  0.19737494830E+03  0.12500000000E+03 0.  0.
<mgrwt>
<rscale>  2 0.12500000E+03</rscale>
<asrwt>0</asrwt>
<pdfrwt beam="1">  1       21 0.26932513E-01 0.12500000E+03</pdfrwt>
<pdfrwt beam="2">  1       21 0.34328628E-02 0.12500000E+03</pdfrwt>
<totfact> 0.65212025E+06</totfact>
</mgrwt>
</event>
<event>
 3    0  0.1636738E+001  0.1250000E+03  0.7546771E-02  0.1235069E+00
         21   -1    0    0  502  501  0.00000000000E+00  0.00000000000E+00  0.21182321110E+03  0.21182321110E+03  0.00000000000E+00 0. -1.
         21   -1    0    0  501  502 -0.00000000000E+00 -0.00000000000E+00 -0.18441085751E+02  0.18441085751E+02  0.00000000000E+00 0. -1.
         25    1    1    2    0    0  0.00000000000E+00  0.00000000000E+00  0.19338212535E+03  0.23026429685E+03  0.12500000000E+03 0.  0.
<mgrwt>
<rscale>  2 0.12500000E+03</rscale>
<asrwt>0</asrwt>
<pdfrwt beam="1">  1       21 0.32588185E-01 0.12500000E+03</pdfrwt>
<pdfrwt beam="2">  1       21 0.28370903E-02 0.12500000E+03</pdfrwt>
<totfact> 0.61787688E+06</totfact>
</mgrwt>
</event>
<event>
 3    0  0.1641624E+001  0.1250000E+03  0.7546771E-02  0.1235069E+00
         21   -1    0    0  502  501  0.00000000000E+00  0.00000000000E+00  0.15437587811E+02  0.15437587811E+02  0.00000000000E+00 0.  1.
         21   -1    0    0  501  502 -0.00000000000E+00 -0.00000000000E+00 -0.25303499794E+03  0.25303499794E+03  0.00000000000E+00 0.  1.
         25    1    1    2    0    0  0.00000000000E+00  0.00000000000E+00 -0.23759741012E+03  0.26847258575E+03  0.12500000000E+03 0.  0.
<mgrwt>
<rscale>  2 0.12500000E+03</rscale>
<asrwt>0</asrwt>
<pdfrwt beam="1">  1       21 0.23750135E-02 0.12500000E+03</pdfrwt>
<pdfrwt beam="2">  1       21 0.38928461E-01 0.12500000E+03</pdfrwt>
<totfact> 0.58181310E+06</totfact>
</mgrwt>
</event>
<event>
 3    0  0.1736132E+001  0.1250000E+03  0.7546771E-02  0.1235069E+00
         21   -1    0    0  502  501  0.00000000000E+00  0.00000000000E+00  0.67269032733E+02  0.67269032733E+02  0.00000000000E+00 0.  1.
         21   -1    0    0  501  502 -0.00000000000E+00 -0.00000000000E+00 -0.58069067464E+02  0.58069067464E+02  0.00000000000E+00 0.  1.
         25    1    1    2    0    0  0.00000000000E+00  0.00000000000E+00  0.91999652696E+01  0.12533810020E+03  0.12500000000E+03 0.  0.
<mgrwt>
<rscale>  2 0.12500000E+03</rscale>
<asrwt>0</asrwt>
<pdfrwt beam="1">  1       21 0.10349082E-01 0.12500000E+03</pdfrwt>
<pdfrwt beam="2">  1       21 0.89337027E-02 0.12500000E+03</pdfrwt>
<totfact> 0.73997929E+06</totfact>
</mgrwt>
</event>
<event>
 3    0  0.1480340E+001  0.1250000E+03  0.7546771E-02  0.1235069E+00
         21   -1    0    0  502  501  0.00000000000E+00  0.00000000000E+00  0.49152791150E+03  0.49152791150E+03  0.00000000000E+00 0.  1.
         21   -1    0    0  501  502 -0.00000000000E+00 -0.00000000000E+00 -0.79471580527E+01  0.79471580527E+01  0.00000000000E+00 0.  1.
         25    1    1    2    0    0  0.00000000000E+00  0.00000000000E+00  0.48358075345E+03  0.49947506955E+03  0.12500000000E+03 0.  0.
<mgrwt>
<rscale>  2 0.12500000E+03</rscale>
<asrwt>0</asrwt>
<pdfrwt beam="1">  1       21 0.75619655E-01 0.12500000E+03</pdfrwt>
<pdfrwt beam="2">  1       21 0.12226401E-02 0.12500000E+03</pdfrwt>
<totfact> 0.42072561E+06</totfact>
</mgrwt>
</event>
<event>
 3    0  0.1710010E+001  0.1250000E+03  0.7546771E-02  0.1235069E+00
         21   -1    0    0  502  501  0.00000000000E+00  0.00000000000E+00  0.77339433078E+02  0.77339433078E+02  0.00000000000E+00 0. -1.
         21   -1    0    0  501  502 -0.00000000000E+00 -0.00000000000E+00 -0.50507869589E+02  0.50507869589E+02  0.00000000000E+00 0. -1.
         25    1    1    2    0    0  0.00000000000E+00  0.00000000000E+00  0.26831563489E+02  0.12784730267E+03  0.12500000000E+03 0.  0.
<mgrwt>
<rscale>  2 0.12500000E+03</rscale>
<asrwt>0</asrwt>
<pdfrwt beam="1">  1       21 0.11898374E-01 0.12500000E+03</pdfrwt>
<pdfrwt beam="2">  1       21 0.77704415E-02 0.12500000E+03</pdfrwt>
<totfact> 0.73654197E+06</totfact>
</mgrwt>
</event>
<event>
 3    0  0.1644133E+001  0.1250000E+03  0.7546771E-02  0.1235069E+00
         21   -1    0    0  502  501  0.00000000000E+00  0.00000000000E+00  0.18677037800E+02  0.18677037800E+02  0.00000000000E+00 0. -1.
         21   -1    0    0  501  502 -0.00000000000E+00 -0.00000000000E+00 -0.20914719142E+03  0.20914719142E+03  0.00000000000E+00 0. -1.
         25    1    1    2    0    0  0.00000000000E+00  0.00000000000E+00 -0.19047015362E+03  0.22782422922E+03  0.12500000000E+03 0.  0.
<mgrwt>
<rscale>  2 0.12500000E+03</rscale>
<asrwt>0</asrwt>
<pdfrwt beam="1">  1       21 0.28733902E-02 0.12500000E+03</pdfrwt>
<pdfrwt beam="2">  1       21 0.32176494E-01 0.12500000E+03</pdfrwt>
<totfact> 0.62031173E+06</totfact>
</mgrwt>
</event>
<event>
 3    0  0.1576224E+001  0.1250000E+03  0.7546771E-02  0.1235069E+00
         21   -1    0    0  502  501  0.00000000000E+00  0.00000000000E+00  0.30531620416E+03  0.30531620416E+03  0.00000000000E+00 0.  1.
         21   -1    0    0  501  502 -0.00000000000E+00 -0.00000000000E+00 -0.12794112945E+02  0.12794112945E+02  0.00000000000E+00 0.  1.
         25    1    1    2    0    0  0.00000000000E+00  0.00000000000E+00  0.29252209122E+03  0.31811031711E+03  0.12500000000E+03 0.  0.
<mgrwt>
<rscale>  2 0.12500000E+03</rscale>
<asrwt>0</asrwt>
<pdfrwt beam="1">  1       21 0.46971718E-01 0.12500000E+03</pdfrwt>
<pdfrwt beam="2">  1       21 0.19683253E-02 0.12500000E+03</pdfrwt>
<totfact> 0.53983433E+06</totfact>
</mgrwt>
</event>
<event>
 3    0  0.1694171E+001  0.1250000E+03  0.7546771E-02  0.1235069E+00
         21   -1    0    0  502  501  0.00000000000E+00  0.00000000000E+00  0.25048503098E+02  0.25048503098E+02  0.00000000000E+00 0.  1.
         21   -1    0    0  501  502 -0.00000000000E+00 -0.00000000000E+00 -0.15594744264E+03  0.15594744264E+03  0.00000000000E+00 0.  1.
         25    1    1    2    0    0  0.00000000000E+00  0.00000000000E+00 -0.13089893954E+03  0.18099594574E+03  0.12500000000E+03 0.  0.
<mgrwt>
<rscale>  2 0.12500000E+03</rscale>
<asrwt>0</asrwt>
<pdfrwt beam="1">  1       21 0.38536158E-02 0.12500000E+03</pdfrwt>
<pdfrwt beam="2">  1       21 0.23991914E-01 0.12500000E+03</pdfrwt>
<totfact> 0.67037468E+06</totfact>
</mgrwt>
</event>
<event>
 3    0  0.1650257E+001  0.1250000E+03  0.7546771E-02  0.1235069E+00
         21   -1    0    0  502  501  0.00000000000E+00  0.00000000000E+00  0.16432423908E+03  0.16432423908E+03  0.00000000000E+00 0. -1.
         21   -1    0    0  501  502 -0.00000000000E+00 -0.00000000000E+00 -0.23771599503E+02  0.23771599503E+02  0.00000000000E+00 0. -1.
         25    1    1    2    0    0  0.00000000000E+00  0.00000000000E+00  0.14055263957E+03  0.18809583858E+03  0.12500000000E+03 0.  0.
<mgrwt>
<rscale>  2 0.12500000E+03</rscale>
<asrwt>0</asrwt>
<pdfrwt beam="1">  1       21 0.25280651E-01 0.12500000E+03</pdfrwt>
<pdfrwt beam="2">  1       21 0.36571693E-02 0.12500000E+03</pdfrwt>
<totfact> 0.66234722E+06</totfact>
</mgrwt>
</event>
<event>
 3    0  0.1412859E+001  0.1250000E+03  0.7546771E-02  0.1235069E+00
         21   -1    0    0  502  501  0.00000000000E+00  0.00000000000E+00  0.63517251505E+03  0.63517251505E+03  0.00000000000E+00 0.  1.
         21   -1    0    0  501  502 -0.00000000000E+00 -0.00000000000E+00 -0.61499040141E+01  0.61499040141E+01  0.00000000000E+00 0.  1.
         25    1    1    2    0    0  0.00000000000E+00  0.00000000000E+00  0.62902261104E+03  0.64132241907E+03  0.12500000000E+03 0.  0.
<mgrwt>
<rscale>  2 0.12500000E+03</rscale>
<asrwt>0</asrwt>
<pdfrwt beam="1">  1       21 0.97718797E-01 0.12500000E+03</pdfrwt>
<pdfrwt beam="2">  1       21 0.94613958E-03 0.12500000E+03</pdfrwt>
<totfact> 0.35288036E+06</totfact>
</mgrwt>
</event>
<event>
 3    0  0.1550380E+001  0.1250000E+03  0.7546771E-02  0.1235069E+00
         21   -1    0    0  502  501  0.00000000000E+00  0.00000000000E+00  0.10858428792E+02  0.10858428792E+02  0.00000000000E+00 0. -1.
         21   -1    0    0  501  502 -0.00000000000E+00 -0.00000000000E+00 -0.35974357568E+03  0.35974357568E+03  0.00000000000E+00 0. -1.
         25    1    1    2    0    0  0.00000000000E+00  0.00000000000E+00 -0.34888514689E+03  0.37060200447E+03  0.12500000000E+03 0.  0.
<mgrwt>
<rscale>  2 0.12500000E+03</rscale>
<asrwt>0</asrwt>
<pdfrwt beam="1">  1       21 0.16705279E-02 0.12500000E+03</pdfrwt>
<pdfrwt beam="2">  1       21 0.55345152E-01 0.12500000E+03</pdfrwt>
<totfact> 0.50051990E+06</totfact>
</mgrwt>
</event>
<event>
 3    0  0.1632449E+001  0.1250000E+03  0.7546771E-02  0.1235069E+00
         21   -1    0    0  502  501  0.00000000000E+00  0.00000000000E+00  0.15204705671E+02  0.15204705671E+02  0.00000000000E+00 0.  1.
         21   -1    0    0  501  502 -0.00000000000E+00 -0.00000000000E+00 -0.25691059627E+03  0.25691059627E+03  0.00000000000E+00 0.  1.
         25    1    1    2    0    0  0.00000000000E+00  0.00000000000E+00 -0.24170589060E+03  0.27211530194E+03  0.12500000000E+03 0.  0.
<mgrwt>
<rscale>  2 0.12500000E+03</rscale>
<asrwt>0</asrwt>
<pdfrwt beam="1">  1       21 0.23391855E-02 0.12500000E+03</pdfrwt>
<pdfrwt beam="2">  1       21 0.39524706E-01 0.12500000E+03</pdfrwt>
<totfact> 0.57856141E+06</totfact>
</mgrwt>
</event>
<event>
 3    0  0.1712203E+001  0.1250000E+03  0.7546771E-02  0.1235069E+00
         21   -1    0    0  502  501  0.00000000000E+00  0.00000000000E+00  0.64161896004E+02  0.64161896004E+02  0.00000000000E+00 0. -1.
         21   -1    0    0  501  502 -0.00000000000E+00 -0.00000000000E+00 -0.60881149768E+02  0.60881149768E+02  0.00000000000E+00 0. -1.
         25    1    1    2    0    0  0.00000000000E+00  0.00000000000E+00  0.32807462359E+01  0.12504304577E+03  0.12500000000E+03 0.  0.
<mgrwt>
<rscale>  2 0.12500000E+03</rscale>
<asrwt>0</asrwt>
<pdfrwt beam="1">  1       21 0.98710609E-02 0.12500000E+03</pdfrwt>
<pdfrwt beam="2">  1       21 0.93663307E-02 0.12500000E+03</pdfrwt>
<totfact> 0.74037767E+06</totfact>
</mgrwt>
</event>
<event>
 3    0  0.1641278E+001  0.1250000E+03  0.7546771E-02  0.1235069E+00
         21   -1    0    0  502  501  0.00000000000E+00  0.00000000000E+00  0.20993845359E+03  0.20993845359E+03  0.00000000000E+00 0. -1.
         21   -1    0    0  501  502 -0.00000000000E+00 -0.00000000000E+00 -0.18606643677E+02  0.18606643677E+02  0.00000000000E+00 0. -1.
         25    1    1    2    0    0  0.00000000000E+00  0.00000000000E+00  0.19133180991E+03  0.22854509727E+03  0.12500000000E+03 0.  0.
<mgrwt>
<rscale>  2 0.12500000E+03</rscale>
<asrwt>0</asrwt>
<pdfrwt beam="1">  1       21 0.32298222E-01 0.12500000E+03</pdfrwt>
<pdfrwt beam="2">  1       21 0.28625607E-02 0.12500000E+03</pdfrwt>
<totfact> 0.61959067E+06</totfact>
</mgrwt>
</event>
<event>
 3    0  0.1712257E+001  0.1250000E+03  0.7546771E-02  0.1235069E+00
         21   -1    0    0  502  501  0.00000000000E+00  0.00000000000E+00  0.63781415095E+02  0.63781415095E+02  0.00000000000E+00 0. -1.
         21   -1    0    0  501  502 -0.00000000000E+00 -0.00000000000E+00 -0.61244329468E+02  0.61244329468E+02  0.00000000000E+00 0. -1.
         25    1    1    2    0    0  0.00000000000E+00  0.00000000000E+00  0.25370856274E+01  0.12502574456E+03  0.12500000000E+03 0.  0.
<mgrwt>
<rscale>  2 0.12500000E+03</rscale>
<asrwt>0</asrwt>
<pdfrwt beam="1">  1       21 0.98125254E-02 0.12500000E+03</pdfrwt>
<pdfrwt beam="2">  1       21 0.94222045E-02 0.12500000E+03</pdfrwt>
<totfact> 0.74040104E+06</totfact>
</mgrwt>
</event>
<event>
 3    0  0.1368989E+001  0.1250000E+03  0.7546771E-02  0.1235069E+00
         21   -1    0    0  502  501  0.00000000000E+00  0.00000000000E+00  0.96268198841E+03  0.96268198841E+03  0.00000000000E+00 0.  1.
         21   -1    0    0  501  502 -0.00000000000E+00 -0.00000000000E+00 -0.40576743380E+01  0.40576743380E+01  0.00000000000E+00 0.  1.
         25    1    1    2    0    0  0.00000000000E+00  0.00000000000E+00  0.95862431407E+03  0.96673966275E+03  0.12500000000E+03 0.  0.
<mgrwt>
<rscale>  2 0.12500000E+03</rscale>
<asrwt>0</asrwt>
<pdfrwt beam="1">  1       21 0.14810474E+00 0.12500000E+03</pdfrwt>
<pdfrwt beam="2">  1       21 0.62425836E-03 0.12500000E+03</pdfrwt>
<totfact> 0.24468546E+06</totfact>
</mgrwt>
</event>
<event>
 3    0  0.1543632E+001  0.1250000E+03  0.7546771E-02  0.1235069E+00
         21   -1    0    0  502  501  0.00000000000E+00  0.00000000000E+00  0.37912191735E+03  0.37912191735E+03  0.00000000000E+00 0. -1.
         21   -1    0    0  501  502 -0.00000000000E+00 -0.00000000000E+00 -0.10303413813E+02  0.10303413813E+02  0.00000000000E+00 0. -1.
         25    1    1    2    0    0  0.00000000000E+00  0.00000000000E+00  0.36881850354E+03  0.38942533117E+03  0.12500000000E+03 0.  0.
<mgrwt>
<rscale>  2 0.12500000E+03</rscale>
<asrwt>0</asrwt>
<pdfrwt beam="1">  1       21 0.58326438E-01 0.12500000E+03</pdfrwt>
<pdfrwt beam="2">  1       21 0.15851409E-02 0.12500000E+03</pdfrwt>
<totfact> 0.48750762E+06</totfact>
</mgrwt>
</event>
<event>
 3    0  0.1368989E+001  0.1250000E+03  0.7546771E-02  0.1235069E+00
         21   -1    0    0  502  501  0.00000000000E+00  0.00000000000E+00  0.33290978504E+01  0.33290978504E+01  0.00000000000E+00 0. -1.
         21   -1    0    0  501  502 -0.00000000000E+00 -0.00000000000E+00 -0.11733659314E+04  0.11733659314E+04  0.00000000000E+00 0. -1.
         25    1    1    2    0    0  0.00000000000E+00  0.00000000000E+00 -0.11700368335E+04  0.11766950292E+04  0.12500000000E+03 0.  0.
<mgrwt>
<rscale>  2 0.12500000E+03</rscale>
<asrwt>0</asrwt>
<pdfrwt beam="1">  1       21 0.51216808E-03 0.12500000E+03</pdfrwt>
<pdfrwt beam="2">  1       21 0.18051812E+00 0.12500000E+03</pdfrwt>
<totfact> 0.19614049E+06</totfact>
</mgrwt>
</event>
<event>
 3    0  0.1554688E+001  0.1250000E+03  0.7546771E-02  0.1235069E+00
         21   -1    0    0  502  501  0.00000000000E+00  0.00000000000E+00  0.10136486419E+02  0.10136486419E+02  0.00000000000E+00 0.  1.
         21   -1    0    0  501  502 -0.00000000000E+00 -0.00000000000E+00 -0.38536528720E+03  0.38536528720E+03  0.00000000000E+00 0.  1.
         25    1    1    2    0    0  0.00000000000E+00  0.00000000000E+00 -0.37522880078E+03  0.39550177362E+03  0.12500000000E+03 0.  0.
<mgrwt>
<rscale>  2 0.12500000E+03</rscale>
<asrwt>0</asrwt>
<pdfrwt beam="1">  1       21 0.15594593E-02 0.12500000E+03</pdfrwt>
<pdfrwt beam="2">  1       21 0.59286972E-01 0.12500000E+03</pdfrwt>
<totfact> 0.48341149E+06</totfact>
</mgrwt>
</event>
<event>
 3    0  0.1437388E+001  0.1250000E+03  0.7546771E-02  0.1235069E+00
         21   -1    0    0  502  501  0.00000000000E+00  0.00000000000E+00  0.51486917841E+03  0.51486917841E+03  0.00000000000E+00 0.  1.
         21   -1    0    0  501  502 -0.00000000000E+00 -0.00000000000E+00 -0.75868786943E+01  0.75868786943E+01  0.00000000000E+00 0.  1.
         25    1    1    2    0    0  0.00000000000E+00  0.00000000000E+00  0.50728229971E+03  0.52245605710E+03  0.12500000000E+03 0.  0.
<mgrwt>
<rscale>  2 0.12500000E+03</rscale>
<asrwt>0</asrwt>
<pdfrwt beam="1">  1       21 0.79210615E-01 0.12500000E+03</pdfrwt>
<pdfrwt beam="2">  1       21 0.11672125E-02 0.12500000E+03</pdfrwt>
<totfact> 0.40851848E+06</totfact>
</mgrwt>
</event>
<event>
 3    0  0.1716473E+001  0.1250000E+03  0.7546771E-02  0.1235069E+00
         21   -1    0    0  502  501  0.00000000000E+00  0.00000000000E+00  0.34057931418E+02  0.34057931418E+02  0.00000000000E+00 0.  1.
         21   -1    0    0  501  502 -0.00000000000E+00 -0.00000000000E+00 -0.11469428228E+03  0.11469428228E+03  0.00000000000E+00 0.  1.
         25    1    1    2    0    0  0.00000000000E+00  0.00000000000E+00 -0.80636350863E+02  0.14875221370E+03  0.12500000000E+03 0.  0.
<mgrwt>
<rscale>  2 0.12500000E+03</rscale>
<asrwt>0</asrwt>
<pdfrwt beam="1">  1       21 0.52396817E-02 0.12500000E+03</pdfrwt>
<pdfrwt beam="2">  1       21 0.17645274E-01 0.12500000E+03</pdfrwt>
<totfact> 0.70916299E+06</totfact>
</mgrwt>
</event>
<event>
 3    0  0.1663995E+001  0.1250000E+03  0.7546771E-02  0.1235069E+00
         21   -1    0    0  502  501  0.00000000000E+00  0.00000000000E+00  0.18536222689E+02  0.18536222689E+02  0.00000000000E+00 0.  1.
         21   -1    0    0  501  502 -0.00000000000E+00 -0.00000000000E+00 -0.21073603104E+03  0.21073603104E+03  0.00000000000E+00 0.  1.
         25    1    1    2    0    0  0.00000000000E+00  0.00000000000E+00 -0.19219980835E+03  0.22927225373E+03  0.12500000000E+03 0.  0.
<mgrwt>
<rscale>  2 0.12500000E+03</rscale>
<asrwt>0</asrwt>
<pdfrwt beam="1">  1       21 0.28517267E-02 0.12500000E+03</pdfrwt>
<pdfrwt beam="2">  1       21 0.32420927E-01 0.12500000E+03</pdfrwt>
<totfact> 0.61886478E+06</totfact>
</mgrwt>
</event>
<event>
 3    0  0.1368989E+001  0.1250000E+03  0.7546771E-02  0.1235069E+00
         21   -1    0    0  502  501  0.00000000000E+00  0.00000000000E+00  0.16040979100E+04  0.16040979100E+04  0.00000000000E+00 0.  1.
         21   -1    0    0  501  502 -0.00000000000E+00 -0.00000000000E+00 -0.24351693095E+01  0.24351693095E+01  0.00000000000E+00 0.  1.
         25    1    1    2    0    0  0.00000000000E+00  0.00000000000E+00  0.16016627407E+04  0.16065330793E+04  0.12500000000E+03 0.  0.
<mgrwt>
<rscale>  2 0.12500000E+03</rscale>
<asrwt>0</asrwt>
<pdfrwt beam="1">  1       21 0.24678345E+00 0.12500000E+03</pdfrwt>
<pdfrwt beam="2">  1       21 0.37464271E-03 0.12500000E+03</pdfrwt>
<totfact> 0.12485384E+06</totfact>
</mgrwt>
</event>
<event>
 3    0  0.1368989E+001  0.1250000E+03  0.7546771E-02  0.1235069E+00
         21   -1    0    0  502  501  0.00000000000E+00  0.00000000000E+00  0.66516720152E+03  0.66516720152E+03  0.00000000000E+00 0.  1.
         21   -1    0    0  501  502 -0.00000000000E+00 -0.00000000000E+00 -0.58725836016E+01  0.58725836016E+01  0.00000000000E+00 0.  1.
         25    1    1    2    0    0  0.00000000000E+00  0.00000000000E+00  0.65929461792E+03  0.67103978512E+03  0.12500000000E+03 0.  0.
<mgrwt>
<rscale>  2 0.12500000E+03</rscale>
<asrwt>0</asrwt>
<pdfrwt beam="1">  1       21 0.10233336E+00 0.12500000E+03</pdfrwt>
<pdfrwt beam="2">  1       21 0.90347493E-03 0.12500000E+03</pdfrwt>
<totfact> 0.34056835E+06</totfact>
</mgrwt>
</event>
<event>
 3    0  0.1629309E+001  0.1250000E+03  0.7546771E-02  0.1235069E+00
         21   -1    0    0  502  501  0.00000000000E+00  0.00000000000E+00  0.23292688461E+03  0.23292688461E+03  0.00000000000E+00 0.  1.
         21   -1    0    0  501  502 -0.00000000000E+00 -0.00000000000E+00 -0.16770283973E+02  0.16770283973E+02  0.00000000000E+00 0.  1.
         25    1    1    2    0    0  0.00000000000E+00  0.00000000000E+00  0.21615660064E+03  0.24969716859E+03  0.12500000000E+03 0.  0.
<mgrwt>
<rscale>  2 0.12500000E+03</rscale>
<asrwt>0</asrwt>
<pdfrwt beam="1">  1       21 0.35834903E-01 0.12500000E+03</pdfrwt>
<pdfrwt beam="2">  1       21 0.25800439E-02 0.12500000E+03</pdfrwt>
<totfact> 0.59906713E+06</totfact>
</mgrwt>
</event>
<event>
 3    0  0.1710739E+001  0.1250000E+03  0.7546771E-02  0.1235069E+00
         21   -1    0    0  502  501  0.00000000000E+00  0.00000000000E+00  0.76659239724E+02  0.76659239724E+02  0.00000000000E+00 0. -1.
         21   -1    0    0  501  502 -0.00000000000E+00 -0.00000000000E+00 -0.50956023228E+02  0.50956023228E+02  0.00000000000E+00 0. -1.
         25    1    1    2    0    0  0.00000000000E+00  0.00000000000E+00  0.25703216496E+02  0.12761526295E+03  0.12500000000E+03 0.  0.
<mgrwt>
<rscale>  2 0.12500000E+03</rscale>
<asrwt>0</asrwt>
<pdfrwt beam="1">  1       21 0.11793729E-01 0.12500000E+03</pdfrwt>
<pdfrwt beam="2">  1       21 0.78393882E-02 0.12500000E+03</pdfrwt>
<totfact> 0.73685600E+06</totfact>
</mgrwt>
</event>
<event>
 3    0  0.1670318E+001  0.1250000E+03  0.7546771E-02  0.1235069E+00
         21   -1    0    0  502  501  0.00000000000E+00  0.00000000000E+00  0.14987706728E+03  0.14987706728E+03  0.00000000000E+00 0. -1.
         21   -1    0    0  501  502 -0.00000000000E+00 -0.00000000000E+00 -0.26063026659E+02  0.26063026659E+02  0.00000000000E+00 0. -1.
         25    1    1    2    0    0  0.00000000000E+00  0.00000000000E+00  0.12381404062E+03  0.17594009393E+03  0.12500000000E+03 0.  0.
<mgrwt>
<rscale>  2 0.12500000E+03</rscale>
<asrwt>0</asrwt>
<pdfrwt beam="1">  1       21 0.23058010E-01 0.12500000E+03</pdfrwt>
<pdfrwt beam="2">  1       21 0.40096965E-02 0.12500000E+03</pdfrwt>
<totfact> 0.67620356E+06</totfact>
</mgrwt>
</event>
<event>
 3    0  0.1572187E+001  0.1250000E+03  0.7546771E-02  0.1235069E+00
         21   -1    0    0  502  501  0.00000000000E+00  0.00000000000E+00  0.11633887735E+02  0.11633887735E+02  0.00000000000E+00 0.  1.
         21   -1    0    0  501  502 -0.00000000000E+00 -0.00000000000E+00 -0.33576480098E+03  0.33576480098E+03  0.00000000000E+00 0.  1.
         25    1    1    2    0    0  0.00000000000E+00  0.00000000000E+00 -0.32413091324E+03  0.34739868871E+03  0.12500000000E+03 0.  0.
<mgrwt>
<rscale>  2 0.12500000E+03</rscale>
<asrwt>0</asrwt>
<pdfrwt beam="1">  1       21 0.17898289E-02 0.12500000E+03</pdfrwt>
<pdfrwt beam="2">  1       21 0.51656122E-01 0.12500000E+03</pdfrwt>
<totfact> 0.51731121E+06</totfact>
</mgrwt>
</event>
<event>
 3    0  0.1659250E+001  0.1250000E+03  0.7546771E-02  0.1235069E+00
         21   -1    0    0  502  501  0.00000000000E+00  0.00000000000E+00  0.18366841497E+02  0.18366841497E+02  0.00000000000E+00 0.  1.
         21   -1    0    0  501  502 -0.00000000000E+00 -0.00000000000E+00 -0.21267946374E+03  0.21267946374E+03  0.00000000000E+00 0.  1.
         25    1    1    2    0    0  0.00000000000E+00  0.00000000000E+00 -0.19431262224E+03  0.23104630523E+03  0.12500000000E+03 0.  0.
<mgrwt>
<rscale>  2 0.12500000E+03</rscale>
<asrwt>0</asrwt>
<pdfrwt beam="1">  1       21 0.28256679E-02 0.12500000E+03</pdfrwt>
<pdfrwt beam="2">  1       21 0.32719918E-01 0.12500000E+03</pdfrwt>
<totfact> 0.61710007E+06</totfact>
</mgrwt>
</event>
<event>
 3    0  0.1610940E+001  0.1250000E+03  0.7546771E-02  0.1235069E+00
         21   -1    0    0  502  501  0.00000000000E+00  0.00000000000E+00  0.16048713818E+02  0.16048713818E+02  0.00000000000E+00 0. -1.
         21   -1    0    0  501  502 -0.00000000000E+00 -0.00000000000E+00 -0.24339956737E+03  0.24339956737E+03  0.00000000000E+00 0. -1.
         25    1    1    2    0    0  0.00000000000E+00  0.00000000000E+00 -0.22735085355E+03  0.25944828119E+03  0.12500000000E+03 0.  0.
<mgrwt>
<rscale>  2 0.12500000E+03</rscale>
<asrwt>0</asrwt>
<pdfrwt beam="1">  1       21 0.24690326E-02 0.12500000E+03</pdfrwt>
<pdfrwt beam="2">  1       21 0.37446092E-01 0.12500000E+03</pdfrwt>
<totfact> 0.58999874E+06</totfact>
</mgrwt>
</event>
<event>
 3    0  0.1368989E+001  0.1250000E+03  0.7546771E-02  0.1235069E+00
         21   -1    0    0  502  501  0.00000000000E+00  0.00000000000E+00  0.12074091661E+04  0.12074091661E+04  0.00000000000E+00 0. -1.
         21   -1    0    0  501  502 -0.00000000000E+00 -0.00000000000E+00 -0.32352330177E+01  0.32352330177E+01  0.00000000000E+00 0. -1.
         25    1    1    2    0    0  0.00000000000E+00  0.00000000000E+00  0.12041739331E+04  0.12106443991E+04  0.12500000000E+03 0.  0.
<mgrwt>
<rscale>  2 0.12500000E+03</rscale>
<asrwt>0</asrwt>
<pdfrwt beam="1">  1       21 0.18575490E+00 0.12500000E+03</pdfrwt>
<pdfrwt beam="2">  1       21 0.49772912E-03 0.12500000E+03</pdfrwt>
<totfact> 0.18932573E+06</totfact>
</mgrwt>
</event>
<event>
 3    0  0.1724408E+001  0.1250000E+03  0.7546771E-02  0.1235069E+00
         21   -1    0    0  502  501  0.00000000000E+00  0.00000000000E+00  0.11121711779E+03  0.11121711779E+03  0.00000000000E+00 0.  1.
         21   -1    0    0  501  502 -0.00000000000E+00 -0.00000000000E+00 -0.35122740793E+02  0.35122740793E+02  0.00000000000E+00 0.  1.
         25    1    1    2    0    0  0.00000000000E+00  0.00000000000E+00  0.76094376998E+02  0.14633985859E+03  0.12500000000E+03 0.  0.
<mgrwt>
<rscale>  2 0.12500000E+03</rscale>
<asrwt>0</asrwt>
<pdfrwt beam="1">  1       21 0.17110326E-01 0.12500000E+03</pdfrwt>
<pdfrwt beam="2">  1       21 0.54034986E-02 0.12500000E+03</pdfrwt>
<totfact> 0.71222069E+06</totfact>
</mgrwt>
</event>
<event>
 3    0  0.1494224E+001  0.1250000E+03  0.7546771E-02  0.1235069E+00
         21   -1    0    0  502  501  0.00000000000E+00  0.00000000000E+00  0.42399274015E+03  0.42399274015E+03  0.00000000000E+00 0. -1.
         21   -1    0    0  501  502 -0.00000000000E+00 -0.00000000000E+00 -0.92130115215E+01  0.92130115215E+01  0.00000000000E+00 0. -1.
         25    1    1    2    0    0  0.00000000000E+00  0.00000000000E+00  0.41477972862E+03  0.43320575167E+03  0.12500000000E+03 0.  0.
<mgrwt>
<rscale>  2 0.12500000E+03</rscale>
<asrwt>0</asrwt>
<pdfrwt beam="1">  1       21 0.65229637E-01 0.12500000E+03</pdfrwt>
<pdfrwt beam="2">  1       21 0.14173867E-02 0.12500000E+03</pdfrwt>
<totfact> 0.45914116E+06</totfact>
</mgrwt>
</event>
<event>
 3    0  0.1387604E+001  0.1250000E+03  0.7546771E-02  0.1235069E+00
         21   -1    0    0  502  501  0.00000000000E+00  0.00000000000E+00  0.57432428308E+01  0.57432428308E+01  0.00000000000E+00 0. -1.
         21   -1    0    0  501  502 -0.00000000000E+00 -0.00000000000E+00 -0.68014710767E+03  0.68014710767E+03  0.00000000000E+00 0. -1.
         25    1    1    2    0    0  0.00000000000E+00  0.00000000000E+00 -0.67440386484E+03  0.68589035050E+03  0.12500000000E+03 0.  0.
<mgrwt>
<rscale>  2 0.12500000E+03</rscale>
<asrwt>0</asrwt>
<pdfrwt beam="1">  1       21 0.88357629E-03 0.12500000E+03</pdfrwt>
<pdfrwt beam="2">  1       21 0.10463796E+00 0.12500000E+03</pdfrwt>
<totfact> 0.33461264E+06</totfact>
</mgrwt>
</event>
<event>
 3    0  0.1658396E+001  0.1250000E+03  0.7546771E-02  0.1235069E+00
         21   -1    0    0  502  501  0.00000000000E+00  0.00000000000E+00  0.21263850760E+03  0.21263850760E+03  0.00000000000E+00 0.  1.
         21   -1    0    0  501  502 -0.00000000000E+00 -0.00000000000E+00 -0.18370379120E+02  0.18370379120E+02  0.00000000000E+00 0.  1.
         25    1    1    2    0    0  0.00000000000E+00  0.00000000000E+00  0.19426812848E+03  0.23100888672E+03  0.12500000000E+03 0.  0.
<mgrwt>
<rscale>  2 0.12500000E+03</rscale>
<asrwt>0</asrwt>
<pdfrwt beam="1">  1       21 0.32713615E-01 0.12500000E+03</pdfrwt>
<pdfrwt beam="2">  1       21 0.28262123E-02 0.12500000E+03</pdfrwt>
<totfact> 0.61713722E+06</totfact>
</mgrwt>
</event>
<event>
 3    0  0.1368989E+001  0.1250000E+03  0.7546771E-02  0.1235069E+00
         21   -1    0    0  502  501  0.00000000000E+00  0.00000000000E+00  0.75783220040E+03  0.75783220040E+03  0.00000000000E+00 0.  1.
         21   -1    0    0  501  502 -0.00000000000E+00 -0.00000000000E+00 -0.51545051767E+01  0.51545051767E+01  0.00000000000E+00 0.  1.
         25    1    1    2    0    0  0.00000000000E+00  0.00000000000E+00  0.75267769522E+03  0.76298670558E+03  0.12500000000E+03 0.  0.
<mgrwt>
<rscale>  2 0.12500000E+03</rscale>
<asrwt>0</asrwt>
<pdfrwt beam="1">  1       21 0.11658948E+00 0.12500000E+03</pdfrwt>
<pdfrwt beam="2">  1       21 0.79300140E-03 0.12500000E+03</pdfrwt>
<totfact> 0.30617298E+06</totfact>
</mgrwt>
</event>
<event>
 3    0  0.1657282E+001  0.1250000E+03  0.7546771E-02  0.1235069E+00
         21   -1    0    0  502  501  0.00000000000E+00  0.00000000000E+00  0.19457080171E+03  0.19457080171E+03  0.00000000000E+00 0.  1.
         21   -1    0    0  501  502 -0.00000000000E+00 -0.00000000000E+00 -0.20076239424E+02  0.20076239424E+02  0.00000000000E+00 0.  1.
         25    1    1    2    0    0  0.00000000000E+00  0.00000000000E+00  0.17449456229E+03  0.21464704113E+03  0.12500000000E+03 0.  0.
<mgrwt>
<rscale>  2 0.12500000E+03</rscale>
<asrwt>0</asrwt>
<pdfrwt beam="1">  1       21 0.29933968E-01 0.12500000E+03</pdfrwt>
<pdfrwt beam="2">  1       21 0.30886524E-02 0.12500000E+03</pdfrwt>
<totfact> 0.63373907E+06</totfact>
</mgrwt>
</event>
<event>
 3    0  0.1666847E+001  0.1250000E+03  0.7546771E-02  0.1235069E+00
         21   -1    0    0  502  501  0.00000000000E+00  0.00000000000E+00  0.15737393188E+03  0.15737393188E+03  0.00000000000E+00 0. -1.
         21   -1    0    0  501  502 -0.00000000000E+00 -0.00000000000E+00 -0.24821455201E+02  0.24821455201E+02  0.00000000000E+00 0. -1.
         25    1    1    2    0    0  0.00000000000E+00  0.00000000000E+00  0.13255247668E+03  0.18219538708E+03  0.12500000000E+03 0.  0.
<mgrwt>
<rscale>  2 0.12500000E+03</rscale>
<asrwt>0</asrwt>
<pdfrwt beam="1">  1       21 0.24211373E-01 0.12500000E+03</pdfrwt>
<pdfrwt beam="2">  1       21 0.38186855E-02 0.12500000E+03</pdfrwt>
<totfact> 0.66900577E+06</totfact>
</mgrwt>
</event>
<event>
 3    0  0.1632546E+001  0.1250000E+03  0.7546771E-02  0.1235069E+00
         21   -1    0    0  502  501  0.00000000000E+00  0.00000000000E+00  0.23156753931E+03  0.23156753931E+03  0.00000000000E+00 0.  1.
         21   -1    0    0  501  502 -0.00000000000E+00 -0.00000000000E+00 -0.16868728716E+02  0.16868728716E+02  0.00000000000E+00 0.  1.
         25    1    1    2    0    0  0.00000000000E+00  0.00000000000E+00  0.21469881060E+03  0.24843626803E+03  0.12500000000E+03 0.  0.
<mgrwt>
<rscale>  2 0.12500000E+03</rscale>
<asrwt>0</asrwt>
<pdfrwt beam="1">  1       21 0.35625773E-01 0.12500000E+03</pdfrwt>
<pdfrwt beam="2">  1       21 0.25951892E-02 0.12500000E+03</pdfrwt>
<totfact> 0.60025726E+06</totfact>
</mgrwt>
</event>
<event>
 3    0  0.1670773E+001  0.1250000E+03  0.7546771E-02  0.1235069E+00
         21   -1    0    0  502  501  0.00000000000E+00  0.00000000000E+00  0.28372140779E+02  0.28372140779E+02  0.00000000000E+00 0. -1.
         21   -1    0    0  501  502 -0.00000000000E+00 -0.00000000000E+00 -0.13767907154E+03  0.13767907154E+03  0.00000000000E+00 0. -1.
         25    1    1    2    0    0  0.00000000000E+00  0.00000000000E+00 -0.10930693076E+03  0.16605121232E+03  0.12500000000E+03 0.  0.
<mgrwt>
<rscale>  2 0.12500000E+03</rscale>
<asrwt>0</asrwt>
<pdfrwt beam="1">  1       21 0.43649446E-02 0.12500000E+03</pdfrwt>
<pdfrwt beam="2">  1       21 0.21181396E-01 0.12500000E+03</pdfrwt>
<totfact> 0.68787558E+06</totfact>
</mgrwt>
</event>
<event>
 3    0  0.1368989E+001  0.1250000E+03  0.7546771E-02  0.1235069E+00
         21   -1    0    0  502  501  0.00000000000E+00  0.00000000000E+00  0.35594427474E+01  0.35594427474E+01  0.00000000000E+00 0.  1.
         21   -1    0    0  501  502 -0.00000000000E+00 -0.00000000000E+00 -0.10974330189E+04  0.10974330189E+04  0.00000000000E+00 0.  1.
         25    1    1    2    0    0  0.00000000000E+00  0.00000000000E+00 -0.10938735762E+04  0.11009924617E+04  0.12500000000E+03 0.  0.
<mgrwt>
<rscale>  2 0.12500000E+03</rscale>
<asrwt>0</asrwt>
<pdfrwt beam="1">  1       21 0.54760652E-03 0.12500000E+03</pdfrwt>
<pdfrwt beam="2">  1       21 0.16883587E+00 0.12500000E+03</pdfrwt>
<totfact> 0.21229344E+06</totfact>
</mgrwt>
</event>
<event>
 3    0  0.1537432E+001  0.1250000E+03  0.7546771E-02  0.1235069E+00
         21   -1    0    0  502  501  0.00000000000E+00  0.00000000000E+00  0.37621788598E+03  0.37621788598E+03  0.00000000000E+00 0.  1.
         21   -1    0    0  501  502 -0.00000000000E+00 -0.00000000000E+00 -0.10382946015E+02  0.10382946015E+02  0.00000000000E+00 0.  1.
         25    1    1    2    0    0  0.00000000000E+00  0.00000000000E+00  0.36583493997E+03  0.38660083200E+03  0.12500000000E+03 0.  0.
<mgrwt>
<rscale>  2 0.12500000E+03</rscale>
<asrwt>0</asrwt>
<pdfrwt beam="1">  1       21 0.57879664E-01 0.12500000E+03</pdfrwt>
<pdfrwt beam="2">  1       21 0.15973766E-02 0.12500000E+03</pdfrwt>
<totfact> 0.48942993E+06</totfact>
</mgrwt>
</event>
<event>
 3    0  0.1502262E+001  0.1250000E+03  0.7546771E-02  0.1235069E+00
         21   -1    0    0  502  501  0.00000000000E+00  0.00000000000E+00  0.81680863689E+01  0.81680863689E+01  0.00000000000E+00 0.  1.
         21   -1    0    0  501  502 -0.00000000000E+00 -0.00000000000E+00 -0.47823318995E+03  0.47823318995E+03  0.00000000000E+00 0.  1.
         25    1    1    2    0    0  0.00000000000E+00  0.00000000000E+00 -0.47006510358E+03  0.48640127632E+03  0.12500000000E+03 0.  0.
<mgrwt>
<rscale>  2 0.12500000E+03</rscale>
<asrwt>0</asrwt>
<pdfrwt beam="1">  1       21 0.12566283E-02 0.12500000E+03</pdfrwt>
<pdfrwt beam="2">  1       21 0.73574357E-01 0.12500000E+03</pdfrwt>
<totfact> 0.42791286E+06</totfact>
</mgrwt>
</event>
<event>
 3    0  0.1383906E+001  0.1250000E+03  0.7546771E-02  0.1235069E+00
         21   -1    0    0  502  501  0.00000000000E+00  0.00000000000E+00  0.64055226406E+03  0.64055226406E+03  0.00000000000E+00 0. -1.
         21   -1    0    0  501  502 -0.00000000000E+00 -0.00000000000E+00 -0.60982533654E+01  0.60982533654E+01  0.00000000000E+00 0. -1.
         25    1    1    2    0    0  0.00000000000E+00  0.00000000000E+00  0.63445401070E+03  0.64665051743E+03  0.12500000000E+03 0.  0.
<mgrwt>
<rscale>  2 0.12500000E+03</rscale>
<asrwt>0</asrwt>
<pdfrwt beam="1">  1       21 0.98546449E-01 0.12500000E+03</pdfrwt>
<pdfrwt beam="2">  1       21 0.93819333E-03 0.12500000E+03</pdfrwt>
<totfact> 0.35064234E+06</totfact>
</mgrwt>
</event>
<event>
 3    0  0.1697646E+001  0.1250000E+03  0.7546771E-02  0.1235069E+00
         21   -1    0    0  502  501  0.00000000000E+00  0.00000000000E+00  0.34870158313E+02  0.34870158313E+02  0.00000000000E+00 0. -1.
         21   -1    0    0  501  502 -0.00000000000E+00 -0.00000000000E+00 -0.11202272054E+03  0.11202272054E+03  0.00000000000E+00 0. -1.
         25    1    1    2    0    0  0.00000000000E+00  0.00000000000E+00 -0.77152562230E+02  0.14689287886E+03  0.12500000000E+03 0.  0.
<mgrwt>
<rscale>  2 0.12500000E+03</rscale>
<asrwt>0</asrwt>
<pdfrwt beam="1">  1       21 0.53646397E-02 0.12500000E+03</pdfrwt>
<pdfrwt beam="2">  1       21 0.17234265E-01 0.12500000E+03</pdfrwt>
<totfact> 0.71151730E+06</totfact>
</mgrwt>
</event>
<event>
 3    0  0.1694035E+001  0.1250000E+03  0.7546771E-02  0.1235069E+00
         21   -1    0    0  502  501  0.00000000000E+00  0.00000000000E+00  0.13795474067E+03  0.13795474067E+03  0.00000000000E+00 0.  1.
         21   -1    0    0  501  502 -0.00000000000E+00 -0.00000000000E+00 -0.28315445929E+02  0.28315445929E+02  0.00000000000E+00 0.  1.
         25    1    1    2    0    0  0.00000000000E+00  0.00000000000E+00  0.10963929474E+03  0.16627018660E+03  0.12500000000E+03 0.  0.
<mgrwt>
<rscale>  2 0.12500000E+03</rscale>
<asrwt>0</asrwt>
<pdfrwt beam="1">  1       21 0.21223806E-01 0.12500000E+03</pdfrwt>
<pdfrwt beam="2">  1       21 0.43562225E-02 0.12500000E+03</pdfrwt>
<totfact> 0.68761348E+06</totfact>
</mgrwt>
</event>
<event>
 3    0  0.1580435E+001  0.1250000E+03  0.7546771E-02  0.1235069E+00
         21   -1    0    0  502  501  0.00000000000E+00  0.00000000000E+00  0.12549616734E+02  0.12549616734E+02  0.00000000000E+00 0. -1.
         21   -1    0    0  501  502 -0.00000000000E+00 -0.00000000000E+00 -0.31126448583E+03  0.31126448583E+03  0.00000000000E+00 0. -1.
         25    1    1    2    0    0  0.00000000000E+00  0.00000000000E+00 -0.29871486910E+03  0.32381410256E+03  0.12500000000E+03 0.  0.
<mgrwt>
<rscale>  2 0.12500000E+03</rscale>
<asrwt>0</asrwt>
<pdfrwt beam="1">  1       21 0.19307103E-02 0.12500000E+03</pdfrwt>
<pdfrwt beam="2">  1       21 0.47886842E-01 0.12500000E+03</pdfrwt>
<totfact> 0.53532472E+06</totfact>
</mgrwt>
</event>
<event>
 3    0  0.1711317E+001  0.1250000E+03  0.7546771E-02  0.1235069E+00
         21   -1    0    0  502  501  0.00000000000E+00  0.00000000000E+00  0.53867856383E+02  0.53867856383E+02  0.00000000000E+00 0. -1.
         21   -1    0    0  501  502 -0.00000000000E+00 -0.00000000000E+00 -0.72515415729E+02  0.72515415729E+02  0.00000000000E+00 0. -1.
         25    1    1    2    0    0  0.00000000000E+00  0.00000000000E+00 -0.18647559346E+02  0.12638327211E+03  0.12500000000E+03 0.  0.
<mgrwt>
<rscale>  2 0.12500000E+03</rscale>
<asrwt>0</asrwt>
<pdfrwt beam="1">  1       21 0.82873626E-02 0.12500000E+03</pdfrwt>
<pdfrwt beam="2">  1       21 0.11156218E-01 0.12500000E+03</pdfrwt>
<totfact> 0.73853359E+06</totfact>
</mgrwt>
</event>
<event>
 3    0  0.1542039E+001  0.1250000E+03  0.7546771E-02  0.1235069E+00
         21   -1    0    0  502  501  0.00000000000E+00  0.00000000000E+00  0.11167358376E+02  0.11167358376E+02  0.00000000000E+00 0.  1.
         21   -1    0    0  501  502 -0.00000000000E+00 -0.00000000000E+00 -0.34979176529E+03  0.34979176529E+03  0.00000000000E+00 0.  1.
         25    1    1    2    0    0  0.00000000000E+00  0.00000000000E+00 -0.33862440691E+03  0.36095912366E+03  0.12500000000E+03 0.  0.
<mgrwt>
<rscale>  2 0.12500000E+03</rscale>
<asrwt>0</asrwt>
<pdfrwt beam="1">  1       21 0.17180555E-02 0.12500000E+03</pdfrwt>
<pdfrwt beam="2">  1       21 0.53814107E-01 0.12500000E+03</pdfrwt>
<totfact> 0.50739119E+06</totfact>
</mgrwt>
</event>
<event>
 3    0  0.1368989E+001  0.1250000E+03  0.7546771E-02  0.1235069E+00
         21   -1    0    0  502  501  0.00000000000E+00  0.00000000000E+00  0.27484134123E+01  0.27484134123E+01  0.00000000000E+00 0. -1.
         21   -1    0    0  501  502 -0.00000000000E+00 -0.00000000000E+00 -0.14212745370E+04  0.14212745370E+04  0.00000000000E+00 0. -1.
         25    1    1    2    0    0  0.00000000000E+00  0.00000000000E+00 -0.14185261236E+04  0.14240229504E+04  0.12500000000E+03 0.  0.
<mgrwt>
<rscale>  2 0.12500000E+03</rscale>
<asrwt>0</asrwt>
<pdfrwt beam="1">  1       21 0.42283279E-03 0.12500000E+03</pdfrwt>
<pdfrwt beam="2">  1       21 0.21865764E+00 0.12500000E+03</pdfrwt>
<totfact> 0.15158385E+06</totfact>
</mgrwt>
</event>
<event>
 3    0  0.1687553E+001  0.1250000E+03  0.7546771E-02  0.1235069E+00
         21   -1    0    0  502  501  0.00000000000E+00  0.00000000000E+00  0.15876573743E+03  0.15876573743E+03  0.00000000000E+00 0.  1.
         21   -1    0    0  501  502 -0.00000000000E+00 -0.00000000000E+00 -0.24603860149E+02  0.24603860149E+02  0.00000000000E+00 0.  1.
         25    1    1    2    0    0  0.00000000000E+00  0.00000000000E+00  0.13416187728E+03  0.18336959757E+03  0.12500000000E+03 0.  0.
<mgrwt>
<rscale>  2 0.12500000E+03</rscale>
<asrwt>0</asrwt>
<pdfrwt beam="1">  1       21 0.24425497E-01 0.12500000E+03</pdfrwt>
<pdfrwt beam="2">  1       21 0.37852094E-02 0.12500000E+03</pdfrwt>
<totfact> 0.66767074E+06</totfact>
</mgrwt>
</event>
<event>
 3    0  0.1368989E+001  0.1250000E+03  0.7546771E-02  0.1235069E+00
         21   -1    0    0  502  501  0.00000000000E+00  0.00000000000E+00  0.16793779457E+04  0.16793779457E+04  0.00000000000E+00 0.  1.
         21   -1    0    0  501  502 -0.00000000000E+00 -0.00000000000E+00 -0.23260100623E+01  0.23260100623E+01  0.00000000000E+00 0.  1.
         25    1    1    2    0    0  0.00000000000E+00  0.00000000000E+00  0.16770519356E+04  0.16817039557E+04  0.12500000000E+03 0.  0.
<mgrwt>
<rscale>  2 0.12500000E+03</rscale>
<asrwt>0</asrwt>
<pdfrwt beam="1">  1       21 0.25836487E+00 0.12500000E+03</pdfrwt>
<pdfrwt beam="2">  1       21 0.35784904E-03 0.12500000E+03</pdfrwt>
<totfact> 0.11500160E+06</totfact>
</mgrwt>
</event>
<event>
 3    0  0.1732964E+001  0.1250000E+03  0.7546771E-02  0.1235069E+00
         21   -1    0    0  502  501  0.00000000000E+00  0.00000000000E+00  0.81708211726E+02  0.81708211726E+02  0.00000000000E+00 0.  1.
         21   -1    0    0  501  502 -0.00000000000E+00 -0.00000000000E+00 -0.47807312356E+02  0.47807312356E+02  0.00000000000E+00 0.  1.
         25    1    1    2    0    0  0.00000000000E+00  0.00000000000E+00  0.33900899370E+02  0.12951552408E+03  0.12500000000E+03 0.  0.
<mgrwt>
<rscale>  2 0.12500000E+03</rscale>
<asrwt>0</asrwt>
<pdfrwt beam="1">  1       21 0.12570494E-01 0.12500000E+03</pdfrwt>
<pdfrwt beam="2">  1       21 0.73549711E-02 0.12500000E+03</pdfrwt>
<totfact> 0.73429737E+06</totfact>
</mgrwt>
</event>
<event>
 3    0  0.1368989E+001  0.1250000E+03  0.7546771E-02  0.1235069E+00
         21   -1    0    0  502  501  0.00000000000E+00  0.00000000000E+00  0.19540267021E+04  0.19540267021E+04  0.00000000000E+00 0.  1.
         21   -1    0    0  501  502 -0.00000000000E+00 -0.00000000000E+00 -0.19990770831E+01  0.19990770831E+01  0.00000000000E+00 0.  1.
         25    1    1    2    0    0  0.00000000000E+00  0.00000000000E+00  0.19520276251E+04  0.19560257792E+04  0.12500000000E+03 0.  0.
<mgrwt>
<rscale>  2 0.12500000E+03</rscale>
<asrwt>0</asrwt>
<pdfrwt beam="1">  1       21 0.30061796E+00 0.12500000E+03</pdfrwt>
<pdfrwt beam="2">  1       21 0.30755188E-03 0.12500000E+03</pdfrwt>
<totfact> 0.83849384E+05</totfact>
</mgrwt>
</event>
<event>
 3    0  0.1676075E+001  0.1250000E+03  0.7546771E-02  0.1235069E+00
         21   -1    0    0  502  501  0.00000000000E+00  0.00000000000E+00  0.22487850900E+02  0.22487850900E+02  0.00000000000E+00 0.  1.
         21   -1    0    0  501  502 -0.00000000000E+00 -0.00000000000E+00 -0.17370490481E+03  0.17370490481E+03  0.00000000000E+00 0.  1.
         25    1    1    2    0    0  0.00000000000E+00  0.00000000000E+00 -0.15121705391E+03  0.19619275571E+03  0.12500000000E+03 0.  0.
<mgrwt>
<rscale>  2 0.12500000E+03</rscale>
<asrwt>0</asrwt>
<pdfrwt beam="1">  1       21 0.34596695E-02 0.12500000E+03</pdfrwt>
<pdfrwt beam="2">  1       21 0.26723830E-01 0.12500000E+03</pdfrwt>
<totfact> 0.65340716E+06</totfact>
</mgrwt>
</event>
<event>
 3    0  0.1704007E+001  0.1250000E+03  0.7546771E-02  0.1235069E+00
         21   -1    0    0  502  501  0.00000000000E+00  0.00000000000E+00  0.40798439685E+02  0.40798439685E+02  0.00000000000E+00 0. -1.
         21   -1    0    0  501  502 -0.00000000000E+00 -0.00000000000E+00 -0.95745083149E+02  0.95745083149E+02  0.00000000000E+00 0. -1.
         25    1    1    2    0    0  0.00000000000E+00  0.00000000000E+00 -0.54946643464E+02  0.13654352283E+03  0.12500000000E+03 0.  0.
<mgrwt>
<rscale>  2 0.12500000E+03</rscale>
<asrwt>0</asrwt>
<pdfrwt beam="1">  1       21 0.62766831E-02 0.12500000E+03</pdfrwt>
<pdfrwt beam="2">  1       21 0.14730013E-01 0.12500000E+03</pdfrwt>
<totfact> 0.72492738E+06</totfact>
</mgrwt>
</event>
<event>
 3    0  0.1590608E+001  0.1250000E+03  0.7546771E-02  0.1235069E+00
         21   -1    0    0  502  501  0.00000000000E+00  0.00000000000E+00  0.13530510226E+02  0.13530510226E+02  0.00000000000E+00 0. -1.
         21   -1    0    0  501  502 -0.00000000000E+00 -0.00000000000E+00 -0.28869938640E+03  0.28869938640E+03  0.00000000000E+00 0. -1.
         25    1    1    2    0    0  0.00000000000E+00  0.00000000000E+00 -0.27516887618E+03  0.30222989663E+03  0.12500000000E+03 0.  0.
<mgrwt>
<rscale>  2 0.12500000E+03</rscale>
<asrwt>0</asrwt>
<pdfrwt beam="1">  1       21 0.20816172E-02 0.12500000E+03</pdfrwt>
<pdfrwt beam="2">  1       21 0.44415285E-01 0.12500000E+03</pdfrwt>
<totfact> 0.55271371E+06</totfact>
</mgrwt>
</event>
<event>
 3    0  0.1687029E+001  0.1250000E+03  0.7546771E-02  0.1235069E+00
         21   -1    0    0  502  501  0.00000000000E+00  0.00000000000E+00  0.24584146455E+02  0.24584146455E+02  0.00000000000E+00 0.  1.
         21   -1    0    0  501  502 -0.00000000000E+00 -0.00000000000E+00 -0.15889304952E+03  0.15889304952E+03  0.00000000000E+00 0.  1.
         25    1    1    2    0    0  0.00000000000E+00  0.00000000000E+00 -0.13430890306E+03  0.18347719597E+03  0.12500000000E+03 0.  0.
<mgrwt>
<rscale>  2 0.12500000E+03</rscale>
<asrwt>0</asrwt>
<pdfrwt beam="1">  1       21 0.37821764E-02 0.12500000E+03</pdfrwt>
<pdfrwt beam="2">  1       21 0.24445084E-01 0.12500000E+03</pdfrwt>
<totfact> 0.66754866E+06</totfact>
</mgrwt>
</event>
<event>
 3    0  0.1368989E+001  0.1250000E+03  0.7546771E-02  0.1235069E+00
         21   -1    0    0  502  501  0.00000000000E+00  0.00000000000E+00  0.50642043416E+01  0.50642043416E+01  0.00000000000E+00 0.  1.
         21   -1    0    0  501  502 -0.00000000000E+00 -0.00000000000E+00 -0.77134525712E+03  0.77134525712E+03  0.00000000000E+00 0.  1.
         25    1    1    2    0    0  0.00000000000E+00  0.00000000000E+00 -0.76628105278E+03  0.77640946146E+03  0.12500000000E+03 0.  0.
<mgrwt>
<rscale>  2 0.12500000E+03</rscale>
<asrwt>0</asrwt>
<pdfrwt beam="1">  1       21 0.77910869E-03 0.12500000E+03</pdfrwt>
<pdfrwt beam="2">  1       21 0.11866845E+00 0.12500000E+03</pdfrwt>
<totfact> 0.30159447E+06</totfact>
</mgrwt>
</event>
<event>
 3    0  0.1642999E+001  0.1250000E+03  0.7546771E-02  0.1235069E+00
         21   -1    0    0  502  501  0.00000000000E+00  0.00000000000E+00  0.18635203894E+02  0.18635203894E+02  0.00000000000E+00 0. -1.
         21   -1    0    0  501  502 -0.00000000000E+00 -0.00000000000E+00 -0.20961670300E+03  0.20961670300E+03  0.00000000000E+00 0. -1.
         25    1    1    2    0    0  0.00000000000E+00  0.00000000000E+00 -0.19098149911E+03  0.22825190690E+03  0.12500000000E+03 0.  0.
<mgrwt>
<rscale>  2 0.12500000E+03</rscale>
<asrwt>0</asrwt>
<pdfrwt beam="1">  1       21 0.28669546E-02 0.12500000E+03</pdfrwt>
<pdfrwt beam="2">  1       21 0.32248722E-01 0.12500000E+03</pdfrwt>
<totfact> 0.61988377E+06</totfact>
</mgrwt>
</event>
<event>
 3    0  0.1736402E+001  0.1250000E+03  0.7546771E-02  0.1235069E+00
         21   -1    0    0  502  501  0.00000000000E+00  0.00000000000E+00  0.75751466976E+02  0.75751466976E+02  0.00000000000E+00 0.  1.
         21   -1    0    0  501  502 -0.00000000000E+00 -0.00000000000E+00 -0.51566658125E+02  0.51566658125E+02  0.00000000000E+00 0.  1.
         25    1    1    2    0    0  0.00000000000E+00  0.00000000000E+00  0.24184808851E+02  0.12731812510E+03  0.12500000000E+03 0.  0.
<mgrwt>
<rscale>  2 0.12500000E+03</rscale>
<asrwt>0</asrwt>
<pdfrwt beam="1">  1       21 0.11654072E-01 0.12500000E+03</pdfrwt>
<pdfrwt beam="2">  1       21 0.79333320E-02 0.12500000E+03</pdfrwt>
<totfact> 0.73725891E+06</totfact>
</mgrwt>
</event>
<event>
 3    0  0.1707292E+001  0.1250000E+03  0.7546771E-02  0.1235069E+00
         21   -1    0    0  502  501  0.00000000000E+00  0.00000000000E+00  0.30869740238E+02  0.30869740238E+02  0.00000000000E+00 0.  1.
         21   -1    0    0  501  502 -0.00000000000E+00 -0.00000000000E+00 -0.12653977552E+03  0.12653977552E+03  0.00000000000E+00 0.  1.
         25    1    1    2    0    0  0.00000000000E+00  0.00000000000E+00 -0.95670035281E+02  0.15740951576E+03  0.12500000000E+03 0.  0.
<mgrwt>
<rscale>  2 0.12500000E+03</rscale>
<asrwt>0</asrwt>
<pdfrwt beam="1">  1       21 0.47491908E-02 0.12500000E+03</pdfrwt>
<pdfrwt beam="2">  1       21 0.19467658E-01 0.12500000E+03</pdfrwt>
<totfact> 0.69837418E+06</totfact>
</mgrwt>
</event>
<event>
 3    0  0.1652127E+001  0.1250000E+03  0.7546771E-02  0.1235069E+00
         21   -1    0    0  502  501  0.00000000000E+00  0.00000000000E+00  0.19834907291E+02  0.19834907291E+02  0.00000000000E+00 0. -1.
         21   -1    0    0  501  502 -0.00000000000E+00 -0.00000000000E+00 -0.19693815266E+03  0.19693815266E+03  0.00000000000E+00 0. -1.
         25    1    1    2    0    0  0.00000000000E+00  0.00000000000E+00 -0.17710324537E+03  0.21677305995E+03  0.12500000000E+03 0.  0.
<mgrwt>
<rscale>  2 0.12500000E+03</rscale>
<asrwt>0</asrwt>
<pdfrwt beam="1">  1       21 0.30515244E-02 0.12500000E+03</pdfrwt>
<pdfrwt beam="2">  1       21 0.30298176E-01 0.12500000E+03</pdfrwt>
<totfact> 0.63153903E+06</totfact>
</mgrwt>
</event>
<event>
 3    0  0.1711861E+001  0.1250000E+03  0.7546771E-02  0.1235069E+00
         21   -1    0    0  502  501  0.00000000000E+00  0.00000000000E+00  0.71600087103E+02  0.71600087103E+02  0.00000000000E+00 0. -1.
         21   -1    0    0  501  502 -0.00000000000E+00 -0.00000000000E+00 -0.54556497877E+02  0.54556497877E+02  0.00000000000E+00 0. -1.
         25    1    1    2    0    0  0.00000000000E+00  0.00000000000E+00  0.17043589226E+02  0.12615658498E+03  0.12500000000E+03 0.  0.
<mgrwt>
<rscale>  2 0.12500000E+03</rscale>
<asrwt>0</asrwt>
<pdfrwt beam="1">  1       21 0.11015398E-01 0.12500000E+03</pdfrwt>
<pdfrwt beam="2">  1       21 0.83933073E-02 0.12500000E+03</pdfrwt>
<totfact> 0.73884478E+06</totfact>
</mgrwt>
</event>
<event>
 3    0  0.1368989E+001  0.1250000E+03  0.7546771E-02  0.1235069E+00
         21   -1    0    0  502  501  0.00000000000E+00  0.00000000000E+00  0.11188122636E+04  0.11188122636E+04  0.00000000000E+00 0. -1.
         21   -1    0    0  501  502 -0.00000000000E+00 -0.00000000000E+00 -0.34914257979E+01  0.34914257979E+01  0.00000000000E+00 0. -1.
         25    1    1    2    0    0  0.00000000000E+00  0.00000000000E+00  0.11153208378E+04  0.11223036894E+04  0.12500000000E+03 0.  0.
<mgrwt>
<rscale>  2 0.12500000E+03</rscale>
<asrwt>0</asrwt>
<pdfrwt beam="1">  1       21 0.17212468E+00 0.12500000E+03</pdfrwt>
<pdfrwt beam="2">  1       21 0.53714332E-03 0.12500000E+03</pdfrwt>
<totfact> 0.20762127E+06</totfact>
</mgrwt>
</event>
<event>
 3    0  0.1708179E+001  0.1250000E+03  0.7546771E-02  0.1235069E+00
         21   -1    0    0  502  501  0.00000000000E+00  0.00000000000E+00  0.78960904857E+02  0.78960904857E+02  0.00000000000E+00 0. -1.
         21   -1    0    0  501  502 -0.00000000000E+00 -0.00000000000E+00 -0.49470684348E+02  0.49470684348E+02  0.00000000000E+00 0. -1.
         25    1    1    2    0    0  0.00000000000E+00  0.00000000000E+00  0.29490220509E+02  0.12843158920E+03  0.12500000000E+03 0.  0.
<mgrwt>
<rscale>  2 0.12500000E+03</rscale>
<asrwt>0</asrwt>
<pdfrwt beam="1">  1       21 0.12147832E-01 0.12500000E+03</pdfrwt>
<pdfrwt beam="2">  1       21 0.76108745E-02 0.12500000E+03</pdfrwt>
<totfact> 0.73575337E+06</totfact>
</mgrwt>
</event>
<event>
 3    0  0.1688774E+001  0.1250000E+03  0.7546771E-02  0.1235069E+00
         21   -1    0    0  502  501  0.00000000000E+00  0.00000000000E+00  0.16837030980E+03  0.16837030980E+03  0.00000000000E+00 0.  1.
         21   -1    0    0  501  502 -0.00000000000E+00 -0.00000000000E+00 -0.23200349305E+02  0.23200349305E+02  0.00000000000E+00 0.  1.
         25    1    1    2    0    0  0.00000000000E+00  0.00000000000E+00  0.14516996050E+03  0.19157065911E+03  0.12500000000E+03 0.  0.
<mgrwt>
<rscale>  2 0.12500000E+03</rscale>
<asrwt>0</asrwt>
<pdfrwt beam="1">  1       21 0.25903124E-01 0.12500000E+03</pdfrwt>
<pdfrwt beam="2">  1       21 0.35692846E-02 0.12500000E+03</pdfrwt>
<totfact> 0.65848325E+06</totfact>
</mgrwt>
</event>
<event>
 3    0  0.1729799E+001  0.1250000E+03  0.7546771E-02  0.1235069E+00
         21   -1    0    0  502  501  0.00000000000E+00  0.00000000000E+00  0.45400996941E+02  0.45400996941E+02  0.00000000000E+00 0.  1.
         21   -1    0    0  501  502 -0.00000000000E+00 -0.00000000000E+00 -0.86038859567E+02  0.86038859567E+02  0.00000000000E+00 0.  1.
         25    1    1    2    0    0  0.00000000000E+00  0.00000000000E+00 -0.40637862625E+02  0.13143985651E+03  0.12500000000E+03 0.  0.
<mgrwt>
<rscale>  2 0.12500000E+03</rscale>
<asrwt>0</asrwt>
<pdfrwt beam="1">  1       21 0.69847688E-02 0.12500000E+03</pdfrwt>
<pdfrwt beam="2">  1       21 0.13236747E-01 0.12500000E+03</pdfrwt>
<totfact> 0.73171459E+06</totfact>
</mgrwt>
</event>
<event>
 3    0  0.1656448E+001  0.1250000E+03  0.7546771E-02  0.1235069E+00
         21   -1    0    0  502  501  0.00000000000E+00  0.00000000000E+00  0.21343863877E+03  0.21343863877E+03  0.00000000000E+00 0.  1.
         21   -1    0    0  501  502 -0.00000000000E+00 -0.00000000000E+00 -0.18301512896E+02  0.18301512896E+02  0.00000000000E+00 0.  1.
         25    1    1    2    0    0  0.00000000000E+00  0.00000000000E+00  0.19513712588E+03  0.23174015167E+03  0.12500000000E+03 0.  0.
<mgrwt>
<rscale>  2 0.12500000E+03</rscale>
<asrwt>0</asrwt>
<pdfrwt beam="1">  1       21 0.32836712E-01 0.12500000E+03</pdfrwt>
<pdfrwt beam="2">  1       21 0.28156175E-02 0.12500000E+03</pdfrwt>
<totfact> 0.61641230E+06</totfact>
</mgrwt>
</event>
<event>
 3    0  0.1633608E+001  0.1250000E+03  0.7546771E-02  0.1235069E+00
         21   -1    0    0  502  501  0.00000000000E+00  0.00000000000E+00  0.18294726875E+02  0.18294726875E+02  0.00000000000E+00 0. -1.
         21   -1    0    0  501  502 -0.00000000000E+00 -0.00000000000E+00 -0.21351780908E+03  0.21351780908E+03  0.00000000000E+00 0. -1.
         25    1    1    2    0    0  0.00000000000E+00  0.00000000000E+00 -0.19522308221E+03  0.23181253596E+03  0.12500000000E+03 0.  0.
<mgrwt>
<rscale>  2 0.12500000E+03</rscale>
<asrwt>0</asrwt>
<pdfrwt beam="1">  1       21 0.28145733E-02 0.12500000E+03</pdfrwt>
<pdfrwt beam="2">  1       21 0.32848895E-01 0.12500000E+03</pdfrwt>
<totfact> 0.61634061E+06</totfact>
</mgrwt>
</event>
<event>
 3    0  0.1368989E+001  0.1250000E+03  0.7546771E-02  0.1235069E+00
         21   -1    0    0  502  501  0.00000000000E+00  0.00000000000E+00  0.18016014267E+01  0.18016014267E+01  0.00000000000E+00 0.  1.
         21   -1    0    0  501  502 -0.00000000000E+00 -0.00000000000E+00 -0.21682098727E+04  0.21682098727E+04  0.00000000000E+00 0.  1.
         25    1    1    2    0    0  0.00000000000E+00  0.00000000000E+00 -0.21664082713E+04  0.21700114742E+04  0.12500000000E+03 0.  0.
<mgrwt>
<rscale>  2 0.12500000E+03</rscale>
<asrwt>0</asrwt>
<pdfrwt beam="1">  1       21 0.27716985E-03 0.12500000E+03</pdfrwt>
<pdfrwt beam="2">  1       21 0.33357026E+00 0.12500000E+03</pdfrwt>
<totfact> 0.64060167E+05</totfact>
</mgrwt>
</event>
<event>
 3    0  0.1735172E+001  0.1250000E+03  0.7546771E-02  0.1235069E+00
         21   -1    0    0  502  501  0.00000000000E+00  0.00000000000E+00  0.55516317865E+02  0.55516317865E+02  0.00000000000E+00 0.  1.
         21   -1    0    0  501  502 -0.00000000000E+00 -0.00000000000E+00 -0.70362195300E+02  0.70362195300E+02  0.00000000000E+00 0.  1.
         25    1    1    2    0    0  0.00000000000E+00  0.00000000000E+00 -0.14845877435E+02  0.12587851317E+03  0.12500000000E+03 0.  0.
<mgrwt>
<rscale>  2 0.12500000E+03</rscale>
<asrwt>0</asrwt>
<pdfrwt beam="1">  1       21 0.85409721E-02 0.12500000E+03</pdfrwt>
<pdfrwt beam="2">  1       21 0.10824953E-01 0.12500000E+03</pdfrwt>
<totfact> 0.73922810E+06</totfact>
</mgrwt>
</event>
<event>
 3    0  0.1677057E+001  0.1250000E+03  0.7546771E-02  0.1235069E+00
         21   -1    0    0  502  501  0.00000000000E+00  0.00000000000E+00  0.30241567632E+02  0.30241567632E+02  0.00000000000E+00 0. -1.
         21   -1    0    0  501  502 -0.00000000000E+00 -0.00000000000E+00 -0.12916823782E+03  0.12916823782E+03  0.00000000000E+00 0. -1.
         25    1    1    2    0    0  0.00000000000E+00  0.00000000000E+00 -0.98926670191E+02  0.15940980545E+03  0.12500000000E+03 0.  0.
<mgrwt>
<rscale>  2 0.12500000E+03</rscale>
<asrwt>0</asrwt>
<pdfrwt beam="1">  1       21 0.46525490E-02 0.12500000E+03</pdfrwt>
<pdfrwt beam="2">  1       21 0.19872036E-01 0.12500000E+03</pdfrwt>
<totfact> 0.69591683E+06</totfact>
</mgrwt>
</event>
<event>
 3    0  0.1642135E+001  0.1250000E+03  0.7546771E-02  0.1235069E+00
         21   -1    0    0  502  501  0.00000000000E+00  0.00000000000E+00  0.19105661577E+03  0.19105661577E+03  0.00000000000E+00 0. -1.
         21   -1    0    0  501  502 -0.00000000000E+00 -0.00000000000E+00 -0.20445510271E+02  0.20445510271E+02  0.00000000000E+00 0. -1.
         25    1    1    2    0    0  0.00000000000E+00  0.00000000000E+00  0.17061110550E+03  0.21150212604E+03  0.12500000000E+03 0.  0.
<mgrwt>
<rscale>  2 0.12500000E+03</rscale>
<asrwt>0</asrwt>
<pdfrwt beam="1">  1       21 0.29393324E-01 0.12500000E+03</pdfrwt>
<pdfrwt beam="2">  1       21 0.31454633E-02 0.12500000E+03</pdfrwt>
<totfact> 0.63701841E+06</totfact>
</mgrwt>
</event>
<event>
 3    0  0.1697780E+001  0.1250000E+03  0.7546771E-02  0.1235069E+00
         21   -1    0    0  502  501  0.00000000000E+00  0.00000000000E+00  0.10526970705E+03  0.10526970705E+03  0.00000000000E+00 0. -1.
         21   -1    0    0  501  502 -0.00000000000E+00 -0.00000000000E+00 -0.37107066309E+02  0.37107066309E+02  0.00000000000E+00 0. -1.
         25    1    1    2    0    0  0.00000000000E+00  0.00000000000E+00  0.68162640745E+02  0.14237677336E+03  0.12500000000E+03 0.  0.
<mgrwt>
<rscale>  2 0.12500000E+03</rscale>
<asrwt>0</asrwt>
<pdfrwt beam="1">  1       21 0.16195339E-01 0.12500000E+03</pdfrwt>
<pdfrwt beam="2">  1       21 0.57087795E-02 0.12500000E+03</pdfrwt>
<totfact> 0.71730525E+06</totfact>
</mgrwt>
</event>
<event>
 3    0  0.1368989E+001  0.1250000E+03  0.7546771E-02  0.1235069E+00
         21   -1    0    0  502  501  0.00000000000E+00  0.00000000000E+00  0.25217366819E+01  0.25217366819E+01  0.00000000000E+00 0. -1.
         21   -1    0    0  501  502 -0.00000000000E+00 -0.00000000000E+00 -0.15490316765E+04  0.15490316765E+04  0.00000000000E+00 0. -1.
         25    1    1    2    0    0  0.00000000000E+00  0.00000000000E+00 -0.15465099398E+04  0.15515534131E+04  0.12500000000E+03 0.  0.
<mgrwt>
<rscale>  2 0.12500000E+03</rscale>
<asrwt>0</asrwt>
<pdfrwt beam="1">  1       21 0.38795892E-03 0.12500000E+03</pdfrwt>
<pdfrwt beam="2">  1       21 0.23831292E+00 0.12500000E+03</pdfrwt>
<totfact> 0.13245394E+06</totfact>
</mgrwt>
</event>
<event>
 3    0  0.1368989E+001  0.1250000E+03  0.7546771E-02  0.1235069E+00
         21   -1    0    0  502  501  0.00000000000E+00  0.00000000000E+00  0.10181914640E+04  0.10181914640E+04  0.00000000000E+00 0. -1.
         21   -1    0    0  501  502 -0.00000000000E+00 -0.00000000000E+00 -0.38364591907E+01  0.38364591907E+01  0.00000000000E+00 0. -1.
         25    1    1    2    0    0  0.00000000000E+00  0.00000000000E+00  0.10143550048E+04  0.10220279232E+04  0.12500000000E+03 0.  0.
<mgrwt>
<rscale>  2 0.12500000E+03</rscale>
<asrwt>0</asrwt>
<pdfrwt beam="1">  1       21 0.15664462E+00 0.12500000E+03</pdfrwt>
<pdfrwt beam="2">  1       21 0.59022530E-03 0.12500000E+03</pdfrwt>
<totfact> 0.23073633E+06</totfact>
</mgrwt>
</event>
<event>
 3    0  0.1368989E+001  0.1250000E+03  0.7546771E-02  0.1235069E+00
         21   -1    0    0  502  501  0.00000000000E+00  0.00000000000E+00  0.44500408023E+01  0.44500408023E+01  0.00000000000E+00 0. -1.
         21   -1    0    0  501  502 -0.00000000000E+00 -0.00000000000E+00 -0.87780094017E+03  0.87780094017E+03  0.00000000000E+00 0. -1.
         25    1    1    2    0    0  0.00000000000E+00  0.00000000000E+00 -0.87335089936E+03  0.88225098097E+03  0.12500000000E+03 0.  0.
<mgrwt>
<rscale>  2 0.12500000E+03</rscale>
<asrwt>0</asrwt>
<pdfrwt beam="1">  1       21 0.68462202E-03 0.12500000E+03</pdfrwt>
<pdfrwt beam="2">  1       21 0.13504623E+00 0.12500000E+03</pdfrwt>
<totfact> 0.26811105E+06</totfact>
</mgrwt>
</event>
<event>
 3    0  0.1368989E+001  0.1250000E+03  0.7546771E-02  0.1235069E+00
         21   -1    0    0  502  501  0.00000000000E+00  0.00000000000E+00  0.49870941276E+01  0.49870941276E+01  0.00000000000E+00 0.  1.
         21   -1    0    0  501  502 -0.00000000000E+00 -0.00000000000E+00 -0.78327176108E+03  0.78327176108E+03  0.00000000000E+00 0.  1.
         25    1    1    2    0    0  0.00000000000E+00  0.00000000000E+00 -0.77828466695E+03  0.78825885521E+03  0.12500000000E+03 0.  0.
<mgrwt>
<rscale>  2 0.12500000E+03</rscale>
<asrwt>0</asrwt>
<pdfrwt beam="1">  1       21 0.76724558E-03 0.12500000E+03</pdfrwt>
<pdfrwt beam="2">  1       21 0.12050330E+00 0.12500000E+03</pdfrwt>
<totfact> 0.29755552E+06</totfact>
</mgrwt>
</event>
<event>
 3    0  0.1689589E+001  0.1250000E+03  0.7546771E-02  0.1235069E+00
         21   -1    0    0  502  501  0.00000000000E+00  0.00000000000E+00  0.31607833448E+02  0.31607833448E+02  0.00000000000E+00 0. -1.
         21   -1    0    0  501  502 -0.00000000000E+00 -0.00000000000E+00 -0.12358487039E+03  0.12358487039E+03  0.00000000000E+00 0. -1.
         25    1    1    2    0    0  0.00000000000E+00  0.00000000000E+00 -0.91977036940E+02  0.15519270384E+03  0.12500000000E+03 0.  0.
<mgrwt>
<rscale>  2 0.12500000E+03</rscale>
<asrwt>0</asrwt>
<pdfrwt beam="1">  1       21 0.48627436E-02 0.12500000E+03</pdfrwt>
<pdfrwt beam="2">  1       21 0.19013057E-01 0.12500000E+03</pdfrwt>
<totfact> 0.70111716E+06</totfact>
</mgrwt>
</event>
<event>
 3    0  0.1663329E+001  0.1250000E+03  0.7546771E-02  0.1235069E+00
         21   -1    0    0  502  501  0.00000000000E+00  0.00000000000E+00  0.21061702697E+03  0.21061702697E+03  0.00000000000E+00 0.  1.
         21   -1    0    0  501  502 -0.00000000000E+00 -0.00000000000E+00 -0.18546696134E+02  0.18546696134E+02  0.00000000000E+00 0.  1.
         25    1    1    2    0    0  0.00000000000E+00  0.00000000000E+00  0.19207033084E+03  0.22916372311E+03  0.12500000000E+03 0.  0.
<mgrwt>
<rscale>  2 0.12500000E+03</rscale>
<asrwt>0</asrwt>
<pdfrwt beam="1">  1       21 0.32402618E-01 0.12500000E+03</pdfrwt>
<pdfrwt beam="2">  1       21 0.28533380E-02 0.12500000E+03</pdfrwt>
<totfact> 0.61897303E+06</totfact>
</mgrwt>
</event>
<event>
 3    0  0.1476635E+001  0.1250000E+03  0.7546771E-02  0.1235069E+00
         21   -1    0    0  502  501  0.00000000000E+00  0.00000000000E+00  0.47224548534E+03  0.47224548534E+03  0.00000000000E+00 0.  1.
         21   -1    0    0  501  502 -0.00000000000E+00 -0.00000000000E+00 -0.82716513366E+01  0.82716513366E+01  0.00000000000E+00 0.  1.
         25    1    1    2    0    0  0.00000000000E+00  0.00000000000E+00  0.46397383400E+03  0.48051713667E+03  0.12500000000E+03 0.  0.
<mgrwt>
<rscale>  2 0.12500000E+03</rscale>
<asrwt>0</asrwt>
<pdfrwt beam="1">  1       21 0.72653130E-01 0.12500000E+03</pdfrwt>
<pdfrwt beam="2">  1       21 0.12725621E-02 0.12500000E+03</pdfrwt>
<totfact> 0.43120776E+06</totfact>
</mgrwt>
</event>
<event>
 3    0  0.1677323E+001  0.1250000E+03  0.7546771E-02  0.1235069E+00
         21   -1    0    0  502  501  0.00000000000E+00  0.00000000000E+00  0.27044270291E+02  0.27044270291E+02  0.00000000000E+00 0. -1.
         21   -1    0    0  501  502 -0.00000000000E+00 -0.00000000000E+00 -0.14443909774E+03  0.14443909774E+03  0.00000000000E+00 0. -1.
         25    1    1    2    0    0  0.00000000000E+00  0.00000000000E+00 -0.11739482745E+03  0.17148336803E+03  0.12500000000E+03 0.  0.
<mgrwt>
<rscale>  2 0.12500000E+03</rscale>
<asrwt>0</asrwt>
<pdfrwt beam="1">  1       21 0.41606571E-02 0.12500000E+03</pdfrwt>
<pdfrwt beam="2">  1       21 0.22221399E-01 0.12500000E+03</pdfrwt>
<totfact> 0.68142225E+06</totfact>
</mgrwt>
</event>
<event>
 3    0  0.1454065E+001  0.1250000E+03  0.7546771E-02  0.1235069E+00
         21   -1    0    0  502  501  0.00000000000E+00  0.00000000000E+00  0.68360967324E+01  0.68360967324E+01  0.00000000000E+00 0.  1.
         21   -1    0    0  501  502 -0.00000000000E+00 -0.00000000000E+00 -0.57141526121E+03  0.57141526121E+03  0.00000000000E+00 0.  1.
         25    1    1    2    0    0  0.00000000000E+00  0.00000000000E+00 -0.56457916448E+03  0.57825135794E+03  0.12500000000E+03 0.  0.
<mgrwt>
<rscale>  2 0.12500000E+03</rscale>
<asrwt>0</asrwt>
<pdfrwt beam="1">  1       21 0.10517068E-02 0.12500000E+03</pdfrwt>
<pdfrwt beam="2">  1       21 0.87910073E-01 0.12500000E+03</pdfrwt>
<totfact> 0.38095015E+06</totfact>
</mgrwt>
</event>
<event>
 3    0  0.1368989E+001  0.1250000E+03  0.7546771E-02  0.1235069E+00
         21   -1    0    0  502  501  0.00000000000E+00  0.00000000000E+00  0.27354096996E+01  0.27354096996E+01  0.00000000000E+00 0. -1.
         21   -1    0    0  501  502 -0.00000000000E+00 -0.00000000000E+00 -0.14280310553E+04  0.14280310553E+04  0.00000000000E+00 0. -1.
         25    1    1    2    0    0  0.00000000000E+00  0.00000000000E+00 -0.14252956456E+04  0.14307664650E+04  0.12500000000E+03 0.  0.
<mgrwt>
<rscale>  2 0.12500000E+03</rscale>
<asrwt>0</asrwt>
<pdfrwt beam="1">  1       21 0.42083271E-03 0.12500000E+03</pdfrwt>
<pdfrwt beam="2">  1       21 0.21969685E+00 0.12500000E+03</pdfrwt>
<totfact> 0.15051577E+06</totfact>
</mgrwt>
</event>
<event>
 3    0  0.1650114E+001  0.1250000E+03  0.7546771E-02  0.1235069E+00
         21   -1    0    0  502  501  0.00000000000E+00  0.00000000000E+00  0.18822427812E+02  0.18822427812E+02  0.00000000000E+00 0.  1.
         21   -1    0    0  501  502 -0.00000000000E+00 -0.00000000000E+00 -0.20753167653E+03  0.20753167653E+03  0.00000000000E+00 0.  1.
         25    1    1    2    0    0  0.00000000000E+00  0.00000000000E+00 -0.18870924871E+03  0.22635410434E+03  0.12500000000E+03 0.  0.
<mgrwt>
<rscale>  2 0.12500000E+03</rscale>
<asrwt>0</asrwt>
<pdfrwt beam="1">  1       21 0.28957581E-02 0.12500000E+03</pdfrwt>
<pdfrwt beam="2">  1       21 0.31927950E-01 0.12500000E+03</pdfrwt>
<totfact> 0.62178691E+06</totfact>
</mgrwt>
</event>
<event>
 3    0  0.1694106E+001  0.1250000E+03  0.7546771E-02  0.1235069E+00
         21   -1    0    0  502  501  0.00000000000E+00  0.00000000000E+00  0.10711082457E+03  0.10711082457E+03  0.00000000000E+00 0. -1.
         21   -1    0    0  501  502 -0.00000000000E+00 -0.00000000000E+00 -0.36469236567E+02  0.36469236567E+02  0.00000000000E+00 0. -1.
         25    1    1    2    0    0  0.00000000000E+00  0.00000000000E+00  0.70641588000E+02  0.14358006113E+03  0.12500000000E+03 0.  0.
<mgrwt>
<rscale>  2 0.12500000E+03</rscale>
<asrwt>0</asrwt>
<pdfrwt beam="1">  1       21 0.16478588E-01 0.12500000E+03</pdfrwt>
<pdfrwt beam="2">  1       21 0.56106519E-02 0.12500000E+03</pdfrwt>
<totfact> 0.71575315E+06</totfact>
</mgrwt>
</event>
<event>
 3    0  0.1736903E+001  0.1250000E+03  0.7546771E-02  0.1235069E+00
         21   -1    0    0  502  501  0.00000000000E+00  0.00000000000E+00  0.64984549171E+02  0.64984549171E+02  0.00000000000E+00 0.  1.
         21   -1    0    0  501  502 -0.00000000000E+00 -0.00000000000E+00 -0.60110442403E+02  0.60110442403E+02  0.00000000000E+00 0.  1.
         25    1    1    2    0    0  0.00000000000E+00  0.00000000000E+00  0.48741067676E+01  0.12509499157E+03  0.12500000000E+03 0.  0.
<mgrwt>
<rscale>  2 0.12500000E+03</rscale>
<asrwt>0</asrwt>
<pdfrwt beam="1">  1       21 0.99976229E-02 0.12500000E+03</pdfrwt>
<pdfrwt beam="2">  1       21 0.92477604E-02 0.12500000E+03</pdfrwt>
<totfact> 0.74030752E+06</totfact>
</mgrwt>
</event>
<event>
 3    0  0.1730615E+001  0.1250000E+03  0.7546771E-02  0.1235069E+00
         21   -1    0    0  502  501  0.00000000000E+00  0.00000000000E+00  0.43528045709E+02  0.43528045709E+02  0.00000000000E+00 0.  1.
         21   -1    0    0  501  502 -0.00000000000E+00 -0.00000000000E+00 -0.89740991961E+02  0.89740991961E+02  0.00000000000E+00 0.  1.
         25    1    1    2    0    0  0.00000000000E+00  0.00000000000E+00 -0.46212946252E+02  0.13326903767E+03  0.12500000000E+03 0.  0.
<mgrwt>
<rscale>  2 0.12500000E+03</rscale>
<asrwt>0</asrwt>
<pdfrwt beam="1">  1       21 0.66966224E-02 0.12500000E+03</pdfrwt>
<pdfrwt beam="2">  1       21 0.13806306E-01 0.12500000E+03</pdfrwt>
<totfact> 0.72926494E+06</totfact>
</mgrwt>
</event>
<event>
 3    0  0.1433843E+001  0.1250000E+03  0.7546771E-02  0.1235069E+00
         21   -1    0    0  502  501  0.00000000000E+00  0.00000000000E+00  0.57219552242E+03  0.57219552242E+03  0.00000000000E+00 0. -1.
         21   -1    0    0  501  502 -0.00000000000E+00 -0.00000000000E+00 -0.68267748469E+01  0.68267748469E+01  0.00000000000E+00 0. -1.
         25    1    1    2    0    0  0.00000000000E+00  0.00000000000E+00  0.56536874757E+03  0.57902229727E+03  0.12500000000E+03 0.  0.
<mgrwt>
<rscale>  2 0.12500000E+03</rscale>
<asrwt>0</asrwt>
<pdfrwt beam="1">  1       21 0.88030043E-01 0.12500000E+03</pdfrwt>
<pdfrwt beam="2">  1       21 0.10502735E-02 0.12500000E+03</pdfrwt>
<totfact> 0.38058847E+06</totfact>
</mgrwt>
</event>
<event>
 3    0  0.1368989E+001  0.1250000E+03  0.7546771E-02  0.1235069E+00
         21   -1    0    0  502  501  0.00000000000E+00  0.00000000000E+00  0.93728039651E+03  0.93728039651E+03  0.00000000000E+00 0. -1.
         21   -1    0    0  501  502 -0.00000000000E+00 -0.00000000000E+00 -0.41676429109E+01  0.41676429109E+01  0.00000000000E+00 0. -1.
         25    1    1    2    0    0  0.00000000000E+00  0.00000000000E+00  0.93311275360E+03  0.94144803942E+03  0.12500000000E+03 0.  0.
<mgrwt>
<rscale>  2 0.12500000E+03</rscale>
<asrwt>0</asrwt>
<pdfrwt beam="1">  1       21 0.14419682E+00 0.12500000E+03</pdfrwt>
<pdfrwt beam="2">  1       21 0.64117658E-03 0.12500000E+03</pdfrwt>
<totfact> 0.25141810E+06</totfact>
</mgrwt>
</event>
<event>
 3    0  0.1616597E+001  0.1250000E+03  0.7546771E-02  0.1235069E+00
         21   -1    0    0  502  501  0.00000000000E+00  0.00000000000E+00  0.25346954304E+03  0.25346954304E+03  0.00000000000E+00 0. -1.
         21   -1    0    0  501  502 -0.00000000000E+00 -0.00000000000E+00 -0.15411121798E+02  0.15411121798E+02  0.00000000000E+00 0. -1.
         25    1    1    2    0    0  0.00000000000E+00  0.00000000000E+00  0.23805842124E+03  0.26888066484E+03  0.12500000000E+03 0.  0.
<mgrwt>
<rscale>  2 0.12500000E+03</rscale>
<asrwt>0</asrwt>
<pdfrwt beam="1">  1       21 0.38995311E-01 0.12500000E+03</pdfrwt>
<pdfrwt beam="2">  1       21 0.23709420E-02 0.12500000E+03</pdfrwt>
<totfact> 0.58144751E+06</totfact>
</mgrwt>
</event>
<event>
 3    0  0.1629288E+001  0.1250000E+03  0.7546771E-02  0.1235069E+00
         21   -1    0    0  502  501  0.00000000000E+00  0.00000000000E+00  0.20623304894E+03  0.20623304894E+03  0.00000000000E+00 0. -1.
         21   -1    0    0  501  502 -0.00000000000E+00 -0.00000000000E+00 -0.18940950639E+02  0.18940950639E+02  0.00000000000E+00 0. -1.
         25    1    1    2    0    0  0.00000000000E+00  0.00000000000E+00  0.18729209830E+03  0.22517399958E+03  0.12500000000E+03 0.  0.
<mgrwt>
<rscale>  2 0.12500000E+03</rscale>
<asrwt>0</asrwt>
<pdfrwt beam="1">  1       21 0.31728160E-01 0.12500000E+03</pdfrwt>
<pdfrwt beam="2">  1       21 0.29139925E-02 0.12500000E+03</pdfrwt>
<totfact> 0.62297554E+06</totfact>
</mgrwt>
</event>
<event>
 3    0  0.1577988E+001  0.1250000E+03  0.7546771E-02  0.1235069E+00
         21   -1    0    0  502  501  0.00000000000E+00  0.00000000000E+00  0.32291067753E+03  0.32291067753E+03  0.00000000000E+00 0.  1.
         21   -1    0    0  501  502 -0.00000000000E+00 -0.00000000000E+00 -0.12096998557E+02  0.12096998557E+02  0.00000000000E+00 0.  1.
         25    1    1    2    0    0  0.00000000000E+00  0.00000000000E+00  0.31081367897E+03  0.33500767609E+03  0.12500000000E+03 0.  0.
<mgrwt>
<rscale>  2 0.12500000E+03</rscale>
<asrwt>0</asrwt>
<pdfrwt beam="1">  1       21 0.49678559E-01 0.12500000E+03</pdfrwt>
<pdfrwt beam="2">  1       21 0.18610769E-02 0.12500000E+03</pdfrwt>
<totfact> 0.52665088E+06</totfact>
</mgrwt>
</event>
<event>
 3    0  0.1414528E+001  0.1250000E+03  0.7546771E-02  0.1235069E+00
         21   -1    0    0  502  501  0.00000000000E+00  0.00000000000E+00  0.70828202340E+01  0.70828202340E+01  0.00000000000E+00 0. -1.
         21   -1    0    0  501  502 -0.00000000000E+00 -0.00000000000E+00 -0.55151053831E+03  0.55151053831E+03  0.00000000000E+00 0. -1.
         25    1    1    2    0    0  0.00000000000E+00  0.00000000000E+00 -0.54442771808E+03  0.55859335855E+03  0.12500000000E+03 0.  0.
<mgrwt>
<rscale>  2 0.12500000E+03</rscale>
<asrwt>0</asrwt>
<pdfrwt beam="1">  1       21 0.10896646E-02 0.12500000E+03</pdfrwt>
<pdfrwt beam="2">  1       21 0.84847781E-01 0.12500000E+03</pdfrwt>
<totfact> 0.39034751E+06</totfact>
</mgrwt>
</event>
<event>
 3    0  0.1682765E+001  0.1250000E+03  0.7546771E-02  0.1235069E+00
         21   -1    0    0  502  501  0.00000000000E+00  0.00000000000E+00  0.15473229730E+03  0.15473229730E+03  0.00000000000E+00 0.  1.
         21   -1    0    0  501  502 -0.00000000000E+00 -0.00000000000E+00 -0.25245214271E+02  0.25245214271E+02  0.00000000000E+00 0.  1.
         25    1    1    2    0    0  0.00000000000E+00  0.00000000000E+00  0.12948708303E+03  0.17997751157E+03  0.12500000000E+03 0.  0.
<mgrwt>
<rscale>  2 0.12500000E+03</rscale>
<asrwt>0</asrwt>
<pdfrwt beam="1">  1       21 0.23804968E-01 0.12500000E+03</pdfrwt>
<pdfrwt beam="2">  1       21 0.38838792E-02 0.12500000E+03</pdfrwt>
<totfact> 0.67154117E+06</totfact>
</mgrwt>
</event>
<event>
 3    0  0.1557859E+001  0.1250000E+03  0.7546771E-02  0.1235069E+00
         21   -1    0    0  502  501  0.00000000000E+00  0.00000000000E+00  0.32183443033E+03  0.32183443033E+03  0.00000000000E+00 0. -1.
         21   -1    0    0  501  502 -0.00000000000E+00 -0.00000000000E+00 -0.12137452155E+02  0.12137452155E+02  0.00000000000E+00 0. -1.
         25    1    1    2    0    0  0.00000000000E+00  0.00000000000E+00  0.30969697818E+03  0.33397188249E+03  0.12500000000E+03 0.  0.
<mgrwt>
<rscale>  2 0.12500000E+03</rscale>
<asrwt>0</asrwt>
<pdfrwt beam="1">  1       21 0.49512983E-01 0.12500000E+03</pdfrwt>
<pdfrwt beam="2">  1       21 0.18673006E-02 0.12500000E+03</pdfrwt>
<totfact> 0.52744391E+06</totfact>
</mgrwt>
</event>
<event>
 3    0  0.1714398E+001  0.1250000E+03  0.7546771E-02  0.1235069E+00
         21   -1    0    0  502  501  0.00000000000E+00  0.00000000000E+00  0.28091241032E+02  0.28091241032E+02  0.00000000000E+00 0.  1.
         21   -1    0    0  501  502 -0.00000000000E+00 -0.00000000000E+00 -0.13905580019E+03  0.13905580019E+03  0.00000000000E+00 0.  1.
         25    1    1    2    0    0  0.00000000000E+00  0.00000000000E+00 -0.11096455916E+03  0.16714704122E+03  0.12500000000E+03 0.  0.
<mgrwt>
<rscale>  2 0.12500000E+03</rscale>
<asrwt>0</asrwt>
<pdfrwt beam="1">  1       21 0.43217294E-02 0.12500000E+03</pdfrwt>
<pdfrwt beam="2">  1       21 0.21393200E-01 0.12500000E+03</pdfrwt>
<totfact> 0.68656579E+06</totfact>
</mgrwt>
</event>
<event>
 3    0  0.1708787E+001  0.1250000E+03  0.7546771E-02  0.1235069E+00
         21   -1    0    0  502  501  0.00000000000E+00  0.00000000000E+00  0.75143349442E+02  0.75143349442E+02  0.00000000000E+00 0. -1.
         21   -1    0    0  501  502 -0.00000000000E+00 -0.00000000000E+00 -0.51983975016E+02  0.51983975016E+02  0.00000000000E+00 0. -1.
         25    1    1    2    0    0  0.00000000000E+00  0.00000000000E+00  0.23159374426E+02  0.12712732446E+03  0.12500000000E+03 0.  0.
<mgrwt>
<rscale>  2 0.12500000E+03</rscale>
<asrwt>0</asrwt>
<pdfrwt beam="1">  1       21 0.11560515E-01 0.12500000E+03</pdfrwt>
<pdfrwt beam="2">  1       21 0.79975346E-02 0.12500000E+03</pdfrwt>
<totfact> 0.73751814E+06</totfact>
</mgrwt>
</event>
<event>
 3    0  0.1388854E+001  0.1250000E+03  0.7546771E-02  0.1235069E+00
         21   -1    0    0  502  501  0.00000000000E+00  0.00000000000E+00  0.61049326414E+03  0.61049326414E+03  0.00000000000E+00 0.  1.
         21   -1    0    0  501  502 -0.00000000000E+00 -0.00000000000E+00 -0.63985144955E+01  0.63985144955E+01  0.00000000000E+00 0.  1.
         25    1    1    2    0    0  0.00000000000E+00  0.00000000000E+00  0.60409474964E+03  0.61689177863E+03  0.12500000000E+03 0.  0.
<mgrwt>
<rscale>  2 0.12500000E+03</rscale>
<asrwt>0</asrwt>
<pdfrwt beam="1">  1       21 0.93921995E-01 0.12500000E+03</pdfrwt>
<pdfrwt beam="2">  1       21 0.98438732E-03 0.12500000E+03</pdfrwt>
<totfact> 0.36339708E+06</totfact>
</mgrwt>
</event>
<event>
 3    0  0.1368989E+001  0.1250000E+03  0.7546771E-02  0.1235069E+00
         21   -1    0    0  502  501  0.00000000000E+00  0.00000000000E+00  0.29072578216E+04  0.29072578216E+04  0.00000000000E+00 0.  1.
         21   -1    0    0  501  502 -0.00000000000E+00 -0.00000000000E+00 -0.13436200845E+01  0.13436200845E+01  0.00000000000E+00 0.  1.
         25    1    1    2    0    0  0.00000000000E+00  0.00000000000E+00  0.29059142015E+04  0.29086014417E+04  0.12500000000E+03 0.  0.
<mgrwt>
<rscale>  2 0.12500000E+03</rscale>
<asrwt>0</asrwt>
<pdfrwt beam="1">  1       21 0.44726540E+00 0.12500000E+03</pdfrwt>
<pdfrwt beam="2">  1       21 0.20671311E-03 0.12500000E+03</pdfrwt>
<totfact> 0.20506059E+05</totfact>
</mgrwt>
</event>
<event>
 3    0  0.1368989E+001  0.1250000E+03  0.7546771E-02  0.1235069E+00
         21   -1    0    0  502  501  0.00000000000E+00  0.00000000000E+00  0.10236127520E+04  0.10236127520E+04  0.00000000000E+00 0.  1.
         21   -1    0    0  501  502 -0.00000000000E+00 -0.00000000000E+00 -0.38161404227E+01  0.38161404227E+01  0.00000000000E+00 0.  1.
         25    1    1    2    0    0  0.00000000000E+00  0.00000000000E+00  0.10197966116E+04  0.10274288924E+04  0.12500000000E+03 0.  0.
<mgrwt>
<rscale>  2 0.12500000E+03</rscale>
<asrwt>0</asrwt>
<pdfrwt beam="1">  1       21 0.15747867E+00 0.12500000E+03</pdfrwt>
<pdfrwt beam="2">  1       21 0.58709934E-03 0.12500000E+03</pdfrwt>
<totfact> 0.22941502E+06</totfact>
</mgrwt>
</event>
<event>
 3    0  0.1535659E+001  0.1250000E+03  0.7546771E-02  0.1235069E+00
         21   -1    0    0  502  501  0.00000000000E+00  0.00000000000E+00  0.39360210092E+03  0.39360210092E+03  0.00000000000E+00 0.  1.
         21   -1    0    0  501  502 -0.00000000000E+00 -0.00000000000E+00 -0.99243626770E+01  0.99243626770E+01  0.00000000000E+00 0.  1.
         25    1    1    2    0    0  0.00000000000E+00  0.00000000000E+00  0.38367773825E+03  0.40352646360E+03  0.12500000000E+03 0.  0.
<mgrwt>
<rscale>  2 0.12500000E+03</rscale>
<asrwt>0</asrwt>
<pdfrwt beam="1">  1       21 0.60554157E-01 0.12500000E+03</pdfrwt>
<pdfrwt beam="2">  1       21 0.15268253E-02 0.12500000E+03</pdfrwt>
<totfact> 0.47808326E+06</totfact>
</mgrwt>
</event>
<event>
 3    0  0.1711194E+001  0.1250000E+03  0.7546771E-02  0.1235069E+00
         21   -1    0    0  502  501  0.00000000000E+00  0.00000000000E+00  0.68663643189E+02  0.68663643189E+02  0.00000000000E+00 0. -1.
         21   -1    0    0  501  502 -0.00000000000E+00 -0.00000000000E+00 -0.56889640843E+02  0.56889640843E+02  0.00000000000E+00 0. -1.
         25    1    1    2    0    0  0.00000000000E+00  0.00000000000E+00  0.11774002347E+02  0.12555328403E+03  0.12500000000E+03 0.  0.
<mgrwt>
<rscale>  2 0.12500000E+03</rscale>
<asrwt>0</asrwt>
<pdfrwt beam="1">  1       21 0.10563637E-01 0.12500000E+03</pdfrwt>
<pdfrwt beam="2">  1       21 0.87522525E-02 0.12500000E+03</pdfrwt>
<totfact> 0.73967955E+06</totfact>
</mgrwt>
</event>
<event>
 3    0  0.1566574E+001  0.1250000E+03  0.7546771E-02  0.1235069E+00
         21   -1    0    0  502  501  0.00000000000E+00  0.00000000000E+00  0.13718670835E+02  0.13718670835E+02  0.00000000000E+00 0. -1.
         21   -1    0    0  501  502 -0.00000000000E+00 -0.00000000000E+00 -0.28473968410E+03  0.28473968410E+03  0.00000000000E+00 0. -1.
         25    1    1    2    0    0  0.00000000000E+00  0.00000000000E+00 -0.27102101327E+03  0.29845835494E+03  0.12500000000E+03 0.  0.
<mgrwt>
<rscale>  2 0.12500000E+03</rscale>
<asrwt>0</asrwt>
<pdfrwt beam="1">  1       21 0.21105650E-02 0.12500000E+03</pdfrwt>
<pdfrwt beam="2">  1       21 0.43806100E-01 0.12500000E+03</pdfrwt>
<totfact> 0.55584536E+06</totfact>
</mgrwt>
</event>
<event>
 3    0  0.1636252E+001  0.1250000E+03  0.7546771E-02  0.1235069E+00
         21   -1    0    0  502  501  0.00000000000E+00  0.00000000000E+00  0.20332853730E+03  0.20332853730E+03  0.00000000000E+00 0. -1.
         21   -1    0    0  501  502 -0.00000000000E+00 -0.00000000000E+00 -0.19211518717E+02  0.19211518717E+02  0.00000000000E+00 0. -1.
         25    1    1    2    0    0  0.00000000000E+00  0.00000000000E+00  0.18411701859E+03  0.22254005602E+03  0.12500000000E+03 0.  0.
<mgrwt>
<rscale>  2 0.12500000E+03</rscale>
<asrwt>0</asrwt>
<pdfrwt beam="1">  1       21 0.31281312E-01 0.12500000E+03</pdfrwt>
<pdfrwt beam="2">  1       21 0.29556184E-02 0.12500000E+03</pdfrwt>
<totfact> 0.62563848E+06</totfact>
</mgrwt>
</event>
<event>
 3    0  0.1731235E+001  0.1250000E+03  0.7546771E-02  0.1235069E+00
         21   -1    0    0  502  501  0.00000000000E+00  0.00000000000E+00  0.94648754604E+02  0.94648754604E+02  0.00000000000E+00 0.  1.
         21   -1    0    0  501  502 -0.00000000000E+00 -0.00000000000E+00 -0.41271013193E+02  0.41271013193E+02  0.00000000000E+00 0.  1.
         25    1    1    2    0    0  0.00000000000E+00  0.00000000000E+00  0.53377741411E+02  0.13591976780E+03  0.12500000000E+03 0.  0.
<mgrwt>
<rscale>  2 0.12500000E+03</rscale>
<asrwt>0</asrwt>
<pdfrwt beam="1">  1       21 0.14561347E-01 0.12500000E+03</pdfrwt>
<pdfrwt beam="2">  1       21 0.63493867E-02 0.12500000E+03</pdfrwt>
<totfact> 0.72574917E+06</totfact>
</mgrwt>
</event>
<event>
 3    0  0.1633187E+001  0.1250000E+03  0.7546771E-02  0.1235069E+00
         21   -1    0    0  502  501  0.00000000000E+00  0.00000000000E+00  0.25632925226E+03  0.25632925226E+03  0.00000000000E+00 0.  1.
         21   -1    0    0  501  502 -0.00000000000E+00 -0.00000000000E+00 -0.15239189307E+02  0.15239189307E+02  0.00000000000E+00 0.  1.
         25    1    1    2    0    0  0.00000000000E+00  0.00000000000E+00  0.24109006295E+03  0.27156844156E+03  0.12500000000E+03 0.  0.
<mgrwt>
<rscale>  2 0.12500000E+03</rscale>
<asrwt>0</asrwt>
<pdfrwt beam="1">  1       21 0.39435266E-01 0.12500000E+03</pdfrwt>
<pdfrwt beam="2">  1       21 0.23444908E-02 0.12500000E+03</pdfrwt>
<totfact> 0.57904910E+06</totfact>
</mgrwt>
</event>
<event>
 3    0  0.1604838E+001  0.1250000E+03  0.7546771E-02  0.1235069E+00
         21   -1    0    0  502  501  0.00000000000E+00  0.00000000000E+00  0.13353880529E+02  0.13353880529E+02  0.00000000000E+00 0.  1.
         21   -1    0    0  501  502 -0.00000000000E+00 -0.00000000000E+00 -0.29251796821E+03  0.29251796821E+03  0.00000000000E+00 0.  1.
         25    1    1    2    0    0  0.00000000000E+00  0.00000000000E+00 -0.27916408768E+03  0.30587184874E+03  0.12500000000E+03 0.  0.
<mgrwt>
<rscale>  2 0.12500000E+03</rscale>
<asrwt>0</asrwt>
<pdfrwt beam="1">  1       21 0.20544433E-02 0.12500000E+03</pdfrwt>
<pdfrwt beam="2">  1       21 0.45002761E-01 0.12500000E+03</pdfrwt>
<totfact> 0.54971705E+06</totfact>
</mgrwt>
</event>
<event>
 3    0  0.1650600E+001  0.1250000E+03  0.7546771E-02  0.1235069E+00
         21   -1    0    0  502  501  0.00000000000E+00  0.00000000000E+00  0.21669366221E+02  0.21669366221E+02  0.00000000000E+00 0. -1.
         21   -1    0    0  501  502 -0.00000000000E+00 -0.00000000000E+00 -0.18026600133E+03  0.18026600133E+03  0.00000000000E+00 0. -1.
         25    1    1    2    0    0  0.00000000000E+00  0.00000000000E+00 -0.15859663511E+03  0.20193536755E+03  0.12500000000E+03 0.  0.
<mgrwt>
<rscale>  2 0.12500000E+03</rscale>
<asrwt>0</asrwt>
<pdfrwt beam="1">  1       21 0.33337488E-02 0.12500000E+03</pdfrwt>
<pdfrwt beam="2">  1       21 0.27733230E-01 0.12500000E+03</pdfrwt>
<totfact> 0.64718144E+06</totfact>
</mgrwt>
</event>
<event>
 3    0  0.1522375E+001  0.1250000E+03  0.7546771E-02  0.1235069E+00
         21   -1    0    0  502  501  0.00000000000E+00  0.00000000000E+00  0.11202515543E+02  0.11202515543E+02  0.00000000000E+00 0. -1.
         21   -1    0    0  501  502 -0.00000000000E+00 -0.00000000000E+00 -0.34869400403E+03  0.34869400403E+03  0.00000000000E+00 0. -1.
         25    1    1    2    0    0  0.00000000000E+00  0.00000000000E+00 -0.33749148848E+03  0.35989651957E+03  0.12500000000E+03 0.  0.
<mgrwt>
<rscale>  2 0.12500000E+03</rscale>
<asrwt>0</asrwt>
<pdfrwt beam="1">  1       21 0.17234639E-02 0.12500000E+03</pdfrwt>
<pdfrwt beam="2">  1       21 0.53645231E-01 0.12500000E+03</pdfrwt>
<totfact> 0.50815749E+06</totfact>
</mgrwt>
</event>
<event>
 3    0  0.1492842E+001  0.1250000E+03  0.7546771E-02  0.1235069E+00
         21   -1    0    0  502  501  0.00000000000E+00  0.00000000000E+00  0.89630236200E+01  0.89630236200E+01  0.00000000000E+00 0.  1.
         21   -1    0    0  501  502 -0.00000000000E+00 -0.00000000000E+00 -0.43581833158E+03  0.43581833158E+03  0.00000000000E+00 0.  1.
         25    1    1    2    0    0  0.00000000000E+00  0.00000000000E+00 -0.42685530796E+03  0.44478135520E+03  0.12500000000E+03 0.  0.
<mgrwt>
<rscale>  2 0.12500000E+03</rscale>
<asrwt>0</asrwt>
<pdfrwt beam="1">  1       21 0.13789266E-02 0.12500000E+03</pdfrwt>
<pdfrwt beam="2">  1       21 0.67048980E-01 0.12500000E+03</pdfrwt>
<totfact> 0.45206193E+06</totfact>
</mgrwt>
</event>
<event>
 3    0  0.1732426E+001  0.1250000E+03  0.7546771E-02  0.1235069E+00
         21   -1    0    0  502  501  0.00000000000E+00  0.00000000000E+00  0.47697244827E+02  0.47697244827E+02  0.00000000000E+00 0.  1.
         21   -1    0    0  501  502 -0.00000000000E+00 -0.00000000000E+00 -0.81896763935E+02  0.81896763935E+02  0.00000000000E+00 0.  1.
         25    1    1    2    0    0  0.00000000000E+00  0.00000000000E+00 -0.34199519108E+02  0.12959400876E+03  0.12500000000E+03 0.  0.
<mgrwt>
<rscale>  2 0.12500000E+03</rscale>
<asrwt>0</asrwt>
<pdfrwt beam="1">  1       21 0.73380377E-02 0.12500000E+03</pdfrwt>
<pdfrwt beam="2">  1       21 0.12599502E-01 0.12500000E+03</pdfrwt>
<totfact> 0.73419226E+06</totfact>
</mgrwt>
</event>
<event>
 3    0  0.1706224E+001  0.1250000E+03  0.7546771E-02  0.1235069E+00
         21   -1    0    0  502  501  0.00000000000E+00  0.00000000000E+00  0.47033196597E+02  0.47033196597E+02  0.00000000000E+00 0. -1.
         21   -1    0    0  501  502 -0.00000000000E+00 -0.00000000000E+00 -0.83053040887E+02  0.83053040887E+02  0.00000000000E+00 0. -1.
         25    1    1    2    0    0  0.00000000000E+00  0.00000000000E+00 -0.36019844290E+02  0.13008623748E+03  0.12500000000E+03 0.  0.
<mgrwt>
<rscale>  2 0.12500000E+03</rscale>
<asrwt>0</asrwt>
<pdfrwt beam="1">  1       21 0.72358765E-02 0.12500000E+03</pdfrwt>
<pdfrwt beam="2">  1       21 0.12777391E-01 0.12500000E+03</pdfrwt>
<totfact> 0.73353392E+06</totfact>
</mgrwt>
</event>
<event>
 3    0  0.1734296E+001  0.1250000E+03  0.7546771E-02  0.1235069E+00
         21   -1    0    0  502  501  0.00000000000E+00  0.00000000000E+00  0.48558150371E+02  0.48558150371E+02  0.00000000000E+00 0.  1.
         21   -1    0    0  501  502 -0.00000000000E+00 -0.00000000000E+00 -0.80444785688E+02  0.80444785688E+02  0.00000000000E+00 0.  1.
         25    1    1    2    0    0  0.00000000000E+00  0.00000000000E+00 -0.31886635317E+02  0.12900293606E+03  0.12500000000E+03 0.  0.
<mgrwt>
<rscale>  2 0.12500000E+03</rscale>
<asrwt>0</asrwt>
<pdfrwt beam="1">  1       21 0.74704848E-02 0.12500000E+03</pdfrwt>
<pdfrwt beam="2">  1       21 0.12376121E-01 0.12500000E+03</pdfrwt>
<totfact> 0.73498486E+06</totfact>
</mgrwt>
</event>
<event>
 3    0  0.1550724E+001  0.1250000E+03  0.7546771E-02  0.1235069E+00
         21   -1    0    0  502  501  0.00000000000E+00  0.00000000000E+00  0.30670895071E+03  0.30670895071E+03  0.00000000000E+00 0. -1.
         21   -1    0    0  501  502 -0.00000000000E+00 -0.00000000000E+00 -0.12736015662E+02  0.12736015662E+02  0.00000000000E+00 0. -1.
         25    1    1    2    0    0  0.00000000000E+00  0.00000000000E+00  0.29397293504E+03  0.31944496637E+03  0.12500000000E+03 0.  0.
<mgrwt>
<rscale>  2 0.12500000E+03</rscale>
<asrwt>0</asrwt>
<pdfrwt beam="1">  1       21 0.47185987E-01 0.12500000E+03</pdfrwt>
<pdfrwt beam="2">  1       21 0.19593873E-02 0.12500000E+03</pdfrwt>
<totfact> 0.53877358E+06</totfact>
</mgrwt>
</event>
<event>
 3    0  0.1368989E+001  0.1250000E+03  0.7546771E-02  0.1235069E+00
         21   -1    0    0  502  501  0.00000000000E+00  0.00000000000E+00  0.10404976548E+04  0.10404976548E+04  0.00000000000E+00 0.  1.
         21   -1    0    0  501  502 -0.00000000000E+00 -0.00000000000E+00 -0.37542131710E+01  0.37542131710E+01  0.00000000000E+00 0.  1.
         25    1    1    2    0    0  0.00000000000E+00  0.00000000000E+00  0.10367434416E+04  0.10442518680E+04  0.12500000000E+03 0.  0.
<mgrwt>
<rscale>  2 0.12500000E+03</rscale>
<asrwt>0</asrwt>
<pdfrwt beam="1">  1       21 0.16007633E+00 0.12500000E+03</pdfrwt>
<pdfrwt beam="2">  1       21 0.57757208E-03 0.12500000E+03</pdfrwt>
<totfact> 0.22535717E+06</totfact>
</mgrwt>
</event>
<event>
 3    0  0.1694387E+001  0.1250000E+03  0.7546771E-02  0.1235069E+00
         21   -1    0    0  502  501  0.00000000000E+00  0.00000000000E+00  0.36498396400E+02  0.36498396400E+02  0.00000000000E+00 0. -1.
         21   -1    0    0  501  502 -0.00000000000E+00 -0.00000000000E+00 -0.10702525002E+03  0.10702525002E+03  0.00000000000E+00 0. -1.
         25    1    1    2    0    0  0.00000000000E+00  0.00000000000E+00 -0.70526853619E+02  0.14352364642E+03  0.12500000000E+03 0.  0.
<mgrwt>
<rscale>  2 0.12500000E+03</rscale>
<asrwt>0</asrwt>
<pdfrwt beam="1">  1       21 0.56151380E-02 0.12500000E+03</pdfrwt>
<pdfrwt beam="2">  1       21 0.16465423E-01 0.12500000E+03</pdfrwt>
<totfact> 0.71582576E+06</totfact>
</mgrwt>
</event>
<event>
 3    0  0.1368989E+001  0.1250000E+03  0.7546771E-02  0.1235069E+00
         21   -1    0    0  502  501  0.00000000000E+00  0.00000000000E+00  0.12544120914E+04  0.12544120914E+04  0.00000000000E+00 0. -1.
         21   -1    0    0  501  502 -0.00000000000E+00 -0.00000000000E+00 -0.31140085676E+01  0.31140085676E+01  0.00000000000E+00 0. -1.
         25    1    1    2    0    0  0.00000000000E+00  0.00000000000E+00  0.12512980829E+04  0.12575261000E+04  0.12500000000E+03 0.  0.
<mgrwt>
<rscale>  2 0.12500000E+03</rscale>
<asrwt>0</asrwt>
<pdfrwt beam="1">  1       21 0.19298607E+00 0.12500000E+03</pdfrwt>
<pdfrwt beam="2">  1       21 0.47907924E-03 0.12500000E+03</pdfrwt>
<totfact> 0.18032643E+06</totfact>
</mgrwt>
</event>
