<event>
 3    0  0.1513436E+001  0.1250000E+03  0.7546771E-02  0.1235069E+00
         21   -1    0    0  502  501  0.00000000000E+00  0.00000000000E+00  0.42211207614E+03  0.42211207614E+03  0.00000000000E+00 0.  1.
         21   -1    0    0  501  502 -0.00000000000E+00 -0.00000000000E+00 -0.92540588644E+01  0.92540588644E+01  0.00000000000E+00 0.  1.
         25    1    1    2    0    0  0.00000000000E+00  0.00000000000E+00  0.41285801728E+03  0.43136613501E+03  0.12500000000E+03 0.  0.
<mgrwt>
<rscale>  2 0.12500000E+03</rscale>
<asrwt>0</asrwt>
<pdfrwt beam="1">  1       21 0.64940304E-01 0.12500000E+03</pdfrwt>
<pdfrwt beam="2">  1       21 0.14237017E-02 0.12500000E+03</pdfrwt>
<totfact> 0.46028159E+06</totfact>
</mgrwt>
</event>
<event>
 3    0  0.1643783E+001  0.1250000E+03  0.7546771E-02  0.1235069E+00
         21   -1    0    0  502  501  0.00000000000E+00  0.00000000000E+00  0.18009993313E+03  0.18009993313E+03  0.00000000000E+00 0. -1.
         21   -1    0    0  501  502 -0.00000000000E+00 -0.00000000000E+00 -0.21689347309E+02  0.21689347309E+02  0.00000000000E+00 0. -1.
         25    1    1    2    0    0  0.00000000000E+00  0.00000000000E+00  0.15841058583E+03  0.20178928044E+03  0.12500000000E+03 0.  0.
<mgrwt>
<rscale>  2 0.12500000E+03</rscale>
<asrwt>0</asrwt>
<pdfrwt beam="1">  1       21 0.27707681E-01 0.12500000E+03</pdfrwt>
<pdfrwt beam="2">  1       21 0.33368228E-02 0.12500000E+03</pdfrwt>
<totfact> 0.64733887E+06</totfact>
</mgrwt>
</event>
<event>
 3    0  0.1487976E+001  0.1250000E+03  0.7546771E-02  0.1235069E+00
         21   -1    0    0  502  501  0.00000000000E+00  0.00000000000E+00  0.80951046792E+01  0.80951046792E+01  0.00000000000E+00 0.  1.
         21   -1    0    0  501  502 -0.00000000000E+00 -0.00000000000E+00 -0.48254471743E+03  0.48254471743E+03  0.00000000000E+00 0.  1.
         25    1    1    2    0    0  0.00000000000E+00  0.00000000000E+00 -0.47444961275E+03  0.49063982211E+03  0.12500000000E+03 0.  0.
<mgrwt>
<rscale>  2 0.12500000E+03</rscale>
<asrwt>0</asrwt>
<pdfrwt beam="1">  1       21 0.12454011E-02 0.12500000E+03</pdfrwt>
<pdfrwt beam="2">  1       21 0.74237626E-01 0.12500000E+03</pdfrwt>
<totfact> 0.42556294E+06</totfact>
</mgrwt>
</event>
<event>
 3    0  0.1648850E+001  0.1250000E+03  0.7546771E-02  0.1235069E+00
         21   -1    0    0  502  501  0.00000000000E+00  0.00000000000E+00  0.16210888362E+03  0.16210888362E+03  0.00000000000E+00 0. -1.
         21   -1    0    0  501  502 -0.00000000000E+00 -0.00000000000E+00 -0.24096458583E+02  0.24096458583E+02  0.00000000000E+00 0. -1.
         25    1    1    2    0    0  0.00000000000E+00  0.00000000000E+00  0.13801242504E+03  0.18620534220E+03  0.12500000000E+03 0.  0.
<mgrwt>
<rscale>  2 0.12500000E+03</rscale>
<asrwt>0</asrwt>
<pdfrwt beam="1">  1       21 0.24939828E-01 0.12500000E+03</pdfrwt>
<pdfrwt beam="2">  1       21 0.37071476E-02 0.12500000E+03</pdfrwt>
<totfact> 0.66446710E+06</totfact>
</mgrwt>
</event>
<event>
 3    0  0.1727564E+001  0.1250000E+03  0.7546771E-02  0.1235069E+00
         21   -1    0    0  502  501  0.00000000000E+00  0.00000000000E+00  0.48691903001E+02  0.48691903001E+02  0.00000000000E+00 0.  1.
         21   -1    0    0  501  502 -0.00000000000E+00 -0.00000000000E+00 -0.80223810516E+02  0.80223810516E+02  0.00000000000E+00 0.  1.
         25    1    1    2    0    0  0.00000000000E+00  0.00000000000E+00 -0.31531907515E+02  0.12891571352E+03  0.12500000000E+03 0.  0.
<mgrwt>
<rscale>  2 0.12500000E+03</rscale>
<asrwt>0</asrwt>
<pdfrwt beam="1">  1       21 0.74910620E-02 0.12500000E+03</pdfrwt>
<pdfrwt beam="2">  1       21 0.12342125E-01 0.12500000E+03</pdfrwt>
<totfact> 0.73510203E+06</totfact>
</mgrwt>
</event>
<event>
 3    0  0.1704961E+001  0.1250000E+03  0.7546771E-02  0.1235069E+00
         21   -1    0    0  502  501  0.00000000000E+00  0.00000000000E+00  0.31370026879E+02  0.31370026879E+02  0.00000000000E+00 0.  1.
         21   -1    0    0  501  502 -0.00000000000E+00 -0.00000000000E+00 -0.12452172945E+03  0.12452172945E+03  0.00000000000E+00 0.  1.
         25    1    1    2    0    0  0.00000000000E+00  0.00000000000E+00 -0.93151702575E+02  0.15589175633E+03  0.12500000000E+03 0.  0.
<mgrwt>
<rscale>  2 0.12500000E+03</rscale>
<asrwt>0</asrwt>
<pdfrwt beam="1">  1       21 0.48261580E-02 0.12500000E+03</pdfrwt>
<pdfrwt beam="2">  1       21 0.19157189E-01 0.12500000E+03</pdfrwt>
<totfact> 0.70024994E+06</totfact>
</mgrwt>
</event>
<event>
 3    0  0.1688193E+001  0.1250000E+03  0.7546771E-02  0.1235069E+00
         21   -1    0    0  502  501  0.00000000000E+00  0.00000000000E+00  0.11351606298E+03  0.11351606298E+03  0.00000000000E+00 0. -1.
         21   -1    0    0  501  502 -0.00000000000E+00 -0.00000000000E+00 -0.34411429513E+02  0.34411429513E+02  0.00000000000E+00 0. -1.
         25    1    1    2    0    0  0.00000000000E+00  0.00000000000E+00  0.79104633471E+02  0.14792749250E+03  0.12500000000E+03 0.  0.
<mgrwt>
<rscale>  2 0.12500000E+03</rscale>
<asrwt>0</asrwt>
<pdfrwt beam="1">  1       21 0.17464010E-01 0.12500000E+03</pdfrwt>
<pdfrwt beam="2">  1       21 0.52940661E-02 0.12500000E+03</pdfrwt>
<totfact> 0.71020526E+06</totfact>
</mgrwt>
</event>
<event>
 3    0  0.1546500E+001  0.1250000E+03  0.7546771E-02  0.1235069E+00
         21   -1    0    0  502  501  0.00000000000E+00  0.00000000000E+00  0.35837766806E+03  0.35837766806E+03  0.00000000000E+00 0. -1.
         21   -1    0    0  501  502 -0.00000000000E+00 -0.00000000000E+00 -0.10899814213E+02  0.10899814213E+02  0.00000000000E+00 0. -1.
         25    1    1    2    0    0  0.00000000000E+00  0.00000000000E+00  0.34747785384E+03  0.36927748227E+03  0.12500000000E+03 0.  0.
<mgrwt>
<rscale>  2 0.12500000E+03</rscale>
<asrwt>0</asrwt>
<pdfrwt beam="1">  1       21 0.55135017E-01 0.12500000E+03</pdfrwt>
<pdfrwt beam="2">  1       21 0.16768948E-02 0.12500000E+03</pdfrwt>
<totfact> 0.50145495E+06</totfact>
</mgrwt>
</event>
<event>
 3    0  0.1609460E+001  0.1250000E+03  0.7546771E-02  0.1235069E+00
         21   -1    0    0  502  501  0.00000000000E+00  0.00000000000E+00  0.13579618308E+02  0.13579618308E+02  0.00000000000E+00 0.  1.
         21   -1    0    0  501  502 -0.00000000000E+00 -0.00000000000E+00 -0.28765536051E+03  0.28765536051E+03  0.00000000000E+00 0.  1.
         25    1    1    2    0    0  0.00000000000E+00  0.00000000000E+00 -0.27407574220E+03  0.30123497882E+03  0.12500000000E+03 0.  0.
<mgrwt>
<rscale>  2 0.12500000E+03</rscale>
<asrwt>0</asrwt>
<pdfrwt beam="1">  1       21 0.20891722E-02 0.12500000E+03</pdfrwt>
<pdfrwt beam="2">  1       21 0.44254667E-01 0.12500000E+03</pdfrwt>
<totfact> 0.55353700E+06</totfact>
</mgrwt>
</event>
<event>
 3    0  0.1639203E+001  0.1250000E+03  0.7546771E-02  0.1235069E+00
         21   -1    0    0  502  501  0.00000000000E+00  0.00000000000E+00  0.23815047807E+03  0.23815047807E+03  0.00000000000E+00 0.  1.
         21   -1    0    0  501  502 -0.00000000000E+00 -0.00000000000E+00 -0.16402444503E+02  0.16402444503E+02  0.00000000000E+00 0.  1.
         25    1    1    2    0    0  0.00000000000E+00  0.00000000000E+00  0.22174803357E+03  0.25455292258E+03  0.12500000000E+03 0.  0.
<mgrwt>
<rscale>  2 0.12500000E+03</rscale>
<asrwt>0</asrwt>
<pdfrwt beam="1">  1       21 0.36638533E-01 0.12500000E+03</pdfrwt>
<pdfrwt beam="2">  1       21 0.25234532E-02 0.12500000E+03</pdfrwt>
<totfact> 0.59452168E+06</totfact>
</mgrwt>
</event>
<event>
 3    0  0.1579855E+001  0.1250000E+03  0.7546771E-02  0.1235069E+00
         21   -1    0    0  502  501  0.00000000000E+00  0.00000000000E+00  0.14152183166E+02  0.14152183166E+02  0.00000000000E+00 0. -1.
         21   -1    0    0  501  502 -0.00000000000E+00 -0.00000000000E+00 -0.27601748466E+03  0.27601748466E+03  0.00000000000E+00 0. -1.
         25    1    1    2    0    0  0.00000000000E+00  0.00000000000E+00 -0.26186530150E+03  0.29016966783E+03  0.12500000000E+03 0.  0.
<mgrwt>
<rscale>  2 0.12500000E+03</rscale>
<asrwt>0</asrwt>
<pdfrwt beam="1">  1       21 0.21772592E-02 0.12500000E+03</pdfrwt>
<pdfrwt beam="2">  1       21 0.42464223E-01 0.12500000E+03</pdfrwt>
<totfact> 0.56283139E+06</totfact>
</mgrwt>
</event>
<event>
 3    0  0.1368989E+001  0.1250000E+03  0.7546771E-02  0.1235069E+00
         21   -1    0    0  502  501  0.00000000000E+00  0.00000000000E+00  0.21771932980E+04  0.21771932980E+04  0.00000000000E+00 0. -1.
         21   -1    0    0  501  502 -0.00000000000E+00 -0.00000000000E+00 -0.17941677496E+01  0.17941677496E+01  0.00000000000E+00 0. -1.
         25    1    1    2    0    0  0.00000000000E+00  0.00000000000E+00  0.21753991303E+04  0.21789874658E+04  0.12500000000E+03 0.  0.
<mgrwt>
<rscale>  2 0.12500000E+03</rscale>
<asrwt>0</asrwt>
<pdfrwt beam="1">  1       21 0.33495070E+00 0.12500000E+03</pdfrwt>
<pdfrwt beam="2">  1       21 0.27602755E-03 0.12500000E+03</pdfrwt>
<totfact> 0.63309413E+05</totfact>
</mgrwt>
</event>
<event>
 3    0  0.1716767E+001  0.1250000E+03  0.7546771E-02  0.1235069E+00
         21   -1    0    0  502  501  0.00000000000E+00  0.00000000000E+00  0.10148325416E+03  0.10148325416E+03  0.00000000000E+00 0.  1.
         21   -1    0    0  501  502 -0.00000000000E+00 -0.00000000000E+00 -0.38491572156E+02  0.38491572156E+02  0.00000000000E+00 0.  1.
         25    1    1    2    0    0  0.00000000000E+00  0.00000000000E+00  0.62991682002E+02  0.13997482631E+03  0.12500000000E+03 0.  0.
<mgrwt>
<rscale>  2 0.12500000E+03</rscale>
<asrwt>0</asrwt>
<pdfrwt beam="1">  1       21 0.15612808E-01 0.12500000E+03</pdfrwt>
<pdfrwt beam="2">  1       21 0.59217804E-02 0.12500000E+03</pdfrwt>
<totfact> 0.72042595E+06</totfact>
</mgrwt>
</event>
<event>
 3    0  0.1545634E+001  0.1250000E+03  0.7546771E-02  0.1235069E+00
         21   -1    0    0  502  501  0.00000000000E+00  0.00000000000E+00  0.12762872964E+02  0.12762872964E+02  0.00000000000E+00 0. -1.
         21   -1    0    0  501  502 -0.00000000000E+00 -0.00000000000E+00 -0.30606353374E+03  0.30606353374E+03  0.00000000000E+00 0. -1.
         25    1    1    2    0    0  0.00000000000E+00  0.00000000000E+00 -0.29330066078E+03  0.31882640670E+03  0.12500000000E+03 0.  0.
<mgrwt>
<rscale>  2 0.12500000E+03</rscale>
<asrwt>0</asrwt>
<pdfrwt beam="1">  1       21 0.19635191E-02 0.12500000E+03</pdfrwt>
<pdfrwt beam="2">  1       21 0.47086693E-01 0.12500000E+03</pdfrwt>
<totfact> 0.53926477E+06</totfact>
</mgrwt>
</event>
<event>
 3    0  0.1385161E+001  0.1250000E+03  0.7546771E-02  0.1235069E+00
         21   -1    0    0  502  501  0.00000000000E+00  0.00000000000E+00  0.52625768270E+01  0.52625768270E+01  0.00000000000E+00 0.  1.
         21   -1    0    0  501  502 -0.00000000000E+00 -0.00000000000E+00 -0.74226944867E+03  0.74226944867E+03  0.00000000000E+00 0.  1.
         25    1    1    2    0    0  0.00000000000E+00  0.00000000000E+00 -0.73700687185E+03  0.74753202550E+03  0.12500000000E+03 0.  0.
<mgrwt>
<rscale>  2 0.12500000E+03</rscale>
<asrwt>0</asrwt>
<pdfrwt beam="1">  1       21 0.80962745E-03 0.12500000E+03</pdfrwt>
<pdfrwt beam="2">  1       21 0.11419527E+00 0.12500000E+03</pdfrwt>
<totfact> 0.31155859E+06</totfact>
</mgrwt>
</event>
<event>
 3    0  0.1619799E+001  0.1250000E+03  0.7546771E-02  0.1235069E+00
         21   -1    0    0  502  501  0.00000000000E+00  0.00000000000E+00  0.20745198162E+03  0.20745198162E+03  0.00000000000E+00 0. -1.
         21   -1    0    0  501  502 -0.00000000000E+00 -0.00000000000E+00 -0.18829658649E+02  0.18829658649E+02  0.00000000000E+00 0. -1.
         25    1    1    2    0    0  0.00000000000E+00  0.00000000000E+00  0.18862232297E+03  0.22628164027E+03  0.12500000000E+03 0.  0.
<mgrwt>
<rscale>  2 0.12500000E+03</rscale>
<asrwt>0</asrwt>
<pdfrwt beam="1">  1       21 0.31915688E-01 0.12500000E+03</pdfrwt>
<pdfrwt beam="2">  1       21 0.28968707E-02 0.12500000E+03</pdfrwt>
<totfact> 0.62185979E+06</totfact>
</mgrwt>
</event>
<event>
 3    0  0.1728229E+001  0.1250000E+03  0.7546771E-02  0.1235069E+00
         21   -1    0    0  502  501  0.00000000000E+00  0.00000000000E+00  0.53184215563E+02  0.53184215563E+02  0.00000000000E+00 0.  1.
         21   -1    0    0  501  502 -0.00000000000E+00 -0.00000000000E+00 -0.73447543761E+02  0.73447543761E+02  0.00000000000E+00 0.  1.
         25    1    1    2    0    0  0.00000000000E+00  0.00000000000E+00 -0.20263328198E+02  0.12663175932E+03  0.12500000000E+03 0.  0.
<mgrwt>
<rscale>  2 0.12500000E+03</rscale>
<asrwt>0</asrwt>
<pdfrwt beam="1">  1       21 0.81821870E-02 0.12500000E+03</pdfrwt>
<pdfrwt beam="2">  1       21 0.11299622E-01 0.12500000E+03</pdfrwt>
<totfact> 0.73819356E+06</totfact>
</mgrwt>
</event>
<event>
 3    0  0.1705680E+001  0.1250000E+03  0.7546771E-02  0.1235069E+00
         21   -1    0    0  502  501  0.00000000000E+00  0.00000000000E+00  0.33532773945E+02  0.33532773945E+02  0.00000000000E+00 0.  1.
         21   -1    0    0  501  502 -0.00000000000E+00 -0.00000000000E+00 -0.11649051183E+03  0.11649051183E+03  0.00000000000E+00 0.  1.
         25    1    1    2    0    0  0.00000000000E+00  0.00000000000E+00 -0.82957737888E+02  0.15002328578E+03  0.12500000000E+03 0.  0.
<mgrwt>
<rscale>  2 0.12500000E+03</rscale>
<asrwt>0</asrwt>
<pdfrwt beam="1">  1       21 0.51588883E-02 0.12500000E+03</pdfrwt>
<pdfrwt beam="2">  1       21 0.17921617E-01 0.12500000E+03</pdfrwt>
<totfact> 0.70756276E+06</totfact>
</mgrwt>
</event>
<event>
 3    0  0.1368989E+001  0.1250000E+03  0.7546771E-02  0.1235069E+00
         21   -1    0    0  502  501  0.00000000000E+00  0.00000000000E+00  0.22520615395E+04  0.22520615395E+04  0.00000000000E+00 0.  1.
         21   -1    0    0  501  502 -0.00000000000E+00 -0.00000000000E+00 -0.17345218732E+01  0.17345218732E+01  0.00000000000E+00 0.  1.
         25    1    1    2    0    0  0.00000000000E+00  0.00000000000E+00  0.22503270177E+04  0.22537960614E+04  0.12500000000E+03 0.  0.
<mgrwt>
<rscale>  2 0.12500000E+03</rscale>
<asrwt>0</asrwt>
<pdfrwt beam="1">  1       21 0.34646867E+00 0.12500000E+03</pdfrwt>
<pdfrwt beam="2">  1       21 0.26685132E-03 0.12500000E+03</pdfrwt>
<totfact> 0.57275221E+05</totfact>
</mgrwt>
</event>
<event>
 3    0  0.1368989E+001  0.1250000E+03  0.7546771E-02  0.1235069E+00
         21   -1    0    0  502  501  0.00000000000E+00  0.00000000000E+00  0.40669693696E+01  0.40669693696E+01  0.00000000000E+00 0. -1.
         21   -1    0    0  501  502 -0.00000000000E+00 -0.00000000000E+00 -0.96048178510E+03  0.96048178510E+03  0.00000000000E+00 0. -1.
         25    1    1    2    0    0  0.00000000000E+00  0.00000000000E+00 -0.95641481573E+03  0.96454875447E+03  0.12500000000E+03 0.  0.
<mgrwt>
<rscale>  2 0.12500000E+03</rscale>
<asrwt>0</asrwt>
<pdfrwt beam="1">  1       21 0.62568774E-03 0.12500000E+03</pdfrwt>
<pdfrwt beam="2">  1       21 0.14776639E+00 0.12500000E+03</pdfrwt>
<totfact> 0.24525891E+06</totfact>
</mgrwt>
</event>
<event>
 3    0  0.1473467E+001  0.1250000E+03  0.7546771E-02  0.1235069E+00
         21   -1    0    0  502  501  0.00000000000E+00  0.00000000000E+00  0.75794894644E+01  0.75794894644E+01  0.00000000000E+00 0. -1.
         21   -1    0    0  501  502 -0.00000000000E+00 -0.00000000000E+00 -0.51537112339E+03  0.51537112339E+03  0.00000000000E+00 0. -1.
         25    1    1    2    0    0  0.00000000000E+00  0.00000000000E+00 -0.50779163392E+03  0.52295061285E+03  0.12500000000E+03 0.  0.
<mgrwt>
<rscale>  2 0.12500000E+03</rscale>
<asrwt>0</asrwt>
<pdfrwt beam="1">  1       21 0.11660752E-02 0.12500000E+03</pdfrwt>
<pdfrwt beam="2">  1       21 0.79287870E-01 0.12500000E+03</pdfrwt>
<totfact> 0.40826144E+06</totfact>
</mgrwt>
</event>
<event>
 3    0  0.1722391E+001  0.1250000E+03  0.7546771E-02  0.1235069E+00
         21   -1    0    0  502  501  0.00000000000E+00  0.00000000000E+00  0.43165572397E+02  0.43165572397E+02  0.00000000000E+00 0.  1.
         21   -1    0    0  501  502 -0.00000000000E+00 -0.00000000000E+00 -0.90494572018E+02  0.90494572018E+02  0.00000000000E+00 0.  1.
         25    1    1    2    0    0  0.00000000000E+00  0.00000000000E+00 -0.47328999620E+02  0.13366014442E+03  0.12500000000E+03 0.  0.
<mgrwt>
<rscale>  2 0.12500000E+03</rscale>
<asrwt>0</asrwt>
<pdfrwt beam="1">  1       21 0.66408574E-02 0.12500000E+03</pdfrwt>
<pdfrwt beam="2">  1       21 0.13922242E-01 0.12500000E+03</pdfrwt>
<totfact> 0.72874373E+06</totfact>
</mgrwt>
</event>
<event>
 3    0  0.1676084E+001  0.1250000E+03  0.7546771E-02  0.1235069E+00
         21   -1    0    0  502  501  0.00000000000E+00  0.00000000000E+00  0.22855263508E+02  0.22855263508E+02  0.00000000000E+00 0.  1.
         21   -1    0    0  501  502 -0.00000000000E+00 -0.00000000000E+00 -0.17091249019E+03  0.17091249019E+03  0.00000000000E+00 0.  1.
         25    1    1    2    0    0  0.00000000000E+00  0.00000000000E+00 -0.14805722668E+03  0.19376775369E+03  0.12500000000E+03 0.  0.
<mgrwt>
<rscale>  2 0.12500000E+03</rscale>
<asrwt>0</asrwt>
<pdfrwt beam="1">  1       21 0.35161944E-02 0.12500000E+03</pdfrwt>
<pdfrwt beam="2">  1       21 0.26294229E-01 0.12500000E+03</pdfrwt>
<totfact> 0.65606141E+06</totfact>
</mgrwt>
</event>
<event>
 3    0  0.1705409E+001  0.1250000E+03  0.7546771E-02  0.1235069E+00
         21   -1    0    0  502  501  0.00000000000E+00  0.00000000000E+00  0.59686793979E+02  0.59686793979E+02  0.00000000000E+00 0. -1.
         21   -1    0    0  501  502 -0.00000000000E+00 -0.00000000000E+00 -0.65445800312E+02  0.65445800312E+02  0.00000000000E+00 0. -1.
         25    1    1    2    0    0  0.00000000000E+00  0.00000000000E+00 -0.57590063327E+01  0.12513259429E+03  0.12500000000E+03 0.  0.
<mgrwt>
<rscale>  2 0.12500000E+03</rscale>
<asrwt>0</asrwt>
<pdfrwt beam="1">  1       21 0.91825837E-02 0.12500000E+03</pdfrwt>
<pdfrwt beam="2">  1       21 0.10068585E-01 0.12500000E+03</pdfrwt>
<totfact> 0.74025674E+06</totfact>
</mgrwt>
</event>
<event>
 3    0  0.1651919E+001  0.1250000E+03  0.7546771E-02  0.1235069E+00
         21   -1    0    0  502  501  0.00000000000E+00  0.00000000000E+00  0.16081757689E+03  0.16081757689E+03  0.00000000000E+00 0. -1.
         21   -1    0    0  501  502 -0.00000000000E+00 -0.00000000000E+00 -0.24289944393E+02  0.24289944393E+02  0.00000000000E+00 0. -1.
         25    1    1    2    0    0  0.00000000000E+00  0.00000000000E+00  0.13652763250E+03  0.18510752128E+03  0.12500000000E+03 0.  0.
<mgrwt>
<rscale>  2 0.12500000E+03</rscale>
<asrwt>0</asrwt>
<pdfrwt beam="1">  1       21 0.24741165E-01 0.12500000E+03</pdfrwt>
<pdfrwt beam="2">  1       21 0.37369146E-02 0.12500000E+03</pdfrwt>
<totfact> 0.66570393E+06</totfact>
</mgrwt>
</event>
<event>
 3    0  0.1626844E+001  0.1250000E+03  0.7546771E-02  0.1235069E+00
         21   -1    0    0  502  501  0.00000000000E+00  0.00000000000E+00  0.19084587237E+02  0.19084587237E+02  0.00000000000E+00 0. -1.
         21   -1    0    0  501  502 -0.00000000000E+00 -0.00000000000E+00 -0.20468087424E+03  0.20468087424E+03  0.00000000000E+00 0. -1.
         25    1    1    2    0    0  0.00000000000E+00  0.00000000000E+00 -0.18559628700E+03  0.22376546147E+03  0.12500000000E+03 0.  0.
<mgrwt>
<rscale>  2 0.12500000E+03</rscale>
<asrwt>0</asrwt>
<pdfrwt beam="1">  1       21 0.29360904E-02 0.12500000E+03</pdfrwt>
<pdfrwt beam="2">  1       21 0.31489364E-01 0.12500000E+03</pdfrwt>
<totfact> 0.62439716E+06</totfact>
</mgrwt>
</event>
<event>
 3    0  0.1368989E+001  0.1250000E+03  0.7546771E-02  0.1235069E+00
         21   -1    0    0  502  501  0.00000000000E+00  0.00000000000E+00  0.23916106432E+04  0.23916106432E+04  0.00000000000E+00 0. -1.
         21   -1    0    0  501  502 -0.00000000000E+00 -0.00000000000E+00 -0.16333135208E+01  0.16333135208E+01  0.00000000000E+00 0. -1.
         25    1    1    2    0    0  0.00000000000E+00  0.00000000000E+00  0.23899773296E+04  0.23932439567E+04  0.12500000000E+03 0.  0.
<mgrwt>
<rscale>  2 0.12500000E+03</rscale>
<asrwt>0</asrwt>
<pdfrwt beam="1">  1       21 0.36793730E+00 0.12500000E+03</pdfrwt>
<pdfrwt beam="2">  1       21 0.25128092E-03 0.12500000E+03</pdfrwt>
<totfact> 0.47102431E+05</totfact>
</mgrwt>
</event>
<event>
 3    0  0.1698973E+001  0.1250000E+03  0.7546771E-02  0.1235069E+00
         21   -1    0    0  502  501  0.00000000000E+00  0.00000000000E+00  0.27385933843E+02  0.27385933843E+02  0.00000000000E+00 0.  1.
         21   -1    0    0  501  502 -0.00000000000E+00 -0.00000000000E+00 -0.14263709328E+03  0.14263709328E+03  0.00000000000E+00 0.  1.
         25    1    1    2    0    0  0.00000000000E+00  0.00000000000E+00 -0.11525115943E+03  0.17002302712E+03  0.12500000000E+03 0.  0.
<mgrwt>
<rscale>  2 0.12500000E+03</rscale>
<asrwt>0</asrwt>
<pdfrwt beam="1">  1       21 0.42132206E-02 0.12500000E+03</pdfrwt>
<pdfrwt beam="2">  1       21 0.21944168E-01 0.12500000E+03</pdfrwt>
<totfact> 0.68314905E+06</totfact>
</mgrwt>
</event>
<event>
 3    0  0.1695452E+001  0.1250000E+03  0.7546771E-02  0.1235069E+00
         21   -1    0    0  502  501  0.00000000000E+00  0.00000000000E+00  0.44432623517E+02  0.44432623517E+02  0.00000000000E+00 0. -1.
         21   -1    0    0  501  502 -0.00000000000E+00 -0.00000000000E+00 -0.87914007566E+02  0.87914007566E+02  0.00000000000E+00 0. -1.
         25    1    1    2    0    0  0.00000000000E+00  0.00000000000E+00 -0.43481384049E+02  0.13234663108E+03  0.12500000000E+03 0.  0.
<mgrwt>
<rscale>  2 0.12500000E+03</rscale>
<asrwt>0</asrwt>
<pdfrwt beam="1">  1       21 0.68357882E-02 0.12500000E+03</pdfrwt>
<pdfrwt beam="2">  1       21 0.13525232E-01 0.12500000E+03</pdfrwt>
<totfact> 0.73049771E+06</totfact>
</mgrwt>
</event>
<event>
 3    0  0.1695996E+001  0.1250000E+03  0.7546771E-02  0.1235069E+00
         21   -1    0    0  502  501  0.00000000000E+00  0.00000000000E+00  0.87967538949E+02  0.87967538949E+02  0.00000000000E+00 0. -1.
         21   -1    0    0  501  502 -0.00000000000E+00 -0.00000000000E+00 -0.44405584681E+02  0.44405584681E+02  0.00000000000E+00 0. -1.
         25    1    1    2    0    0  0.00000000000E+00  0.00000000000E+00  0.43561954267E+02  0.13237312363E+03  0.12500000000E+03 0.  0.
<mgrwt>
<rscale>  2 0.12500000E+03</rscale>
<asrwt>0</asrwt>
<pdfrwt beam="1">  1       21 0.13533468E-01 0.12500000E+03</pdfrwt>
<pdfrwt beam="2">  1       21 0.68316284E-02 0.12500000E+03</pdfrwt>
<totfact> 0.73046223E+06</totfact>
</mgrwt>
</event>
<event>
 3    0  0.1650608E+001  0.1250000E+03  0.7546771E-02  0.1235069E+00
         21   -1    0    0  502  501  0.00000000000E+00  0.00000000000E+00  0.22765886548E+02  0.22765886548E+02  0.00000000000E+00 0. -1.
         21   -1    0    0  501  502 -0.00000000000E+00 -0.00000000000E+00 -0.17158347828E+03  0.17158347828E+03  0.00000000000E+00 0. -1.
         25    1    1    2    0    0  0.00000000000E+00  0.00000000000E+00 -0.14881759173E+03  0.19434936483E+03  0.12500000000E+03 0.  0.
<mgrwt>
<rscale>  2 0.12500000E+03</rscale>
<asrwt>0</asrwt>
<pdfrwt beam="1">  1       21 0.35024441E-02 0.12500000E+03</pdfrwt>
<pdfrwt beam="2">  1       21 0.26397458E-01 0.12500000E+03</pdfrwt>
<totfact> 0.65542303E+06</totfact>
</mgrwt>
</event>
<event>
 3    0  0.1705329E+001  0.1250000E+03  0.7546771E-02  0.1235069E+00
         21   -1    0    0  502  501  0.00000000000E+00  0.00000000000E+00  0.33485968645E+02  0.33485968645E+02  0.00000000000E+00 0.  1.
         21   -1    0    0  501  502 -0.00000000000E+00 -0.00000000000E+00 -0.11665333744E+03  0.11665333744E+03  0.00000000000E+00 0.  1.
         25    1    1    2    0    0  0.00000000000E+00  0.00000000000E+00 -0.83167368799E+02  0.15013930609E+03  0.12500000000E+03 0.  0.
<mgrwt>
<rscale>  2 0.12500000E+03</rscale>
<asrwt>0</asrwt>
<pdfrwt beam="1">  1       21 0.51516875E-02 0.12500000E+03</pdfrwt>
<pdfrwt beam="2">  1       21 0.17946667E-01 0.12500000E+03</pdfrwt>
<totfact> 0.70741706E+06</totfact>
</mgrwt>
</event>
<event>
 3    0  0.1725302E+001  0.1250000E+03  0.7546771E-02  0.1235069E+00
         21   -1    0    0  502  501  0.00000000000E+00  0.00000000000E+00  0.47642486539E+02  0.47642486539E+02  0.00000000000E+00 0.  1.
         21   -1    0    0  501  502 -0.00000000000E+00 -0.00000000000E+00 -0.81990892663E+02  0.81990892663E+02  0.00000000000E+00 0.  1.
         25    1    1    2    0    0  0.00000000000E+00  0.00000000000E+00 -0.34348406124E+02  0.12963337920E+03  0.12500000000E+03 0.  0.
<mgrwt>
<rscale>  2 0.12500000E+03</rscale>
<asrwt>0</asrwt>
<pdfrwt beam="1">  1       21 0.73296134E-02 0.12500000E+03</pdfrwt>
<pdfrwt beam="2">  1       21 0.12613983E-01 0.12500000E+03</pdfrwt>
<totfact> 0.73413955E+06</totfact>
</mgrwt>
</event>
<event>
 3    0  0.1449965E+001  0.1250000E+03  0.7546771E-02  0.1235069E+00
         21   -1    0    0  502  501  0.00000000000E+00  0.00000000000E+00  0.50471773521E+03  0.50471773521E+03  0.00000000000E+00 0.  1.
         21   -1    0    0  501  502 -0.00000000000E+00 -0.00000000000E+00 -0.77394744180E+01  0.77394744180E+01  0.00000000000E+00 0.  1.
         25    1    1    2    0    0  0.00000000000E+00  0.00000000000E+00  0.49697826079E+03  0.51245720963E+03  0.12500000000E+03 0.  0.
<mgrwt>
<rscale>  2 0.12500000E+03</rscale>
<asrwt>0</asrwt>
<pdfrwt beam="1">  1       21 0.77648856E-01 0.12500000E+03</pdfrwt>
<pdfrwt beam="2">  1       21 0.11906888E-02 0.12500000E+03</pdfrwt>
<totfact> 0.41376456E+06</totfact>
</mgrwt>
</event>
<event>
 3    0  0.1556801E+001  0.1250000E+03  0.7546771E-02  0.1235069E+00
         21   -1    0    0  502  501  0.00000000000E+00  0.00000000000E+00  0.36402318134E+03  0.36402318134E+03  0.00000000000E+00 0.  1.
         21   -1    0    0  501  502 -0.00000000000E+00 -0.00000000000E+00 -0.10730772655E+02  0.10730772655E+02  0.00000000000E+00 0.  1.
         25    1    1    2    0    0  0.00000000000E+00  0.00000000000E+00  0.35329240868E+03  0.37475395399E+03  0.12500000000E+03 0.  0.
<mgrwt>
<rscale>  2 0.12500000E+03</rscale>
<asrwt>0</asrwt>
<pdfrwt beam="1">  1       21 0.56003557E-01 0.12500000E+03</pdfrwt>
<pdfrwt beam="2">  1       21 0.16508884E-02 0.12500000E+03</pdfrwt>
<totfact> 0.49760651E+06</totfact>
</mgrwt>
</event>
<event>
 3    0  0.1656416E+001  0.1250000E+03  0.7546771E-02  0.1235069E+00
         21   -1    0    0  502  501  0.00000000000E+00  0.00000000000E+00  0.19217013621E+03  0.19217013621E+03  0.00000000000E+00 0.  1.
         21   -1    0    0  501  502 -0.00000000000E+00 -0.00000000000E+00 -0.20327039763E+02  0.20327039763E+02  0.00000000000E+00 0.  1.
         25    1    1    2    0    0  0.00000000000E+00  0.00000000000E+00  0.17184309645E+03  0.21249717597E+03  0.12500000000E+03 0.  0.
<mgrwt>
<rscale>  2 0.12500000E+03</rscale>
<asrwt>0</asrwt>
<pdfrwt beam="1">  1       21 0.29564635E-01 0.12500000E+03</pdfrwt>
<pdfrwt beam="2">  1       21 0.31272370E-02 0.12500000E+03</pdfrwt>
<totfact> 0.63597759E+06</totfact>
</mgrwt>
</event>
<event>
 3    0  0.1676934E+001  0.1250000E+03  0.7546771E-02  0.1235069E+00
         21   -1    0    0  502  501  0.00000000000E+00  0.00000000000E+00  0.17043130663E+03  0.17043130663E+03  0.00000000000E+00 0.  1.
         21   -1    0    0  501  502 -0.00000000000E+00 -0.00000000000E+00 -0.22919791424E+02  0.22919791424E+02  0.00000000000E+00 0.  1.
         25    1    1    2    0    0  0.00000000000E+00  0.00000000000E+00  0.14751151520E+03  0.19335109805E+03  0.12500000000E+03 0.  0.
<mgrwt>
<rscale>  2 0.12500000E+03</rscale>
<asrwt>0</asrwt>
<pdfrwt beam="1">  1       21 0.26220200E-01 0.12500000E+03</pdfrwt>
<pdfrwt beam="2">  1       21 0.35261219E-02 0.12500000E+03</pdfrwt>
<totfact> 0.65651943E+06</totfact>
</mgrwt>
</event>
<event>
 3    0  0.1671603E+001  0.1250000E+03  0.7546771E-02  0.1235069E+00
         21   -1    0    0  502  501  0.00000000000E+00  0.00000000000E+00  0.21863998159E+02  0.21863998159E+02  0.00000000000E+00 0.  1.
         21   -1    0    0  501  502 -0.00000000000E+00 -0.00000000000E+00 -0.17866128471E+03  0.17866128471E+03  0.00000000000E+00 0.  1.
         25    1    1    2    0    0  0.00000000000E+00  0.00000000000E+00 -0.15679728655E+03  0.20052528287E+03  0.12500000000E+03 0.  0.
<mgrwt>
<rscale>  2 0.12500000E+03</rscale>
<asrwt>0</asrwt>
<pdfrwt beam="1">  1       21 0.33636921E-02 0.12500000E+03</pdfrwt>
<pdfrwt beam="2">  1       21 0.27486351E-01 0.12500000E+03</pdfrwt>
<totfact> 0.64870379E+06</totfact>
</mgrwt>
</event>
<event>
 3    0  0.1647806E+001  0.1250000E+03  0.7546771E-02  0.1235069E+00
         21   -1    0    0  502  501  0.00000000000E+00  0.00000000000E+00  0.20997995123E+02  0.20997995123E+02  0.00000000000E+00 0. -1.
         21   -1    0    0  501  502 -0.00000000000E+00 -0.00000000000E+00 -0.18602966507E+03  0.18602966507E+03  0.00000000000E+00 0. -1.
         25    1    1    2    0    0  0.00000000000E+00  0.00000000000E+00 -0.16503166995E+03  0.20702766020E+03  0.12500000000E+03 0.  0.
<mgrwt>
<rscale>  2 0.12500000E+03</rscale>
<asrwt>0</asrwt>
<pdfrwt beam="1">  1       21 0.32304608E-02 0.12500000E+03</pdfrwt>
<pdfrwt beam="2">  1       21 0.28619948E-01 0.12500000E+03</pdfrwt>
<totfact> 0.64173623E+06</totfact>
</mgrwt>
</event>
<event>
 3    0  0.1601224E+001  0.1250000E+03  0.7546771E-02  0.1235069E+00
         21   -1    0    0  502  501  0.00000000000E+00  0.00000000000E+00  0.12629512606E+02  0.12629512606E+02  0.00000000000E+00 0.  1.
         21   -1    0    0  501  502 -0.00000000000E+00 -0.00000000000E+00 -0.30929538787E+03  0.30929538787E+03  0.00000000000E+00 0.  1.
         25    1    1    2    0    0  0.00000000000E+00  0.00000000000E+00 -0.29666587526E+03  0.32192490047E+03  0.12500000000E+03 0.  0.
<mgrwt>
<rscale>  2 0.12500000E+03</rscale>
<asrwt>0</asrwt>
<pdfrwt beam="1">  1       21 0.19430020E-02 0.12500000E+03</pdfrwt>
<pdfrwt beam="2">  1       21 0.47583905E-01 0.12500000E+03</pdfrwt>
<totfact> 0.53681156E+06</totfact>
</mgrwt>
</event>
<event>
 3    0  0.1368989E+001  0.1250000E+03  0.7546771E-02  0.1235069E+00
         21   -1    0    0  502  501  0.00000000000E+00  0.00000000000E+00  0.13822157351E+04  0.13822157351E+04  0.00000000000E+00 0. -1.
         21   -1    0    0  501  502 -0.00000000000E+00 -0.00000000000E+00 -0.28260783761E+01  0.28260783761E+01  0.00000000000E+00 0. -1.
         25    1    1    2    0    0  0.00000000000E+00  0.00000000000E+00  0.13793896567E+04  0.13850418134E+04  0.12500000000E+03 0.  0.
<mgrwt>
<rscale>  2 0.12500000E+03</rscale>
<asrwt>0</asrwt>
<pdfrwt beam="1">  1       21 0.21264803E+00 0.12500000E+03</pdfrwt>
<pdfrwt beam="2">  1       21 0.43478239E-03 0.12500000E+03</pdfrwt>
<totfact> 0.15790095E+06</totfact>
</mgrwt>
</event>
<event>
 3    0  0.1544041E+001  0.1250000E+03  0.7546771E-02  0.1235069E+00
         21   -1    0    0  502  501  0.00000000000E+00  0.00000000000E+00  0.10857367365E+02  0.10857367365E+02  0.00000000000E+00 0. -1.
         21   -1    0    0  501  502 -0.00000000000E+00 -0.00000000000E+00 -0.35977874457E+03  0.35977874457E+03  0.00000000000E+00 0. -1.
         25    1    1    2    0    0  0.00000000000E+00  0.00000000000E+00 -0.34892137720E+03  0.37063611193E+03  0.12500000000E+03 0.  0.
<mgrwt>
<rscale>  2 0.12500000E+03</rscale>
<asrwt>0</asrwt>
<pdfrwt beam="1">  1       21 0.16703645E-02 0.12500000E+03</pdfrwt>
<pdfrwt beam="2">  1       21 0.55350566E-01 0.12500000E+03</pdfrwt>
<totfact> 0.50049584E+06</totfact>
</mgrwt>
</event>
<event>
 3    0  0.1697407E+001  0.1250000E+03  0.7546771E-02  0.1235069E+00
         21   -1    0    0  502  501  0.00000000000E+00  0.00000000000E+00  0.40867373534E+02  0.40867373534E+02  0.00000000000E+00 0. -1.
         21   -1    0    0  501  502 -0.00000000000E+00 -0.00000000000E+00 -0.95583583239E+02  0.95583583239E+02  0.00000000000E+00 0. -1.
         25    1    1    2    0    0  0.00000000000E+00  0.00000000000E+00 -0.54716209705E+02  0.13645095677E+03  0.12500000000E+03 0.  0.
<mgrwt>
<rscale>  2 0.12500000E+03</rscale>
<asrwt>0</asrwt>
<pdfrwt beam="1">  1       21 0.62872882E-02 0.12500000E+03</pdfrwt>
<pdfrwt beam="2">  1       21 0.14705167E-01 0.12500000E+03</pdfrwt>
<totfact> 0.72504921E+06</totfact>
</mgrwt>
</event>
<event>
 3    0  0.1688613E+001  0.1250000E+03  0.7546771E-02  0.1235069E+00
         21   -1    0    0  502  501  0.00000000000E+00  0.00000000000E+00  0.23564331335E+02  0.23564331335E+02  0.00000000000E+00 0.  1.
         21   -1    0    0  501  502 -0.00000000000E+00 -0.00000000000E+00 -0.16576960935E+03  0.16576960935E+03  0.00000000000E+00 0.  1.
         25    1    1    2    0    0  0.00000000000E+00  0.00000000000E+00 -0.14220527802E+03  0.18933394069E+03  0.12500000000E+03 0.  0.
<mgrwt>
<rscale>  2 0.12500000E+03</rscale>
<asrwt>0</asrwt>
<pdfrwt beam="1">  1       21 0.36252818E-02 0.12500000E+03</pdfrwt>
<pdfrwt beam="2">  1       21 0.25503017E-01 0.12500000E+03</pdfrwt>
<totfact> 0.66096567E+06</totfact>
</mgrwt>
</event>
<event>
 3    0  0.1368989E+001  0.1250000E+03  0.7546771E-02  0.1235069E+00
         21   -1    0    0  502  501  0.00000000000E+00  0.00000000000E+00  0.34618534376E+01  0.34618534376E+01  0.00000000000E+00 0. -1.
         21   -1    0    0  501  502 -0.00000000000E+00 -0.00000000000E+00 -0.11283695484E+04  0.11283695484E+04  0.00000000000E+00 0. -1.
         25    1    1    2    0    0  0.00000000000E+00  0.00000000000E+00 -0.11249076950E+04  0.11318314018E+04  0.12500000000E+03 0.  0.
<mgrwt>
<rscale>  2 0.12500000E+03</rscale>
<asrwt>0</asrwt>
<pdfrwt beam="1">  1       21 0.53259228E-03 0.12500000E+03</pdfrwt>
<pdfrwt beam="2">  1       21 0.17359550E+00 0.12500000E+03</pdfrwt>
<totfact> 0.20556863E+06</totfact>
</mgrwt>
</event>
<event>
 3    0  0.1693706E+001  0.1250000E+03  0.7546771E-02  0.1235069E+00
         21   -1    0    0  502  501  0.00000000000E+00  0.00000000000E+00  0.40001045814E+02  0.40001045814E+02  0.00000000000E+00 0. -1.
         21   -1    0    0  501  502 -0.00000000000E+00 -0.00000000000E+00 -0.97653696811E+02  0.97653696811E+02  0.00000000000E+00 0. -1.
         25    1    1    2    0    0  0.00000000000E+00  0.00000000000E+00 -0.57652650997E+02  0.13765474262E+03  0.12500000000E+03 0.  0.
<mgrwt>
<rscale>  2 0.12500000E+03</rscale>
<asrwt>0</asrwt>
<pdfrwt beam="1">  1       21 0.61540071E-02 0.12500000E+03</pdfrwt>
<pdfrwt beam="2">  1       21 0.15023646E-01 0.12500000E+03</pdfrwt>
<totfact> 0.72346837E+06</totfact>
</mgrwt>
</event>
<event>
 3    0  0.1401300E+001  0.1250000E+03  0.7546771E-02  0.1235069E+00
         21   -1    0    0  502  501  0.00000000000E+00  0.00000000000E+00  0.55742172567E+03  0.55742172567E+03  0.00000000000E+00 0. -1.
         21   -1    0    0  501  502 -0.00000000000E+00 -0.00000000000E+00 -0.70077103566E+01  0.70077103566E+01  0.00000000000E+00 0. -1.
         25    1    1    2    0    0  0.00000000000E+00  0.00000000000E+00  0.55041401531E+03  0.56442943603E+03  0.12500000000E+03 0.  0.
<mgrwt>
<rscale>  2 0.12500000E+03</rscale>
<asrwt>0</asrwt>
<pdfrwt beam="1">  1       21 0.85757153E-01 0.12500000E+03</pdfrwt>
<pdfrwt beam="2">  1       21 0.10781097E-02 0.12500000E+03</pdfrwt>
<totfact> 0.38752327E+06</totfact>
</mgrwt>
</event>
<event>
 3    0  0.1368989E+001  0.1250000E+03  0.7546771E-02  0.1235069E+00
         21   -1    0    0  502  501  0.00000000000E+00  0.00000000000E+00  0.15935475200E+01  0.15935475200E+01  0.00000000000E+00 0.  1.
         21   -1    0    0  501  502 -0.00000000000E+00 -0.00000000000E+00 -0.24512918196E+04  0.24512918196E+04  0.00000000000E+00 0.  1.
         25    1    1    2    0    0  0.00000000000E+00  0.00000000000E+00 -0.24496982721E+04  0.24528853671E+04  0.12500000000E+03 0.  0.
<mgrwt>
<rscale>  2 0.12500000E+03</rscale>
<asrwt>0</asrwt>
<pdfrwt beam="1">  1       21 0.24516257E-03 0.12500000E+03</pdfrwt>
<pdfrwt beam="2">  1       21 0.37711964E+00 0.12500000E+03</pdfrwt>
<totfact> 0.43164433E+05</totfact>
</mgrwt>
</event>
<event>
 3    0  0.1697565E+001  0.1250000E+03  0.7546771E-02  0.1235069E+00
         21   -1    0    0  502  501  0.00000000000E+00  0.00000000000E+00  0.86937567646E+02  0.86937567646E+02  0.00000000000E+00 0. -1.
         21   -1    0    0  501  502 -0.00000000000E+00 -0.00000000000E+00 -0.44931668849E+02  0.44931668849E+02  0.00000000000E+00 0. -1.
         25    1    1    2    0    0  0.00000000000E+00  0.00000000000E+00  0.42005898798E+02  0.13186923650E+03  0.12500000000E+03 0.  0.
<mgrwt>
<rscale>  2 0.12500000E+03</rscale>
<asrwt>0</asrwt>
<pdfrwt beam="1">  1       21 0.13375010E-01 0.12500000E+03</pdfrwt>
<pdfrwt beam="2">  1       21 0.69125645E-02 0.12500000E+03</pdfrwt>
<totfact> 0.73113773E+06</totfact>
</mgrwt>
</event>
<event>
 3    0  0.1624392E+001  0.1250000E+03  0.7546771E-02  0.1235069E+00
         21   -1    0    0  502  501  0.00000000000E+00  0.00000000000E+00  0.22241796543E+03  0.22241796543E+03  0.00000000000E+00 0. -1.
         21   -1    0    0  501  502 -0.00000000000E+00 -0.00000000000E+00 -0.17562655033E+02  0.17562655033E+02  0.00000000000E+00 0. -1.
         25    1    1    2    0    0  0.00000000000E+00  0.00000000000E+00  0.20485531039E+03  0.23998062046E+03  0.12500000000E+03 0.  0.
<mgrwt>
<rscale>  2 0.12500000E+03</rscale>
<asrwt>0</asrwt>
<pdfrwt beam="1">  1       21 0.34218147E-01 0.12500000E+03</pdfrwt>
<pdfrwt beam="2">  1       21 0.27019471E-02 0.12500000E+03</pdfrwt>
<totfact> 0.60834539E+06</totfact>
</mgrwt>
</event>
<event>
 3    0  0.1700815E+001  0.1250000E+03  0.7546771E-02  0.1235069E+00
         21   -1    0    0  502  501  0.00000000000E+00  0.00000000000E+00  0.89094574165E+02  0.89094574165E+02  0.00000000000E+00 0. -1.
         21   -1    0    0  501  502 -0.00000000000E+00 -0.00000000000E+00 -0.43843859591E+02  0.43843859591E+02  0.00000000000E+00 0. -1.
         25    1    1    2    0    0  0.00000000000E+00  0.00000000000E+00  0.45250714575E+02  0.13293843376E+03  0.12500000000E+03 0.  0.
<mgrwt>
<rscale>  2 0.12500000E+03</rscale>
<asrwt>0</asrwt>
<pdfrwt beam="1">  1       21 0.13706858E-01 0.12500000E+03</pdfrwt>
<pdfrwt beam="2">  1       21 0.67452092E-02 0.12500000E+03</pdfrwt>
<totfact> 0.72970620E+06</totfact>
</mgrwt>
</event>
<event>
 3    0  0.1368989E+001  0.1250000E+03  0.7546771E-02  0.1235069E+00
         21   -1    0    0  502  501  0.00000000000E+00  0.00000000000E+00  0.12334471330E+01  0.12334471330E+01  0.00000000000E+00 0.  1.
         21   -1    0    0  501  502 -0.00000000000E+00 -0.00000000000E+00 -0.31669375165E+04  0.31669375165E+04  0.00000000000E+00 0.  1.
         25    1    1    2    0    0  0.00000000000E+00  0.00000000000E+00 -0.31657040694E+04  0.31681709636E+04  0.12500000000E+03 0.  0.
<mgrwt>
<rscale>  2 0.12500000E+03</rscale>
<asrwt>0</asrwt>
<pdfrwt beam="1">  1       21 0.18975926E-03 0.12500000E+03</pdfrwt>
<pdfrwt beam="2">  1       21 0.48722587E+00 0.12500000E+03</pdfrwt>
<totfact> 0.12603566E+05</totfact>
</mgrwt>
</event>
<event>
 3    0  0.1454110E+001  0.1250000E+03  0.7546771E-02  0.1235069E+00
         21   -1    0    0  502  501  0.00000000000E+00  0.00000000000E+00  0.52748928163E+03  0.52748928163E+03  0.00000000000E+00 0. -1.
         21   -1    0    0  501  502 -0.00000000000E+00 -0.00000000000E+00 -0.74053637411E+01  0.74053637411E+01  0.00000000000E+00 0. -1.
         25    1    1    2    0    0  0.00000000000E+00  0.00000000000E+00  0.52008391789E+03  0.53489464537E+03  0.12500000000E+03 0.  0.
<mgrwt>
<rscale>  2 0.12500000E+03</rscale>
<asrwt>0</asrwt>
<pdfrwt beam="1">  1       21 0.81152168E-01 0.12500000E+03</pdfrwt>
<pdfrwt beam="2">  1       21 0.11392871E-02 0.12500000E+03</pdfrwt>
<totfact> 0.40212763E+06</totfact>
</mgrwt>
</event>
<event>
 3    0  0.1641939E+001  0.1250000E+03  0.7546771E-02  0.1235069E+00
         21   -1    0    0  502  501  0.00000000000E+00  0.00000000000E+00  0.20727189819E+02  0.20727189819E+02  0.00000000000E+00 0. -1.
         21   -1    0    0  501  502 -0.00000000000E+00 -0.00000000000E+00 -0.18846018366E+03  0.18846018366E+03  0.00000000000E+00 0. -1.
         25    1    1    2    0    0  0.00000000000E+00  0.00000000000E+00 -0.16773299384E+03  0.20918737348E+03  0.12500000000E+03 0.  0.
<mgrwt>
<rscale>  2 0.12500000E+03</rscale>
<asrwt>0</asrwt>
<pdfrwt beam="1">  1       21 0.31887984E-02 0.12500000E+03</pdfrwt>
<pdfrwt beam="2">  1       21 0.28993875E-01 0.12500000E+03</pdfrwt>
<totfact> 0.63945134E+06</totfact>
</mgrwt>
</event>
<event>
 3    0  0.1448100E+001  0.1250000E+03  0.7546771E-02  0.1235069E+00
         21   -1    0    0  502  501  0.00000000000E+00  0.00000000000E+00  0.53081818479E+03  0.53081818479E+03  0.00000000000E+00 0. -1.
         21   -1    0    0  501  502 -0.00000000000E+00 -0.00000000000E+00 -0.73589227196E+01  0.73589227196E+01  0.00000000000E+00 0. -1.
         25    1    1    2    0    0  0.00000000000E+00  0.00000000000E+00  0.52345926207E+03  0.53817710751E+03  0.12500000000E+03 0.  0.
<mgrwt>
<rscale>  2 0.12500000E+03</rscale>
<asrwt>0</asrwt>
<pdfrwt beam="1">  1       21 0.81664306E-01 0.12500000E+03</pdfrwt>
<pdfrwt beam="2">  1       21 0.11321424E-02 0.12500000E+03</pdfrwt>
<totfact> 0.40046552E+06</totfact>
</mgrwt>
</event>
<event>
 3    0  0.1543454E+001  0.1250000E+03  0.7546771E-02  0.1235069E+00
         21   -1    0    0  502  501  0.00000000000E+00  0.00000000000E+00  0.34659479211E+03  0.34659479211E+03  0.00000000000E+00 0.  1.
         21   -1    0    0  501  502 -0.00000000000E+00 -0.00000000000E+00 -0.11270365536E+02  0.11270365536E+02  0.00000000000E+00 0.  1.
         25    1    1    2    0    0  0.00000000000E+00  0.00000000000E+00  0.33532442658E+03  0.35786515765E+03  0.12500000000E+03 0.  0.
<mgrwt>
<rscale>  2 0.12500000E+03</rscale>
<asrwt>0</asrwt>
<pdfrwt beam="1">  1       21 0.53322268E-01 0.12500000E+03</pdfrwt>
<pdfrwt beam="2">  1       21 0.17339027E-02 0.12500000E+03</pdfrwt>
<totfact> 0.50962766E+06</totfact>
</mgrwt>
</event>
<event>
 3    0  0.1682344E+001  0.1250000E+03  0.7546771E-02  0.1235069E+00
         21   -1    0    0  502  501  0.00000000000E+00  0.00000000000E+00  0.33662665363E+02  0.33662665363E+02  0.00000000000E+00 0. -1.
         21   -1    0    0  501  502 -0.00000000000E+00 -0.00000000000E+00 -0.11604101927E+03  0.11604101927E+03  0.00000000000E+00 0. -1.
         25    1    1    2    0    0  0.00000000000E+00  0.00000000000E+00 -0.82378353903E+02  0.14970368463E+03  0.12500000000E+03 0.  0.
<mgrwt>
<rscale>  2 0.12500000E+03</rscale>
<asrwt>0</asrwt>
<pdfrwt beam="1">  1       21 0.51788716E-02 0.12500000E+03</pdfrwt>
<pdfrwt beam="2">  1       21 0.17852465E-01 0.12500000E+03</pdfrwt>
<totfact> 0.70796443E+06</totfact>
</mgrwt>
</event>
<event>
 3    0  0.1644622E+001  0.1250000E+03  0.7546771E-02  0.1235069E+00
         21   -1    0    0  502  501  0.00000000000E+00  0.00000000000E+00  0.17417563761E+02  0.17417563761E+02  0.00000000000E+00 0.  1.
         21   -1    0    0  501  502 -0.00000000000E+00 -0.00000000000E+00 -0.22427074495E+03  0.22427074495E+03  0.00000000000E+00 0.  1.
         25    1    1    2    0    0  0.00000000000E+00  0.00000000000E+00 -0.20685318119E+03  0.24168830871E+03  0.12500000000E+03 0.  0.
<mgrwt>
<rscale>  2 0.12500000E+03</rscale>
<asrwt>0</asrwt>
<pdfrwt beam="1">  1       21 0.26796254E-02 0.12500000E+03</pdfrwt>
<pdfrwt beam="2">  1       21 0.34503189E-01 0.12500000E+03</pdfrwt>
<totfact> 0.60669672E+06</totfact>
</mgrwt>
</event>
<event>
 3    0  0.1635569E+001  0.1250000E+03  0.7546771E-02  0.1235069E+00
         21   -1    0    0  502  501  0.00000000000E+00  0.00000000000E+00  0.18605993045E+02  0.18605993045E+02  0.00000000000E+00 0. -1.
         21   -1    0    0  501  502 -0.00000000000E+00 -0.00000000000E+00 -0.20994579491E+03  0.20994579491E+03  0.00000000000E+00 0. -1.
         25    1    1    2    0    0  0.00000000000E+00  0.00000000000E+00 -0.19133980186E+03  0.22855178796E+03  0.12500000000E+03 0.  0.
<mgrwt>
<rscale>  2 0.12500000E+03</rscale>
<asrwt>0</asrwt>
<pdfrwt beam="1">  1       21 0.28624606E-02 0.12500000E+03</pdfrwt>
<pdfrwt beam="2">  1       21 0.32299352E-01 0.12500000E+03</pdfrwt>
<totfact> 0.61958398E+06</totfact>
</mgrwt>
</event>
<event>
 3    0  0.1664413E+001  0.1250000E+03  0.7546771E-02  0.1235069E+00
         21   -1    0    0  502  501  0.00000000000E+00  0.00000000000E+00  0.13741140263E+03  0.13741140263E+03  0.00000000000E+00 0. -1.
         21   -1    0    0  501  502 -0.00000000000E+00 -0.00000000000E+00 -0.28427407953E+02  0.28427407953E+02  0.00000000000E+00 0. -1.
         25    1    1    2    0    0  0.00000000000E+00  0.00000000000E+00  0.10898399468E+03  0.16583881058E+03  0.12500000000E+03 0.  0.
<mgrwt>
<rscale>  2 0.12500000E+03</rscale>
<asrwt>0</asrwt>
<pdfrwt beam="1">  1       21 0.21140215E-01 0.12500000E+03</pdfrwt>
<pdfrwt beam="2">  1       21 0.43734474E-02 0.12500000E+03</pdfrwt>
<totfact> 0.68813001E+06</totfact>
</mgrwt>
</event>
<event>
 3    0  0.1703465E+001  0.1250000E+03  0.7546771E-02  0.1235069E+00
         21   -1    0    0  502  501  0.00000000000E+00  0.00000000000E+00  0.55415347233E+02  0.55415347233E+02  0.00000000000E+00 0. -1.
         21   -1    0    0  501  502 -0.00000000000E+00 -0.00000000000E+00 -0.70490400134E+02  0.70490400134E+02  0.00000000000E+00 0. -1.
         25    1    1    2    0    0  0.00000000000E+00  0.00000000000E+00 -0.15075052901E+02  0.12590574737E+03  0.12500000000E+03 0.  0.
<mgrwt>
<rscale>  2 0.12500000E+03</rscale>
<asrwt>0</asrwt>
<pdfrwt beam="1">  1       21 0.85254380E-02 0.12500000E+03</pdfrwt>
<pdfrwt beam="2">  1       21 0.10844677E-01 0.12500000E+03</pdfrwt>
<totfact> 0.73919046E+06</totfact>
</mgrwt>
</event>
<event>
 3    0  0.1705054E+001  0.1250000E+03  0.7546771E-02  0.1235069E+00
         21   -1    0    0  502  501  0.00000000000E+00  0.00000000000E+00  0.57639498684E+02  0.57639498684E+02  0.00000000000E+00 0. -1.
         21   -1    0    0  501  502 -0.00000000000E+00 -0.00000000000E+00 -0.67770367355E+02  0.67770367355E+02  0.00000000000E+00 0. -1.
         25    1    1    2    0    0  0.00000000000E+00  0.00000000000E+00 -0.10130868671E+02  0.12540986604E+03  0.12500000000E+03 0.  0.
<mgrwt>
<rscale>  2 0.12500000E+03</rscale>
<asrwt>0</asrwt>
<pdfrwt beam="1">  1       21 0.88676151E-02 0.12500000E+03</pdfrwt>
<pdfrwt beam="2">  1       21 0.10426210E-01 0.12500000E+03</pdfrwt>
<totfact> 0.73988026E+06</totfact>
</mgrwt>
</event>
<event>
 3    0  0.1698666E+001  0.1250000E+03  0.7546771E-02  0.1235069E+00
         21   -1    0    0  502  501  0.00000000000E+00  0.00000000000E+00  0.86200360818E+02  0.86200360818E+02  0.00000000000E+00 0. -1.
         21   -1    0    0  501  502 -0.00000000000E+00 -0.00000000000E+00 -0.45315935606E+02  0.45315935606E+02  0.00000000000E+00 0. -1.
         25    1    1    2    0    0  0.00000000000E+00  0.00000000000E+00  0.40884425212E+02  0.13151629642E+03  0.12500000000E+03 0.  0.
<mgrwt>
<rscale>  2 0.12500000E+03</rscale>
<asrwt>0</asrwt>
<pdfrwt beam="1">  1       21 0.13261594E-01 0.12500000E+03</pdfrwt>
<pdfrwt beam="2">  1       21 0.69716824E-02 0.12500000E+03</pdfrwt>
<totfact> 0.73161181E+06</totfact>
</mgrwt>
</event>
<event>
 3    0  0.1695881E+001  0.1250000E+03  0.7546771E-02  0.1235069E+00
         21   -1    0    0  502  501  0.00000000000E+00  0.00000000000E+00  0.26609423460E+02  0.26609423460E+02  0.00000000000E+00 0.  1.
         21   -1    0    0  501  502 -0.00000000000E+00 -0.00000000000E+00 -0.14679949778E+03  0.14679949778E+03  0.00000000000E+00 0.  1.
         25    1    1    2    0    0  0.00000000000E+00  0.00000000000E+00 -0.12019007432E+03  0.17340892124E+03  0.12500000000E+03 0.  0.
<mgrwt>
<rscale>  2 0.12500000E+03</rscale>
<asrwt>0</asrwt>
<pdfrwt beam="1">  1       21 0.40937574E-02 0.12500000E+03</pdfrwt>
<pdfrwt beam="2">  1       21 0.22584538E-01 0.12500000E+03</pdfrwt>
<totfact> 0.67915807E+06</totfact>
</mgrwt>
</event>
<event>
 3    0  0.1698708E+001  0.1250000E+03  0.7546771E-02  0.1235069E+00
         21   -1    0    0  502  501  0.00000000000E+00  0.00000000000E+00  0.45556660065E+02  0.45556660065E+02  0.00000000000E+00 0. -1.
         21   -1    0    0  501  502 -0.00000000000E+00 -0.00000000000E+00 -0.85744872306E+02  0.85744872306E+02  0.00000000000E+00 0. -1.
         25    1    1    2    0    0  0.00000000000E+00  0.00000000000E+00 -0.40188212240E+02  0.13130153237E+03  0.12500000000E+03 0.  0.
<mgrwt>
<rscale>  2 0.12500000E+03</rscale>
<asrwt>0</asrwt>
<pdfrwt beam="1">  1       21 0.70087170E-02 0.12500000E+03</pdfrwt>
<pdfrwt beam="2">  1       21 0.13191519E-01 0.12500000E+03</pdfrwt>
<totfact> 0.73190066E+06</totfact>
</mgrwt>
</event>
<event>
 3    0  0.1368989E+001  0.1250000E+03  0.7546771E-02  0.1235069E+00
         21   -1    0    0  502  501  0.00000000000E+00  0.00000000000E+00  0.97506522045E+00  0.97506522045E+00  0.00000000000E+00 0. -1.
         21   -1    0    0  501  502 -0.00000000000E+00 -0.00000000000E+00 -0.40061422745E+04  0.40061422745E+04  0.00000000000E+00 0. -1.
         25    1    1    2    0    0  0.00000000000E+00  0.00000000000E+00 -0.40051672092E+04  0.40071173397E+04  0.12500000000E+03 0.  0.
<mgrwt>
<rscale>  2 0.12500000E+03</rscale>
<asrwt>0</asrwt>
<pdfrwt beam="1">  1       21 0.15001277E-03 0.12500000E+03</pdfrwt>
<pdfrwt beam="2">  1       21 0.61631834E+00 0.12500000E+03</pdfrwt>
<totfact> 0.19774324E+04</totfact>
</mgrwt>
</event>
<event>
 3    0  0.1532062E+001  0.1250000E+03  0.7546771E-02  0.1235069E+00
         21   -1    0    0  502  501  0.00000000000E+00  0.00000000000E+00  0.36525353437E+03  0.36525353437E+03  0.00000000000E+00 0. -1.
         21   -1    0    0  501  502 -0.00000000000E+00 -0.00000000000E+00 -0.10694626150E+02  0.10694626150E+02  0.00000000000E+00 0. -1.
         25    1    1    2    0    0  0.00000000000E+00  0.00000000000E+00  0.35455890822E+03  0.37594816052E+03  0.12500000000E+03 0.  0.
<mgrwt>
<rscale>  2 0.12500000E+03</rscale>
<asrwt>0</asrwt>
<pdfrwt beam="1">  1       21 0.56192842E-01 0.12500000E+03</pdfrwt>
<pdfrwt beam="2">  1       21 0.16453274E-02 0.12500000E+03</pdfrwt>
<totfact> 0.49677349E+06</totfact>
</mgrwt>
</event>
<event>
 3    0  0.1368989E+001  0.1250000E+03  0.7546771E-02  0.1235069E+00
         21   -1    0    0  502  501  0.00000000000E+00  0.00000000000E+00  0.51139119026E+01  0.51139119026E+01  0.00000000000E+00 0.  1.
         21   -1    0    0  501  502 -0.00000000000E+00 -0.00000000000E+00 -0.76384773035E+03  0.76384773035E+03  0.00000000000E+00 0.  1.
         25    1    1    2    0    0  0.00000000000E+00  0.00000000000E+00 -0.75873381845E+03  0.76896164225E+03  0.12500000000E+03 0.  0.
<mgrwt>
<rscale>  2 0.12500000E+03</rscale>
<asrwt>0</asrwt>
<pdfrwt beam="1">  1       21 0.78675600E-03 0.12500000E+03</pdfrwt>
<pdfrwt beam="2">  1       21 0.11751499E+00 0.12500000E+03</pdfrwt>
<totfact> 0.30412902E+06</totfact>
</mgrwt>
</event>
<event>
 3    0  0.1702799E+001  0.1250000E+03  0.7546771E-02  0.1235069E+00
         21   -1    0    0  502  501  0.00000000000E+00  0.00000000000E+00  0.74168832581E+02  0.74168832581E+02  0.00000000000E+00 0. -1.
         21   -1    0    0  501  502 -0.00000000000E+00 -0.00000000000E+00 -0.52667001274E+02  0.52667001274E+02  0.00000000000E+00 0. -1.
         25    1    1    2    0    0  0.00000000000E+00  0.00000000000E+00  0.21501831307E+02  0.12683583385E+03  0.12500000000E+03 0.  0.
<mgrwt>
<rscale>  2 0.12500000E+03</rscale>
<asrwt>0</asrwt>
<pdfrwt beam="1">  1       21 0.11410590E-01 0.12500000E+03</pdfrwt>
<pdfrwt beam="2">  1       21 0.81026156E-02 0.12500000E+03</pdfrwt>
<totfact> 0.73791501E+06</totfact>
</mgrwt>
</event>
<event>
 3    0  0.1652108E+001  0.1250000E+03  0.7546771E-02  0.1235069E+00
         21   -1    0    0  502  501  0.00000000000E+00  0.00000000000E+00  0.17664771414E+03  0.17664771414E+03  0.00000000000E+00 0. -1.
         21   -1    0    0  501  502 -0.00000000000E+00 -0.00000000000E+00 -0.22113221329E+02  0.22113221329E+02  0.00000000000E+00 0. -1.
         25    1    1    2    0    0  0.00000000000E+00  0.00000000000E+00  0.15453449281E+03  0.19876093547E+03  0.12500000000E+03 0.  0.
<mgrwt>
<rscale>  2 0.12500000E+03</rscale>
<asrwt>0</asrwt>
<pdfrwt beam="1">  1       21 0.27176571E-01 0.12500000E+03</pdfrwt>
<pdfrwt beam="2">  1       21 0.34020342E-02 0.12500000E+03</pdfrwt>
<totfact> 0.65061732E+06</totfact>
</mgrwt>
</event>
<event>
 3    0  0.1609142E+001  0.1250000E+03  0.7546771E-02  0.1235069E+00
         21   -1    0    0  502  501  0.00000000000E+00  0.00000000000E+00  0.22065004557E+03  0.22065004557E+03  0.00000000000E+00 0. -1.
         21   -1    0    0  501  502 -0.00000000000E+00 -0.00000000000E+00 -0.17703372732E+02  0.17703372732E+02  0.00000000000E+00 0. -1.
         25    1    1    2    0    0  0.00000000000E+00  0.00000000000E+00  0.20294667284E+03  0.23835341830E+03  0.12500000000E+03 0.  0.
<mgrwt>
<rscale>  2 0.12500000E+03</rscale>
<asrwt>0</asrwt>
<pdfrwt beam="1">  1       21 0.33946159E-01 0.12500000E+03</pdfrwt>
<pdfrwt beam="2">  1       21 0.27235960E-02 0.12500000E+03</pdfrwt>
<totfact> 0.60992365E+06</totfact>
</mgrwt>
</event>
<event>
 3    0  0.1504596E+001  0.1250000E+03  0.7546771E-02  0.1235069E+00
         21   -1    0    0  502  501  0.00000000000E+00  0.00000000000E+00  0.98631704742E+01  0.98631704742E+01  0.00000000000E+00 0. -1.
         21   -1    0    0  501  502 -0.00000000000E+00 -0.00000000000E+00 -0.39604405198E+03  0.39604405198E+03  0.00000000000E+00 0. -1.
         25    1    1    2    0    0  0.00000000000E+00  0.00000000000E+00 -0.38618088151E+03  0.40590722246E+03  0.12500000000E+03 0.  0.
<mgrwt>
<rscale>  2 0.12500000E+03</rscale>
<asrwt>0</asrwt>
<pdfrwt beam="1">  1       21 0.15174113E-02 0.12500000E+03</pdfrwt>
<pdfrwt beam="2">  1       21 0.60929836E-01 0.12500000E+03</pdfrwt>
<totfact> 0.47651991E+06</totfact>
</mgrwt>
</event>
<event>
 3    0  0.1626344E+001  0.1250000E+03  0.7546771E-02  0.1235069E+00
         21   -1    0    0  502  501  0.00000000000E+00  0.00000000000E+00  0.16013479940E+02  0.16013479940E+02  0.00000000000E+00 0.  1.
         21   -1    0    0  501  502 -0.00000000000E+00 -0.00000000000E+00 -0.24393511058E+03  0.24393511058E+03  0.00000000000E+00 0.  1.
         25    1    1    2    0    0  0.00000000000E+00  0.00000000000E+00 -0.22792163064E+03  0.25994859052E+03  0.12500000000E+03 0.  0.
<mgrwt>
<rscale>  2 0.12500000E+03</rscale>
<asrwt>0</asrwt>
<pdfrwt beam="1">  1       21 0.24636123E-02 0.12500000E+03</pdfrwt>
<pdfrwt beam="2">  1       21 0.37528479E-01 0.12500000E+03</pdfrwt>
<totfact> 0.58953983E+06</totfact>
</mgrwt>
</event>
<event>
 3    0  0.1623914E+001  0.1250000E+03  0.7546771E-02  0.1235069E+00
         21   -1    0    0  502  501  0.00000000000E+00  0.00000000000E+00  0.20572579021E+03  0.20572579021E+03  0.00000000000E+00 0. -1.
         21   -1    0    0  501  502 -0.00000000000E+00 -0.00000000000E+00 -0.18987653401E+02  0.18987653401E+02  0.00000000000E+00 0. -1.
         25    1    1    2    0    0  0.00000000000E+00  0.00000000000E+00  0.18673813680E+03  0.22471344361E+03  0.12500000000E+03 0.  0.
<mgrwt>
<rscale>  2 0.12500000E+03</rscale>
<asrwt>0</asrwt>
<pdfrwt beam="1">  1       21 0.31650120E-01 0.12500000E+03</pdfrwt>
<pdfrwt beam="2">  1       21 0.29211776E-02 0.12500000E+03</pdfrwt>
<totfact> 0.62343983E+06</totfact>
</mgrwt>
</event>
<event>
 3    0  0.1461834E+001  0.1250000E+03  0.7546771E-02  0.1235069E+00
         21   -1    0    0  502  501  0.00000000000E+00  0.00000000000E+00  0.56478701800E+03  0.56478701800E+03  0.00000000000E+00 0.  1.
         21   -1    0    0  501  502 -0.00000000000E+00 -0.00000000000E+00 -0.69163239867E+01  0.69163239867E+01  0.00000000000E+00 0.  1.
         25    1    1    2    0    0  0.00000000000E+00  0.00000000000E+00  0.55787069401E+03  0.57170334199E+03  0.12500000000E+03 0.  0.
<mgrwt>
<rscale>  2 0.12500000E+03</rscale>
<asrwt>0</asrwt>
<pdfrwt beam="1">  1       21 0.86890274E-01 0.12500000E+03</pdfrwt>
<pdfrwt beam="2">  1       21 0.10640503E-02 0.12500000E+03</pdfrwt>
<totfact> 0.38404410E+06</totfact>
</mgrwt>
</event>
<event>
 3    0  0.1368989E+001  0.1250000E+03  0.7546771E-02  0.1235069E+00
         21   -1    0    0  502  501  0.00000000000E+00  0.00000000000E+00  0.40658931015E+01  0.40658931015E+01  0.00000000000E+00 0. -1.
         21   -1    0    0  501  502 -0.00000000000E+00 -0.00000000000E+00 -0.96073603080E+03  0.96073603080E+03  0.00000000000E+00 0. -1.
         25    1    1    2    0    0  0.00000000000E+00  0.00000000000E+00 -0.95667013770E+03  0.96480192390E+03  0.12500000000E+03 0.  0.
<mgrwt>
<rscale>  2 0.12500000E+03</rscale>
<asrwt>0</asrwt>
<pdfrwt beam="1">  1       21 0.62552204E-03 0.12500000E+03</pdfrwt>
<pdfrwt beam="2">  1       21 0.14780554E+00 0.12500000E+03</pdfrwt>
<totfact> 0.24519248E+06</totfact>
</mgrwt>
</event>
<event>
 3    0  0.1703141E+001  0.1250000E+03  0.7546771E-02  0.1235069E+00
         21   -1    0    0  502  501  0.00000000000E+00  0.00000000000E+00  0.55052084629E+02  0.55052084629E+02  0.00000000000E+00 0. -1.
         21   -1    0    0  501  502 -0.00000000000E+00 -0.00000000000E+00 -0.70955532862E+02  0.70955532862E+02  0.00000000000E+00 0. -1.
         25    1    1    2    0    0  0.00000000000E+00  0.00000000000E+00 -0.15903448234E+02  0.12600761749E+03  0.12500000000E+03 0.  0.
<mgrwt>
<rscale>  2 0.12500000E+03</rscale>
<asrwt>0</asrwt>
<pdfrwt beam="1">  1       21 0.84695515E-02 0.12500000E+03</pdfrwt>
<pdfrwt beam="2">  1       21 0.10916236E-01 0.12500000E+03</pdfrwt>
<totfact> 0.73904988E+06</totfact>
</mgrwt>
</event>
<event>
 3    0  0.1368989E+001  0.1250000E+03  0.7546771E-02  0.1235069E+00
         21   -1    0    0  502  501  0.00000000000E+00  0.00000000000E+00  0.11892625269E+04  0.11892625269E+04  0.00000000000E+00 0. -1.
         21   -1    0    0  501  502 -0.00000000000E+00 -0.00000000000E+00 -0.32845985740E+01  0.32845985740E+01  0.00000000000E+00 0. -1.
         25    1    1    2    0    0  0.00000000000E+00  0.00000000000E+00  0.11859779283E+04  0.11925471255E+04  0.12500000000E+03 0.  0.
<mgrwt>
<rscale>  2 0.12500000E+03</rscale>
<asrwt>0</asrwt>
<pdfrwt beam="1">  1       21 0.18296312E+00 0.12500000E+03</pdfrwt>
<pdfrwt beam="2">  1       21 0.50532381E-03 0.12500000E+03</pdfrwt>
<totfact> 0.19292569E+06</totfact>
</mgrwt>
</event>
<event>
 3    0  0.1553256E+001  0.1250000E+03  0.7546771E-02  0.1235069E+00
         21   -1    0    0  502  501  0.00000000000E+00  0.00000000000E+00  0.12909649520E+02  0.12909649520E+02  0.00000000000E+00 0. -1.
         21   -1    0    0  501  502 -0.00000000000E+00 -0.00000000000E+00 -0.30258373739E+03  0.30258373739E+03  0.00000000000E+00 0. -1.
         25    1    1    2    0    0  0.00000000000E+00  0.00000000000E+00 -0.28967408787E+03  0.31549338691E+03  0.12500000000E+03 0.  0.
<mgrwt>
<rscale>  2 0.12500000E+03</rscale>
<asrwt>0</asrwt>
<pdfrwt beam="1">  1       21 0.19861000E-02 0.12500000E+03</pdfrwt>
<pdfrwt beam="2">  1       21 0.46551342E-01 0.12500000E+03</pdfrwt>
<totfact> 0.54192413E+06</totfact>
</mgrwt>
</event>
<event>
 3    0  0.1693765E+001  0.1250000E+03  0.7546771E-02  0.1235069E+00
         21   -1    0    0  502  501  0.00000000000E+00  0.00000000000E+00  0.13513217580E+03  0.13513217580E+03  0.00000000000E+00 0.  1.
         21   -1    0    0  501  502 -0.00000000000E+00 -0.00000000000E+00 -0.28906883035E+02  0.28906883035E+02  0.00000000000E+00 0.  1.
         25    1    1    2    0    0  0.00000000000E+00  0.00000000000E+00  0.10622529276E+03  0.16403905883E+03  0.12500000000E+03 0.  0.
<mgrwt>
<rscale>  2 0.12500000E+03</rscale>
<asrwt>0</asrwt>
<pdfrwt beam="1">  1       21 0.20789565E-01 0.12500000E+03</pdfrwt>
<pdfrwt beam="2">  1       21 0.44472128E-02 0.12500000E+03</pdfrwt>
<totfact> 0.69029304E+06</totfact>
</mgrwt>
</event>
<event>
 3    0  0.1719754E+001  0.1250000E+03  0.7546771E-02  0.1235069E+00
         21   -1    0    0  502  501  0.00000000000E+00  0.00000000000E+00  0.88441067571E+02  0.88441067571E+02  0.00000000000E+00 0.  1.
         21   -1    0    0  501  502 -0.00000000000E+00 -0.00000000000E+00 -0.44167829576E+02  0.44167829576E+02  0.00000000000E+00 0.  1.
         25    1    1    2    0    0  0.00000000000E+00  0.00000000000E+00  0.44273237995E+02  0.13260889715E+03  0.12500000000E+03 0.  0.
<mgrwt>
<rscale>  2 0.12500000E+03</rscale>
<asrwt>0</asrwt>
<pdfrwt beam="1">  1       21 0.13606318E-01 0.12500000E+03</pdfrwt>
<pdfrwt beam="2">  1       21 0.67950507E-02 0.12500000E+03</pdfrwt>
<totfact> 0.73014669E+06</totfact>
</mgrwt>
</event>
<event>
 3    0  0.1694387E+001  0.1250000E+03  0.7546771E-02  0.1235069E+00
         21   -1    0    0  502  501  0.00000000000E+00  0.00000000000E+00  0.42184748245E+02  0.42184748245E+02  0.00000000000E+00 0. -1.
         21   -1    0    0  501  502 -0.00000000000E+00 -0.00000000000E+00 -0.92598632503E+02  0.92598632503E+02  0.00000000000E+00 0. -1.
         25    1    1    2    0    0  0.00000000000E+00  0.00000000000E+00 -0.50413884258E+02  0.13478338075E+03  0.12500000000E+03 0.  0.
<mgrwt>
<rscale>  2 0.12500000E+03</rscale>
<asrwt>0</asrwt>
<pdfrwt beam="1">  1       21 0.64899613E-02 0.12500000E+03</pdfrwt>
<pdfrwt beam="2">  1       21 0.14245943E-01 0.12500000E+03</pdfrwt>
<totfact> 0.72725166E+06</totfact>
</mgrwt>
</event>
<event>
 3    0  0.1676339E+001  0.1250000E+03  0.7546771E-02  0.1235069E+00
         21   -1    0    0  502  501  0.00000000000E+00  0.00000000000E+00  0.31679375595E+02  0.31679375595E+02  0.00000000000E+00 0. -1.
         21   -1    0    0  501  502 -0.00000000000E+00 -0.00000000000E+00 -0.12330577629E+03  0.12330577629E+03  0.00000000000E+00 0. -1.
         25    1    1    2    0    0  0.00000000000E+00  0.00000000000E+00 -0.91626400691E+02  0.15498515188E+03  0.12500000000E+03 0.  0.
<mgrwt>
<rscale>  2 0.12500000E+03</rscale>
<asrwt>0</asrwt>
<pdfrwt beam="1">  1       21 0.48737501E-02 0.12500000E+03</pdfrwt>
<pdfrwt beam="2">  1       21 0.18970120E-01 0.12500000E+03</pdfrwt>
<totfact> 0.70137504E+06</totfact>
</mgrwt>
</event>
<event>
 3    0  0.1368989E+001  0.1250000E+03  0.7546771E-02  0.1235069E+00
         21   -1    0    0  502  501  0.00000000000E+00  0.00000000000E+00  0.35043330788E+01  0.35043330788E+01  0.00000000000E+00 0. -1.
         21   -1    0    0  501  502 -0.00000000000E+00 -0.00000000000E+00 -0.11146914155E+04  0.11146914155E+04  0.00000000000E+00 0. -1.
         25    1    1    2    0    0  0.00000000000E+00  0.00000000000E+00 -0.11111870824E+04  0.11181957486E+04  0.12500000000E+03 0.  0.
<mgrwt>
<rscale>  2 0.12500000E+03</rscale>
<asrwt>0</asrwt>
<pdfrwt beam="1">  1       21 0.53912819E-03 0.12500000E+03</pdfrwt>
<pdfrwt beam="2">  1       21 0.17149098E+00 0.12500000E+03</pdfrwt>
<totfact> 0.20851222E+06</totfact>
</mgrwt>
</event>
<event>
 3    0  0.1705388E+001  0.1250000E+03  0.7546771E-02  0.1235069E+00
         21   -1    0    0  502  501  0.00000000000E+00  0.00000000000E+00  0.61718967870E+02  0.61718967870E+02  0.00000000000E+00 0. -1.
         21   -1    0    0  501  502 -0.00000000000E+00 -0.00000000000E+00 -0.63290915820E+02  0.63290915820E+02  0.00000000000E+00 0. -1.
         25    1    1    2    0    0  0.00000000000E+00  0.00000000000E+00 -0.15719479497E+01  0.12500988369E+03  0.12500000000E+03 0.  0.
<mgrwt>
<rscale>  2 0.12500000E+03</rscale>
<asrwt>0</asrwt>
<pdfrwt beam="1">  1       21 0.94952258E-02 0.12500000E+03</pdfrwt>
<pdfrwt beam="2">  1       21 0.97370640E-02 0.12500000E+03</pdfrwt>
<totfact> 0.74042246E+06</totfact>
</mgrwt>
</event>
<event>
 3    0  0.1368989E+001  0.1250000E+03  0.7546771E-02  0.1235069E+00
         21   -1    0    0  502  501  0.00000000000E+00  0.00000000000E+00  0.15548720509E+04  0.15548720509E+04  0.00000000000E+00 0.  1.
         21   -1    0    0  501  502 -0.00000000000E+00 -0.00000000000E+00 -0.25122645929E+01  0.25122645929E+01  0.00000000000E+00 0.  1.
         25    1    1    2    0    0  0.00000000000E+00  0.00000000000E+00  0.15523597863E+04  0.15573843155E+04  0.12500000000E+03 0.  0.
<mgrwt>
<rscale>  2 0.12500000E+03</rscale>
<asrwt>0</asrwt>
<pdfrwt beam="1">  1       21 0.23921032E+00 0.12500000E+03</pdfrwt>
<pdfrwt beam="2">  1       21 0.38650349E-03 0.12500000E+03</pdfrwt>
<totfact> 0.13163111E+06</totfact>
</mgrwt>
</event>
<event>
 3    0  0.1368989E+001  0.1250000E+03  0.7546771E-02  0.1235069E+00
         21   -1    0    0  502  501  0.00000000000E+00  0.00000000000E+00  0.41627723141E+01  0.41627723141E+01  0.00000000000E+00 0.  1.
         21   -1    0    0  501  502 -0.00000000000E+00 -0.00000000000E+00 -0.93837704906E+03  0.93837704906E+03  0.00000000000E+00 0.  1.
         25    1    1    2    0    0  0.00000000000E+00  0.00000000000E+00 -0.93421427674E+03  0.94253982137E+03  0.12500000000E+03 0.  0.
<mgrwt>
<rscale>  2 0.12500000E+03</rscale>
<asrwt>0</asrwt>
<pdfrwt beam="1">  1       21 0.64042591E-03 0.12500000E+03</pdfrwt>
<pdfrwt beam="2">  1       21 0.14436583E+00 0.12500000E+03</pdfrwt>
<totfact> 0.25112189E+06</totfact>
</mgrwt>
</event>
<event>
 3    0  0.1703889E+001  0.1250000E+03  0.7546771E-02  0.1235069E+00
         21   -1    0    0  502  501  0.00000000000E+00  0.00000000000E+00  0.12518144624E+03  0.12518144624E+03  0.00000000000E+00 0.  1.
         21   -1    0    0  501  502 -0.00000000000E+00 -0.00000000000E+00 -0.31204704190E+02  0.31204704190E+02  0.00000000000E+00 0.  1.
         25    1    1    2    0    0  0.00000000000E+00  0.00000000000E+00  0.93976742052E+02  0.15638615043E+03  0.12500000000E+03 0.  0.
<mgrwt>
<rscale>  2 0.12500000E+03</rscale>
<asrwt>0</asrwt>
<pdfrwt beam="1">  1       21 0.19258684E-01 0.12500000E+03</pdfrwt>
<pdfrwt beam="2">  1       21 0.48007238E-02 0.12500000E+03</pdfrwt>
<totfact> 0.69963787E+06</totfact>
</mgrwt>
</event>
<event>
 3    0  0.1490896E+001  0.1250000E+03  0.7546771E-02  0.1235069E+00
         21   -1    0    0  502  501  0.00000000000E+00  0.00000000000E+00  0.42261398598E+03  0.42261398598E+03  0.00000000000E+00 0. -1.
         21   -1    0    0  501  502 -0.00000000000E+00 -0.00000000000E+00 -0.92430684493E+01  0.92430684493E+01  0.00000000000E+00 0. -1.
         25    1    1    2    0    0  0.00000000000E+00  0.00000000000E+00  0.41337091753E+03  0.43185705443E+03  0.12500000000E+03 0.  0.
<mgrwt>
<rscale>  2 0.12500000E+03</rscale>
<asrwt>0</asrwt>
<pdfrwt beam="1">  1       21 0.65017522E-01 0.12500000E+03</pdfrwt>
<pdfrwt beam="2">  1       21 0.14220109E-02 0.12500000E+03</pdfrwt>
<totfact> 0.45997683E+06</totfact>
</mgrwt>
</event>
<event>
 3    0  0.1684374E+001  0.1250000E+03  0.7546771E-02  0.1235069E+00
         21   -1    0    0  502  501  0.00000000000E+00  0.00000000000E+00  0.28197195210E+02  0.28197195210E+02  0.00000000000E+00 0. -1.
         21   -1    0    0  501  502 -0.00000000000E+00 -0.00000000000E+00 -0.13853328216E+03  0.13853328216E+03  0.00000000000E+00 0. -1.
         25    1    1    2    0    0  0.00000000000E+00  0.00000000000E+00 -0.11033608695E+03  0.16673047737E+03  0.12500000000E+03 0.  0.
<mgrwt>
<rscale>  2 0.12500000E+03</rscale>
<asrwt>0</asrwt>
<pdfrwt beam="1">  1       21 0.43380300E-02 0.12500000E+03</pdfrwt>
<pdfrwt beam="2">  1       21 0.21312813E-01 0.12500000E+03</pdfrwt>
<totfact> 0.68706313E+06</totfact>
</mgrwt>
</event>
<event>
 3    0  0.1682759E+001  0.1250000E+03  0.7546771E-02  0.1235069E+00
         21   -1    0    0  502  501  0.00000000000E+00  0.00000000000E+00  0.31607462767E+02  0.31607462767E+02  0.00000000000E+00 0. -1.
         21   -1    0    0  501  502 -0.00000000000E+00 -0.00000000000E+00 -0.12358631975E+03  0.12358631975E+03  0.00000000000E+00 0. -1.
         25    1    1    2    0    0  0.00000000000E+00  0.00000000000E+00 -0.91978856983E+02  0.15519378252E+03  0.12500000000E+03 0.  0.
<mgrwt>
<rscale>  2 0.12500000E+03</rscale>
<asrwt>0</asrwt>
<pdfrwt beam="1">  1       21 0.48626866E-02 0.12500000E+03</pdfrwt>
<pdfrwt beam="2">  1       21 0.19013280E-01 0.12500000E+03</pdfrwt>
<totfact> 0.70111582E+06</totfact>
</mgrwt>
</event>
<event>
 3    0  0.1724468E+001  0.1250000E+03  0.7546771E-02  0.1235069E+00
         21   -1    0    0  502  501  0.00000000000E+00  0.00000000000E+00  0.85350483253E+02  0.85350483253E+02  0.00000000000E+00 0.  1.
         21   -1    0    0  501  502 -0.00000000000E+00 -0.00000000000E+00 -0.45767169102E+02  0.45767169102E+02  0.00000000000E+00 0.  1.
         25    1    1    2    0    0  0.00000000000E+00  0.00000000000E+00  0.39583314151E+02  0.13111765236E+03  0.12500000000E+03 0.  0.
<mgrwt>
<rscale>  2 0.12500000E+03</rscale>
<asrwt>0</asrwt>
<pdfrwt beam="1">  1       21 0.13130844E-01 0.12500000E+03</pdfrwt>
<pdfrwt beam="2">  1       21 0.70411029E-02 0.12500000E+03</pdfrwt>
<totfact> 0.73214821E+06</totfact>
</mgrwt>
</event>
<event>
 3    0  0.1670409E+001  0.1250000E+03  0.7546771E-02  0.1235069E+00
         21   -1    0    0  502  501  0.00000000000E+00  0.00000000000E+00  0.26508359495E+02  0.26508359495E+02  0.00000000000E+00 0. -1.
         21   -1    0    0  501  502 -0.00000000000E+00 -0.00000000000E+00 -0.14735917553E+03  0.14735917553E+03  0.00000000000E+00 0. -1.
         25    1    1    2    0    0  0.00000000000E+00  0.00000000000E+00 -0.12085081604E+03  0.17386753503E+03  0.12500000000E+03 0.  0.
<mgrwt>
<rscale>  2 0.12500000E+03</rscale>
<asrwt>0</asrwt>
<pdfrwt beam="1">  1       21 0.40782092E-02 0.12500000E+03</pdfrwt>
<pdfrwt beam="2">  1       21 0.22670642E-01 0.12500000E+03</pdfrwt>
<totfact> 0.67862093E+06</totfact>
</mgrwt>
</event>
<event>
 3    0  0.1552150E+001  0.1250000E+03  0.7546771E-02  0.1235069E+00
         21   -1    0    0  502  501  0.00000000000E+00  0.00000000000E+00  0.12159617912E+02  0.12159617912E+02  0.00000000000E+00 0. -1.
         21   -1    0    0  501  502 -0.00000000000E+00 -0.00000000000E+00 -0.32124775862E+03  0.32124775862E+03  0.00000000000E+00 0. -1.
         25    1    1    2    0    0  0.00000000000E+00  0.00000000000E+00 -0.30908814070E+03  0.33340737653E+03  0.12500000000E+03 0.  0.
<mgrwt>
<rscale>  2 0.12500000E+03</rscale>
<asrwt>0</asrwt>
<pdfrwt beam="1">  1       21 0.18707103E-02 0.12500000E+03</pdfrwt>
<pdfrwt beam="2">  1       21 0.49422737E-01 0.12500000E+03</pdfrwt>
<totfact> 0.52787687E+06</totfact>
</mgrwt>
</event>
<event>
 3    0  0.1370726E+001  0.1250000E+03  0.7546771E-02  0.1235069E+00
         21   -1    0    0  502  501  0.00000000000E+00  0.00000000000E+00  0.60610679752E+03  0.60610679752E+03  0.00000000000E+00 0. -1.
         21   -1    0    0  501  502 -0.00000000000E+00 -0.00000000000E+00 -0.64448213020E+01  0.64448213020E+01  0.00000000000E+00 0. -1.
         25    1    1    2    0    0  0.00000000000E+00  0.00000000000E+00  0.59966197622E+03  0.61255161883E+03  0.12500000000E+03 0.  0.
<mgrwt>
<rscale>  2 0.12500000E+03</rscale>
<asrwt>0</asrwt>
<pdfrwt beam="1">  1       21 0.93247155E-01 0.12500000E+03</pdfrwt>
<pdfrwt beam="2">  1       21 0.99151145E-03 0.12500000E+03</pdfrwt>
<totfact> 0.36531095E+06</totfact>
</mgrwt>
</event>
<event>
 3    0  0.1472331E+001  0.1250000E+03  0.7546771E-02  0.1235069E+00
         21   -1    0    0  502  501  0.00000000000E+00  0.00000000000E+00  0.51751554180E+03  0.51751554180E+03  0.00000000000E+00 0. -1.
         21   -1    0    0  501  502 -0.00000000000E+00 -0.00000000000E+00 -0.75480824913E+01  0.75480824913E+01  0.00000000000E+00 0. -1.
         25    1    1    2    0    0  0.00000000000E+00  0.00000000000E+00  0.50996745930E+03  0.52506362429E+03  0.12500000000E+03 0.  0.
<mgrwt>
<rscale>  2 0.12500000E+03</rscale>
<asrwt>0</asrwt>
<pdfrwt beam="1">  1       21 0.79617748E-01 0.12500000E+03</pdfrwt>
<pdfrwt beam="2">  1       21 0.11612439E-02 0.12500000E+03</pdfrwt>
<totfact> 0.40716646E+06</totfact>
</mgrwt>
</event>
<event>
 3    0  0.1526931E+001  0.1250000E+03  0.7546771E-02  0.1235069E+00
         21   -1    0    0  502  501  0.00000000000E+00  0.00000000000E+00  0.36771999033E+03  0.36771999033E+03  0.00000000000E+00 0. -1.
         21   -1    0    0  501  502 -0.00000000000E+00 -0.00000000000E+00 -0.10622892698E+02  0.10622892698E+02  0.00000000000E+00 0. -1.
         25    1    1    2    0    0  0.00000000000E+00  0.00000000000E+00  0.35709709763E+03  0.37834288302E+03  0.12500000000E+03 0.  0.
<mgrwt>
<rscale>  2 0.12500000E+03</rscale>
<asrwt>0</asrwt>
<pdfrwt beam="1">  1       21 0.56572296E-01 0.12500000E+03</pdfrwt>
<pdfrwt beam="2">  1       21 0.16342915E-02 0.12500000E+03</pdfrwt>
<totfact> 0.49510965E+06</totfact>
</mgrwt>
</event>
<event>
 3    0  0.1545352E+001  0.1250000E+03  0.7546771E-02  0.1235069E+00
         21   -1    0    0  502  501  0.00000000000E+00  0.00000000000E+00  0.34570240448E+03  0.34570240448E+03  0.00000000000E+00 0.  1.
         21   -1    0    0  501  502 -0.00000000000E+00 -0.00000000000E+00 -0.11299458579E+02  0.11299458579E+02  0.00000000000E+00 0.  1.
         25    1    1    2    0    0  0.00000000000E+00  0.00000000000E+00  0.33440294590E+03  0.35700186306E+03  0.12500000000E+03 0.  0.
<mgrwt>
<rscale>  2 0.12500000E+03</rscale>
<asrwt>0</asrwt>
<pdfrwt beam="1">  1       21 0.53184977E-01 0.12500000E+03</pdfrwt>
<pdfrwt beam="2">  1       21 0.17383785E-02 0.12500000E+03</pdfrwt>
<totfact> 0.51025450E+06</totfact>
</mgrwt>
</event>
<event>
 3    0  0.1646843E+001  0.1250000E+03  0.7546771E-02  0.1235069E+00
         21   -1    0    0  502  501  0.00000000000E+00  0.00000000000E+00  0.19611635632E+03  0.19611635632E+03  0.00000000000E+00 0.  1.
         21   -1    0    0  501  502 -0.00000000000E+00 -0.00000000000E+00 -0.19918022511E+02  0.19918022511E+02  0.00000000000E+00 0.  1.
         25    1    1    2    0    0  0.00000000000E+00  0.00000000000E+00  0.17619833381E+03  0.21603437883E+03  0.12500000000E+03 0.  0.
<mgrwt>
<rscale>  2 0.12500000E+03</rscale>
<asrwt>0</asrwt>
<pdfrwt beam="1">  1       21 0.30171746E-01 0.12500000E+03</pdfrwt>
<pdfrwt beam="2">  1       21 0.30643113E-02 0.12500000E+03</pdfrwt>
<totfact> 0.63230190E+06</totfact>
</mgrwt>
</event>
<event>
 3    0  0.1493491E+001  0.1250000E+03  0.7546771E-02  0.1235069E+00
         21   -1    0    0  502  501  0.00000000000E+00  0.00000000000E+00  0.40065864056E+03  0.40065864056E+03  0.00000000000E+00 0. -1.
         21   -1    0    0  501  502 -0.00000000000E+00 -0.00000000000E+00 -0.97495713422E+01  0.97495713422E+01  0.00000000000E+00 0. -1.
         25    1    1    2    0    0  0.00000000000E+00  0.00000000000E+00  0.39090906922E+03  0.41040821190E+03  0.12500000000E+03 0.  0.
<mgrwt>
<rscale>  2 0.12500000E+03</rscale>
<asrwt>0</asrwt>
<pdfrwt beam="1">  1       21 0.61639778E-01 0.12500000E+03</pdfrwt>
<pdfrwt beam="2">  1       21 0.14999344E-02 0.12500000E+03</pdfrwt>
<totfact> 0.47358567E+06</totfact>
</mgrwt>
</event>
<event>
 3    0  0.1713631E+001  0.1250000E+03  0.7546771E-02  0.1235069E+00
         21   -1    0    0  502  501  0.00000000000E+00  0.00000000000E+00  0.10612415200E+03  0.10612415200E+03  0.00000000000E+00 0.  1.
         21   -1    0    0  501  502 -0.00000000000E+00 -0.00000000000E+00 -0.36808303542E+02  0.36808303542E+02  0.00000000000E+00 0.  1.
         25    1    1    2    0    0  0.00000000000E+00  0.00000000000E+00  0.69315848458E+02  0.14293245554E+03  0.12500000000E+03 0.  0.
<mgrwt>
<rscale>  2 0.12500000E+03</rscale>
<asrwt>0</asrwt>
<pdfrwt beam="1">  1       21 0.16326792E-01 0.12500000E+03</pdfrwt>
<pdfrwt beam="2">  1       21 0.56628160E-02 0.12500000E+03</pdfrwt>
<totfact> 0.71658757E+06</totfact>
</mgrwt>
</event>
<event>
 3    0  0.1705402E+001  0.1250000E+03  0.7546771E-02  0.1235069E+00
         21   -1    0    0  502  501  0.00000000000E+00  0.00000000000E+00  0.63081241248E+02  0.63081241248E+02  0.00000000000E+00 0. -1.
         21   -1    0    0  501  502 -0.00000000000E+00 -0.00000000000E+00 -0.61924114408E+02  0.61924114408E+02  0.00000000000E+00 0. -1.
         25    1    1    2    0    0  0.00000000000E+00  0.00000000000E+00  0.11571268401E+01  0.12500535566E+03  0.12500000000E+03 0.  0.
<mgrwt>
<rscale>  2 0.12500000E+03</rscale>
<asrwt>0</asrwt>
<pdfrwt beam="1">  1       21 0.97048064E-02 0.12500000E+03</pdfrwt>
<pdfrwt beam="2">  1       21 0.95267868E-02 0.12500000E+03</pdfrwt>
<totfact> 0.74042858E+06</totfact>
</mgrwt>
</event>
<event>
 3    0  0.1667868E+001  0.1250000E+03  0.7546771E-02  0.1235069E+00
         21   -1    0    0  502  501  0.00000000000E+00  0.00000000000E+00  0.21678633795E+02  0.21678633795E+02  0.00000000000E+00 0.  1.
         21   -1    0    0  501  502 -0.00000000000E+00 -0.00000000000E+00 -0.18018893796E+03  0.18018893796E+03  0.00000000000E+00 0.  1.
         25    1    1    2    0    0  0.00000000000E+00  0.00000000000E+00 -0.15851030416E+03  0.20186757175E+03  0.12500000000E+03 0.  0.
<mgrwt>
<rscale>  2 0.12500000E+03</rscale>
<asrwt>0</asrwt>
<pdfrwt beam="1">  1       21 0.33351744E-02 0.12500000E+03</pdfrwt>
<pdfrwt beam="2">  1       21 0.27721375E-01 0.12500000E+03</pdfrwt>
<totfact> 0.64725449E+06</totfact>
</mgrwt>
</event>
<event>
 3    0  0.1368989E+001  0.1250000E+03  0.7546771E-02  0.1235069E+00
         21   -1    0    0  502  501  0.00000000000E+00  0.00000000000E+00  0.31639581413E+01  0.31639581413E+01  0.00000000000E+00 0. -1.
         21   -1    0    0  501  502 -0.00000000000E+00 -0.00000000000E+00 -0.12346086217E+04  0.12346086217E+04  0.00000000000E+00 0. -1.
         25    1    1    2    0    0  0.00000000000E+00  0.00000000000E+00 -0.12314446636E+04  0.12377725798E+04  0.12500000000E+03 0.  0.
<mgrwt>
<rscale>  2 0.12500000E+03</rscale>
<asrwt>0</asrwt>
<pdfrwt beam="1">  1       21 0.48676268E-03 0.12500000E+03</pdfrwt>
<pdfrwt beam="2">  1       21 0.18993983E+00 0.12500000E+03</pdfrwt>
<totfact> 0.18406533E+06</totfact>
</mgrwt>
</event>
<event>
 3    0  0.1704489E+001  0.1250000E+03  0.7546771E-02  0.1235069E+00
         21   -1    0    0  502  501  0.00000000000E+00  0.00000000000E+00  0.56737825515E+02  0.56737825515E+02  0.00000000000E+00 0. -1.
         21   -1    0    0  501  502 -0.00000000000E+00 -0.00000000000E+00 -0.68847368832E+02  0.68847368832E+02  0.00000000000E+00 0. -1.
         25    1    1    2    0    0  0.00000000000E+00  0.00000000000E+00 -0.12109543317E+02  0.12558519435E+03  0.12500000000E+03 0.  0.
<mgrwt>
<rscale>  2 0.12500000E+03</rscale>
<asrwt>0</asrwt>
<pdfrwt beam="1">  1       21 0.87288962E-02 0.12500000E+03</pdfrwt>
<pdfrwt beam="2">  1       21 0.10591903E-01 0.12500000E+03</pdfrwt>
<totfact> 0.73963505E+06</totfact>
</mgrwt>
</event>
<event>
 3    0  0.1702848E+001  0.1250000E+03  0.7546771E-02  0.1235069E+00
         21   -1    0    0  502  501  0.00000000000E+00  0.00000000000E+00  0.12564163872E+03  0.12564163872E+03  0.00000000000E+00 0.  1.
         21   -1    0    0  501  502 -0.00000000000E+00 -0.00000000000E+00 -0.31090409516E+02  0.31090409516E+02  0.00000000000E+00 0.  1.
         25    1    1    2    0    0  0.00000000000E+00  0.00000000000E+00  0.94551229200E+02  0.15673204823E+03  0.12500000000E+03 0.  0.
<mgrwt>
<rscale>  2 0.12500000E+03</rscale>
<asrwt>0</asrwt>
<pdfrwt beam="1">  1       21 0.19329483E-01 0.12500000E+03</pdfrwt>
<pdfrwt beam="2">  1       21 0.47831400E-02 0.12500000E+03</pdfrwt>
<totfact> 0.69921025E+06</totfact>
</mgrwt>
</event>
<event>
 3    0  0.1511065E+001  0.1250000E+03  0.7546771E-02  0.1235069E+00
         21   -1    0    0  502  501  0.00000000000E+00  0.00000000000E+00  0.39192947943E+03  0.39192947943E+03  0.00000000000E+00 0. -1.
         21   -1    0    0  501  502 -0.00000000000E+00 -0.00000000000E+00 -0.99667164759E+01  0.99667164759E+01  0.00000000000E+00 0. -1.
         25    1    1    2    0    0  0.00000000000E+00  0.00000000000E+00  0.38196276295E+03  0.40189619590E+03  0.12500000000E+03 0.  0.
<mgrwt>
<rscale>  2 0.12500000E+03</rscale>
<asrwt>0</asrwt>
<pdfrwt beam="1">  1       21 0.60296831E-01 0.12500000E+03</pdfrwt>
<pdfrwt beam="2">  1       21 0.15333413E-02 0.12500000E+03</pdfrwt>
<totfact> 0.47915837E+06</totfact>
</mgrwt>
</event>
<event>
 3    0  0.1584690E+001  0.1250000E+03  0.7546771E-02  0.1235069E+00
         21   -1    0    0  502  501  0.00000000000E+00  0.00000000000E+00  0.25156353380E+03  0.25156353380E+03  0.00000000000E+00 0. -1.
         21   -1    0    0  501  502 -0.00000000000E+00 -0.00000000000E+00 -0.15527886499E+02  0.15527886499E+02  0.00000000000E+00 0. -1.
         25    1    1    2    0    0  0.00000000000E+00  0.00000000000E+00  0.23603564730E+03  0.26709142030E+03  0.12500000000E+03 0.  0.
<mgrwt>
<rscale>  2 0.12500000E+03</rscale>
<asrwt>0</asrwt>
<pdfrwt beam="1">  1       21 0.38702079E-01 0.12500000E+03</pdfrwt>
<pdfrwt beam="2">  1       21 0.23889058E-02 0.12500000E+03</pdfrwt>
<totfact> 0.58305342E+06</totfact>
</mgrwt>
</event>
<event>
 3    0  0.1704796E+001  0.1250000E+03  0.7546771E-02  0.1235069E+00
         21   -1    0    0  502  501  0.00000000000E+00  0.00000000000E+00  0.58121103981E+02  0.58121103981E+02  0.00000000000E+00 0. -1.
         21   -1    0    0  501  502 -0.00000000000E+00 -0.00000000000E+00 -0.67208805966E+02  0.67208805966E+02  0.00000000000E+00 0. -1.
         25    1    1    2    0    0  0.00000000000E+00  0.00000000000E+00 -0.90877019845E+01  0.12532990995E+03  0.12500000000E+03 0.  0.
<mgrwt>
<rscale>  2 0.12500000E+03</rscale>
<asrwt>0</asrwt>
<pdfrwt beam="1">  1       21 0.89417083E-02 0.12500000E+03</pdfrwt>
<pdfrwt beam="2">  1       21 0.10339816E-01 0.12500000E+03</pdfrwt>
<totfact> 0.73999034E+06</totfact>
</mgrwt>
</event>
<event>
 3    0  0.1729282E+001  0.1250000E+03  0.7546771E-02  0.1235069E+00
         21   -1    0    0  502  501  0.00000000000E+00  0.00000000000E+00  0.54102782283E+02  0.54102782283E+02  0.00000000000E+00 0.  1.
         21   -1    0    0  501  502 -0.00000000000E+00 -0.00000000000E+00 -0.72200538220E+02  0.72200538220E+02  0.00000000000E+00 0.  1.
         25    1    1    2    0    0  0.00000000000E+00  0.00000000000E+00 -0.18097755937E+02  0.12630332050E+03  0.12500000000E+03 0.  0.
<mgrwt>
<rscale>  2 0.12500000E+03</rscale>
<asrwt>0</asrwt>
<pdfrwt beam="1">  1       21 0.83235049E-02 0.12500000E+03</pdfrwt>
<pdfrwt beam="2">  1       21 0.11107775E-01 0.12500000E+03</pdfrwt>
<totfact> 0.73864323E+06</totfact>
</mgrwt>
</event>
<event>
 3    0  0.1576087E+001  0.1250000E+03  0.7546771E-02  0.1235069E+00
         21   -1    0    0  502  501  0.00000000000E+00  0.00000000000E+00  0.32087773055E+03  0.32087773055E+03  0.00000000000E+00 0.  1.
         21   -1    0    0  501  502 -0.00000000000E+00 -0.00000000000E+00 -0.12173640076E+02  0.12173640076E+02  0.00000000000E+00 0.  1.
         25    1    1    2    0    0  0.00000000000E+00  0.00000000000E+00  0.30870409048E+03  0.33305137063E+03  0.12500000000E+03 0.  0.
<mgrwt>
<rscale>  2 0.12500000E+03</rscale>
<asrwt>0</asrwt>
<pdfrwt beam="1">  1       21 0.49365798E-01 0.12500000E+03</pdfrwt>
<pdfrwt beam="2">  1       21 0.18728679E-02 0.12500000E+03</pdfrwt>
<totfact> 0.52815030E+06</totfact>
</mgrwt>
</event>
<event>
 3    0  0.1368989E+001  0.1250000E+03  0.7546771E-02  0.1235069E+00
         21   -1    0    0  502  501  0.00000000000E+00  0.00000000000E+00  0.84996319377E+03  0.84996319377E+03  0.00000000000E+00 0.  1.
         21   -1    0    0  501  502 -0.00000000000E+00 -0.00000000000E+00 -0.45957872395E+01  0.45957872395E+01  0.00000000000E+00 0.  1.
         25    1    1    2    0    0  0.00000000000E+00  0.00000000000E+00  0.84536740653E+03  0.85455898101E+03  0.12500000000E+03 0.  0.
<mgrwt>
<rscale>  2 0.12500000E+03</rscale>
<asrwt>0</asrwt>
<pdfrwt beam="1">  1       21 0.13076344E+00 0.12500000E+03</pdfrwt>
<pdfrwt beam="2">  1       21 0.70704487E-03 0.12500000E+03</pdfrwt>
<totfact> 0.27632976E+06</totfact>
</mgrwt>
</event>
<event>
 3    0  0.1702894E+001  0.1250000E+03  0.7546771E-02  0.1235069E+00
         21   -1    0    0  502  501  0.00000000000E+00  0.00000000000E+00  0.52603989734E+02  0.52603989734E+02  0.00000000000E+00 0. -1.
         21   -1    0    0  501  502 -0.00000000000E+00 -0.00000000000E+00 -0.74257675506E+02  0.74257675506E+02  0.00000000000E+00 0. -1.
         25    1    1    2    0    0  0.00000000000E+00  0.00000000000E+00 -0.21653685772E+02  0.12686166524E+03  0.12500000000E+03 0.  0.
<mgrwt>
<rscale>  2 0.12500000E+03</rscale>
<asrwt>0</asrwt>
<pdfrwt beam="1">  1       21 0.80929215E-02 0.12500000E+03</pdfrwt>
<pdfrwt beam="2">  1       21 0.11424258E-01 0.12500000E+03</pdfrwt>
<totfact> 0.73787980E+06</totfact>
</mgrwt>
</event>
<event>
 3    0  0.1695208E+001  0.1250000E+03  0.7546771E-02  0.1235069E+00
         21   -1    0    0  502  501  0.00000000000E+00  0.00000000000E+00  0.92530590205E+02  0.92530590205E+02  0.00000000000E+00 0. -1.
         21   -1    0    0  501  502 -0.00000000000E+00 -0.00000000000E+00 -0.42215768767E+02  0.42215768767E+02  0.00000000000E+00 0. -1.
         25    1    1    2    0    0  0.00000000000E+00  0.00000000000E+00  0.50314821438E+02  0.13474635897E+03  0.12500000000E+03 0.  0.
<mgrwt>
<rscale>  2 0.12500000E+03</rscale>
<asrwt>0</asrwt>
<pdfrwt beam="1">  1       21 0.14235475E-01 0.12500000E+03</pdfrwt>
<pdfrwt beam="2">  1       21 0.64947337E-02 0.12500000E+03</pdfrwt>
<totfact> 0.72730073E+06</totfact>
</mgrwt>
</event>
<event>
 3    0  0.1368989E+001  0.1250000E+03  0.7546771E-02  0.1235069E+00
         21   -1    0    0  502  501  0.00000000000E+00  0.00000000000E+00  0.77339178593E+03  0.77339178593E+03  0.00000000000E+00 0. -1.
         21   -1    0    0  501  502 -0.00000000000E+00 -0.00000000000E+00 -0.50508035785E+01  0.50508035785E+01  0.00000000000E+00 0. -1.
         25    1    1    2    0    0  0.00000000000E+00  0.00000000000E+00  0.76834098236E+03  0.77844258951E+03  0.12500000000E+03 0.  0.
<mgrwt>
<rscale>  2 0.12500000E+03</rscale>
<asrwt>0</asrwt>
<pdfrwt beam="1">  1       21 0.11898326E+00 0.12500000E+03</pdfrwt>
<pdfrwt beam="2">  1       21 0.77704732E-03 0.12500000E+03</pdfrwt>
<totfact> 0.30089616E+06</totfact>
</mgrwt>
</event>
<event>
 3    0  0.1727839E+001  0.1250000E+03  0.7546771E-02  0.1235069E+00
         21   -1    0    0  502  501  0.00000000000E+00  0.00000000000E+00  0.80235433505E+02  0.80235433505E+02  0.00000000000E+00 0.  1.
         21   -1    0    0  501  502 -0.00000000000E+00 -0.00000000000E+00 -0.48684849441E+02  0.48684849441E+02  0.00000000000E+00 0.  1.
         25    1    1    2    0    0  0.00000000000E+00  0.00000000000E+00  0.31550584065E+02  0.12892028295E+03  0.12500000000E+03 0.  0.
<mgrwt>
<rscale>  2 0.12500000E+03</rscale>
<asrwt>0</asrwt>
<pdfrwt beam="1">  1       21 0.12343913E-01 0.12500000E+03</pdfrwt>
<pdfrwt beam="2">  1       21 0.74899769E-02 0.12500000E+03</pdfrwt>
<totfact> 0.73509589E+06</totfact>
</mgrwt>
</event>
<event>
 3    0  0.1470563E+001  0.1250000E+03  0.7546771E-02  0.1235069E+00
         21   -1    0    0  502  501  0.00000000000E+00  0.00000000000E+00  0.75564051331E+01  0.75564051331E+01  0.00000000000E+00 0. -1.
         21   -1    0    0  501  502 -0.00000000000E+00 -0.00000000000E+00 -0.51694554900E+03  0.51694554900E+03  0.00000000000E+00 0. -1.
         25    1    1    2    0    0  0.00000000000E+00  0.00000000000E+00 -0.50938914387E+03  0.52450195413E+03  0.12500000000E+03 0.  0.
<mgrwt>
<rscale>  2 0.12500000E+03</rscale>
<asrwt>0</asrwt>
<pdfrwt beam="1">  1       21 0.11625237E-02 0.12500000E+03</pdfrwt>
<pdfrwt beam="2">  1       21 0.79530093E-01 0.12500000E+03</pdfrwt>
<totfact> 0.40745701E+06</totfact>
</mgrwt>
</event>
<event>
 3    0  0.1368989E+001  0.1250000E+03  0.7546771E-02  0.1235069E+00
         21   -1    0    0  502  501  0.00000000000E+00  0.00000000000E+00  0.89407297611E+03  0.89407297611E+03  0.00000000000E+00 0.  1.
         21   -1    0    0  501  502 -0.00000000000E+00 -0.00000000000E+00 -0.43690505187E+01  0.43690505187E+01  0.00000000000E+00 0.  1.
         25    1    1    2    0    0  0.00000000000E+00  0.00000000000E+00  0.88970392559E+03  0.89844202663E+03  0.12500000000E+03 0.  0.
<mgrwt>
<rscale>  2 0.12500000E+03</rscale>
<asrwt>0</asrwt>
<pdfrwt beam="1">  1       21 0.13754954E+00 0.12500000E+03</pdfrwt>
<pdfrwt beam="2">  1       21 0.67216233E-03 0.12500000E+03</pdfrwt>
<totfact> 0.26343984E+06</totfact>
</mgrwt>
</event>
<event>
 3    0  0.1369884E+001  0.1250000E+03  0.7546771E-02  0.1235069E+00
         21   -1    0    0  502  501  0.00000000000E+00  0.00000000000E+00  0.68783646165E+03  0.68783646165E+03  0.00000000000E+00 0. -1.
         21   -1    0    0  501  502 -0.00000000000E+00 -0.00000000000E+00 -0.56790388672E+01  0.56790388672E+01  0.00000000000E+00 0. -1.
         25    1    1    2    0    0  0.00000000000E+00  0.00000000000E+00  0.68215742279E+03  0.69351550052E+03  0.12500000000E+03 0.  0.
<mgrwt>
<rscale>  2 0.12500000E+03</rscale>
<asrwt>0</asrwt>
<pdfrwt beam="1">  1       21 0.10582093E+00 0.12500000E+03</pdfrwt>
<pdfrwt beam="2">  1       21 0.87369883E-03 0.12500000E+03</pdfrwt>
<totfact> 0.33161658E+06</totfact>
</mgrwt>
</event>
<event>
 3    0  0.1368989E+001  0.1250000E+03  0.7546771E-02  0.1235069E+00
         21   -1    0    0  502  501  0.00000000000E+00  0.00000000000E+00  0.16322453801E+01  0.16322453801E+01  0.00000000000E+00 0.  1.
         21   -1    0    0  501  502 -0.00000000000E+00 -0.00000000000E+00 -0.23931757123E+04  0.23931757123E+04  0.00000000000E+00 0.  1.
         25    1    1    2    0    0  0.00000000000E+00  0.00000000000E+00 -0.23915434669E+04  0.23948079576E+04  0.12500000000E+03 0.  0.
<mgrwt>
<rscale>  2 0.12500000E+03</rscale>
<asrwt>0</asrwt>
<pdfrwt beam="1">  1       21 0.25111329E-03 0.12500000E+03</pdfrwt>
<pdfrwt beam="2">  1       21 0.36818290E+00 0.12500000E+03</pdfrwt>
<totfact> 0.46993929E+05</totfact>
</mgrwt>
</event>
<event>
 3    0  0.1481584E+001  0.1250000E+03  0.7546771E-02  0.1235069E+00
         21   -1    0    0  502  501  0.00000000000E+00  0.00000000000E+00  0.91358374348E+01  0.91358374348E+01  0.00000000000E+00 0. -1.
         21   -1    0    0  501  502 -0.00000000000E+00 -0.00000000000E+00 -0.42757437705E+03  0.42757437705E+03  0.00000000000E+00 0. -1.
         25    1    1    2    0    0  0.00000000000E+00  0.00000000000E+00 -0.41843853962E+03  0.43671021448E+03  0.12500000000E+03 0.  0.
<mgrwt>
<rscale>  2 0.12500000E+03</rscale>
<asrwt>0</asrwt>
<pdfrwt beam="1">  1       21 0.14055136E-02 0.12500000E+03</pdfrwt>
<pdfrwt beam="2">  1       21 0.65780667E-01 0.12500000E+03</pdfrwt>
<totfact> 0.45698050E+06</totfact>
</mgrwt>
</event>
<event>
 3    0  0.1368989E+001  0.1250000E+03  0.7546771E-02  0.1235069E+00
         21   -1    0    0  502  501  0.00000000000E+00  0.00000000000E+00  0.64894534194E+03  0.64894534194E+03  0.00000000000E+00 0. -1.
         21   -1    0    0  501  502 -0.00000000000E+00 -0.00000000000E+00 -0.60193821383E+01  0.60193821383E+01  0.00000000000E+00 0. -1.
         25    1    1    2    0    0  0.00000000000E+00  0.00000000000E+00  0.64292595981E+03  0.65496472408E+03  0.12500000000E+03 0.  0.
<mgrwt>
<rscale>  2 0.12500000E+03</rscale>
<asrwt>0</asrwt>
<pdfrwt beam="1">  1       21 0.99837690E-01 0.12500000E+03</pdfrwt>
<pdfrwt beam="2">  1       21 0.92605930E-03 0.12500000E+03</pdfrwt>
<totfact> 0.34718908E+06</totfact>
</mgrwt>
</event>
<event>
 3    0  0.1581080E+001  0.1250000E+03  0.7546771E-02  0.1235069E+00
         21   -1    0    0  502  501  0.00000000000E+00  0.00000000000E+00  0.26603039701E+03  0.26603039701E+03  0.00000000000E+00 0. -1.
         21   -1    0    0  501  502 -0.00000000000E+00 -0.00000000000E+00 -0.14683472430E+02  0.14683472430E+02  0.00000000000E+00 0. -1.
         25    1    1    2    0    0  0.00000000000E+00  0.00000000000E+00  0.25134692458E+03  0.28071386944E+03  0.12500000000E+03 0.  0.
<mgrwt>
<rscale>  2 0.12500000E+03</rscale>
<asrwt>0</asrwt>
<pdfrwt beam="1">  1       21 0.40927750E-01 0.12500000E+03</pdfrwt>
<pdfrwt beam="2">  1       21 0.22589959E-02 0.12500000E+03</pdfrwt>
<totfact> 0.57098005E+06</totfact>
</mgrwt>
</event>
<event>
 3    0  0.1704573E+001  0.1250000E+03  0.7546771E-02  0.1235069E+00
         21   -1    0    0  502  501  0.00000000000E+00  0.00000000000E+00  0.57695261726E+02  0.57695261726E+02  0.00000000000E+00 0. -1.
         21   -1    0    0  501  502 -0.00000000000E+00 -0.00000000000E+00 -0.67704866624E+02  0.67704866624E+02  0.00000000000E+00 0. -1.
         25    1    1    2    0    0  0.00000000000E+00  0.00000000000E+00 -0.10009604898E+02  0.12540012835E+03  0.12500000000E+03 0.  0.
<mgrwt>
<rscale>  2 0.12500000E+03</rscale>
<asrwt>0</asrwt>
<pdfrwt beam="1">  1       21 0.88761942E-02 0.12500000E+03</pdfrwt>
<pdfrwt beam="2">  1       21 0.10416133E-01 0.12500000E+03</pdfrwt>
<totfact> 0.73989394E+06</totfact>
</mgrwt>
</event>
<event>
 3    0  0.1702619E+001  0.1250000E+03  0.7546771E-02  0.1235069E+00
         21   -1    0    0  502  501  0.00000000000E+00  0.00000000000E+00  0.80733394718E+02  0.80733394718E+02  0.00000000000E+00 0. -1.
         21   -1    0    0  501  502 -0.00000000000E+00 -0.00000000000E+00 -0.48384562716E+02  0.48384562716E+02  0.00000000000E+00 0. -1.
         25    1    1    2    0    0  0.00000000000E+00  0.00000000000E+00  0.32348832002E+02  0.12911795743E+03  0.12500000000E+03 0.  0.
<mgrwt>
<rscale>  2 0.12500000E+03</rscale>
<asrwt>0</asrwt>
<pdfrwt beam="1">  1       21 0.12420522E-01 0.12500000E+03</pdfrwt>
<pdfrwt beam="2">  1       21 0.74437789E-02 0.12500000E+03</pdfrwt>
<totfact> 0.73483044E+06</totfact>
</mgrwt>
</event>
<event>
 3    0  0.1652345E+001  0.1250000E+03  0.7546771E-02  0.1235069E+00
         21   -1    0    0  502  501  0.00000000000E+00  0.00000000000E+00  0.22862496422E+02  0.22862496422E+02  0.00000000000E+00 0. -1.
         21   -1    0    0  501  502 -0.00000000000E+00 -0.00000000000E+00 -0.17085841931E+03  0.17085841931E+03  0.00000000000E+00 0. -1.
         25    1    1    2    0    0  0.00000000000E+00  0.00000000000E+00 -0.14799592288E+03  0.19372091573E+03  0.12500000000E+03 0.  0.
<mgrwt>
<rscale>  2 0.12500000E+03</rscale>
<asrwt>0</asrwt>
<pdfrwt beam="1">  1       21 0.35173071E-02 0.12500000E+03</pdfrwt>
<pdfrwt beam="2">  1       21 0.26285911E-01 0.12500000E+03</pdfrwt>
<totfact> 0.65611287E+06</totfact>
</mgrwt>
</event>
<event>
 3    0  0.1630164E+001  0.1250000E+03  0.7546771E-02  0.1235069E+00
         21   -1    0    0  502  501  0.00000000000E+00  0.00000000000E+00  0.21180689420E+03  0.21180689420E+03  0.00000000000E+00 0. -1.
         21   -1    0    0  501  502 -0.00000000000E+00 -0.00000000000E+00 -0.18442506392E+02  0.18442506392E+02  0.00000000000E+00 0. -1.
         25    1    1    2    0    0  0.00000000000E+00  0.00000000000E+00  0.19336438781E+03  0.23024940059E+03  0.12500000000E+03 0.  0.
<mgrwt>
<rscale>  2 0.12500000E+03</rscale>
<asrwt>0</asrwt>
<pdfrwt beam="1">  1       21 0.32585674E-01 0.12500000E+03</pdfrwt>
<pdfrwt beam="2">  1       21 0.28373088E-02 0.12500000E+03</pdfrwt>
<totfact> 0.61789169E+06</totfact>
</mgrwt>
</event>
<event>
 3    0  0.1485358E+001  0.1250000E+03  0.7546771E-02  0.1235069E+00
         21   -1    0    0  502  501  0.00000000000E+00  0.00000000000E+00  0.89477037080E+01  0.89477037080E+01  0.00000000000E+00 0.  1.
         21   -1    0    0  501  502 -0.00000000000E+00 -0.00000000000E+00 -0.43656452286E+03  0.43656452286E+03  0.00000000000E+00 0.  1.
         25    1    1    2    0    0  0.00000000000E+00  0.00000000000E+00 -0.42761681915E+03  0.44551222657E+03  0.12500000000E+03 0.  0.
<mgrwt>
<rscale>  2 0.12500000E+03</rscale>
<asrwt>0</asrwt>
<pdfrwt beam="1">  1       21 0.13765695E-02 0.12500000E+03</pdfrwt>
<pdfrwt beam="2">  1       21 0.67163787E-01 0.12500000E+03</pdfrwt>
<totfact> 0.45162024E+06</totfact>
</mgrwt>
</event>
<event>
 3    0  0.1368989E+001  0.1250000E+03  0.7546771E-02  0.1235069E+00
         21   -1    0    0  502  501  0.00000000000E+00  0.00000000000E+00  0.66745938838E+03  0.66745938838E+03  0.00000000000E+00 0. -1.
         21   -1    0    0  501  502 -0.00000000000E+00 -0.00000000000E+00 -0.58524159941E+01  0.58524159941E+01  0.00000000000E+00 0. -1.
         25    1    1    2    0    0  0.00000000000E+00  0.00000000000E+00  0.66160697239E+03  0.67331180438E+03  0.12500000000E+03 0.  0.
<mgrwt>
<rscale>  2 0.12500000E+03</rscale>
<asrwt>0</asrwt>
<pdfrwt beam="1">  1       21 0.10268600E+00 0.12500000E+03</pdfrwt>
<pdfrwt beam="2">  1       21 0.90037222E-03 0.12500000E+03</pdfrwt>
<totfact> 0.33964683E+06</totfact>
</mgrwt>
</event>
<event>
 3    0  0.1600057E+001  0.1250000E+03  0.7546771E-02  0.1235069E+00
         21   -1    0    0  502  501  0.00000000000E+00  0.00000000000E+00  0.23273853855E+03  0.23273853855E+03  0.00000000000E+00 0. -1.
         21   -1    0    0  501  502 -0.00000000000E+00 -0.00000000000E+00 -0.16783855499E+02  0.16783855499E+02  0.00000000000E+00 0. -1.
         25    1    1    2    0    0  0.00000000000E+00  0.00000000000E+00  0.21595468305E+03  0.24952239405E+03  0.12500000000E+03 0.  0.
<mgrwt>
<rscale>  2 0.12500000E+03</rscale>
<asrwt>0</asrwt>
<pdfrwt beam="1">  1       21 0.35805927E-01 0.12500000E+03</pdfrwt>
<pdfrwt beam="2">  1       21 0.25821318E-02 0.12500000E+03</pdfrwt>
<totfact> 0.59923185E+06</totfact>
</mgrwt>
</event>
<event>
 3    0  0.1712520E+001  0.1250000E+03  0.7546771E-02  0.1235069E+00
         21   -1    0    0  502  501  0.00000000000E+00  0.00000000000E+00  0.11354451530E+03  0.11354451530E+03  0.00000000000E+00 0.  1.
         21   -1    0    0  501  502 -0.00000000000E+00 -0.00000000000E+00 -0.34402806596E+02  0.34402806596E+02  0.00000000000E+00 0.  1.
         25    1    1    2    0    0  0.00000000000E+00  0.00000000000E+00  0.79141708706E+02  0.14794732190E+03  0.12500000000E+03 0.  0.
<mgrwt>
<rscale>  2 0.12500000E+03</rscale>
<asrwt>0</asrwt>
<pdfrwt beam="1">  1       21 0.17468387E-01 0.12500000E+03</pdfrwt>
<pdfrwt beam="2">  1       21 0.52927395E-02 0.12500000E+03</pdfrwt>
<totfact> 0.71018017E+06</totfact>
</mgrwt>
</event>
<event>
 3    0  0.1713540E+001  0.1250000E+03  0.7546771E-02  0.1235069E+00
         21   -1    0    0  502  501  0.00000000000E+00  0.00000000000E+00  0.10314153205E+03  0.10314153205E+03  0.00000000000E+00 0.  1.
         21   -1    0    0  501  502 -0.00000000000E+00 -0.00000000000E+00 -0.37872716472E+02  0.37872716472E+02  0.00000000000E+00 0.  1.
         25    1    1    2    0    0  0.00000000000E+00  0.00000000000E+00  0.65268815582E+02  0.14101424853E+03  0.12500000000E+03 0.  0.
<mgrwt>
<rscale>  2 0.12500000E+03</rscale>
<asrwt>0</asrwt>
<pdfrwt beam="1">  1       21 0.15867928E-01 0.12500000E+03</pdfrwt>
<pdfrwt beam="2">  1       21 0.58265718E-02 0.12500000E+03</pdfrwt>
<totfact> 0.71907176E+06</totfact>
</mgrwt>
</event>
<event>
 3    0  0.1575226E+001  0.1250000E+03  0.7546771E-02  0.1235069E+00
         21   -1    0    0  502  501  0.00000000000E+00  0.00000000000E+00  0.13346428770E+02  0.13346428770E+02  0.00000000000E+00 0. -1.
         21   -1    0    0  501  502 -0.00000000000E+00 -0.00000000000E+00 -0.29268129080E+03  0.29268129080E+03  0.00000000000E+00 0. -1.
         25    1    1    2    0    0  0.00000000000E+00  0.00000000000E+00 -0.27933486203E+03  0.30602771957E+03  0.12500000000E+03 0.  0.
<mgrwt>
<rscale>  2 0.12500000E+03</rscale>
<asrwt>0</asrwt>
<pdfrwt beam="1">  1       21 0.20532969E-02 0.12500000E+03</pdfrwt>
<pdfrwt beam="2">  1       21 0.45027888E-01 0.12500000E+03</pdfrwt>
<totfact> 0.54958939E+06</totfact>
</mgrwt>
</event>
<event>
 3    0  0.1368989E+001  0.1250000E+03  0.7546771E-02  0.1235069E+00
         21   -1    0    0  502  501  0.00000000000E+00  0.00000000000E+00  0.16844028880E+04  0.16844028880E+04  0.00000000000E+00 0. -1.
         21   -1    0    0  501  502 -0.00000000000E+00 -0.00000000000E+00 -0.23190710654E+01  0.23190710654E+01  0.00000000000E+00 0. -1.
         25    1    1    2    0    0  0.00000000000E+00  0.00000000000E+00  0.16820838169E+04  0.16867219590E+04  0.12500000000E+03 0.  0.
<mgrwt>
<rscale>  2 0.12500000E+03</rscale>
<asrwt>0</asrwt>
<pdfrwt beam="1">  1       21 0.25913793E+00 0.12500000E+03</pdfrwt>
<pdfrwt beam="2">  1       21 0.35678151E-03 0.12500000E+03</pdfrwt>
<totfact> 0.11436624E+06</totfact>
</mgrwt>
</event>
<event>
 3    0  0.1728762E+001  0.1250000E+03  0.7546771E-02  0.1235069E+00
         21   -1    0    0  502  501  0.00000000000E+00  0.00000000000E+00  0.51132821582E+02  0.51132821582E+02  0.00000000000E+00 0.  1.
         21   -1    0    0  501  502 -0.00000000000E+00 -0.00000000000E+00 -0.76394180472E+02  0.76394180472E+02  0.00000000000E+00 0.  1.
         25    1    1    2    0    0  0.00000000000E+00  0.00000000000E+00 -0.25261358890E+02  0.12752700205E+03  0.12500000000E+03 0.  0.
<mgrwt>
<rscale>  2 0.12500000E+03</rscale>
<asrwt>0</asrwt>
<pdfrwt beam="1">  1       21 0.78665880E-02 0.12500000E+03</pdfrwt>
<pdfrwt beam="2">  1       21 0.11752951E-01 0.12500000E+03</pdfrwt>
<totfact> 0.73697558E+06</totfact>
</mgrwt>
</event>
<event>
 3    0  0.1694302E+001  0.1250000E+03  0.7546771E-02  0.1235069E+00
         21   -1    0    0  502  501  0.00000000000E+00  0.00000000000E+00  0.27014706892E+02  0.27014706892E+02  0.00000000000E+00 0.  1.
         21   -1    0    0  501  502 -0.00000000000E+00 -0.00000000000E+00 -0.14459716389E+03  0.14459716389E+03  0.00000000000E+00 0.  1.
         25    1    1    2    0    0  0.00000000000E+00  0.00000000000E+00 -0.11758245700E+03  0.17161187079E+03  0.12500000000E+03 0.  0.
<mgrwt>
<rscale>  2 0.12500000E+03</rscale>
<asrwt>0</asrwt>
<pdfrwt beam="1">  1       21 0.41561086E-02 0.12500000E+03</pdfrwt>
<pdfrwt beam="2">  1       21 0.22245718E-01 0.12500000E+03</pdfrwt>
<totfact> 0.68127069E+06</totfact>
</mgrwt>
</event>
<event>
 3    0  0.1720243E+001  0.1250000E+03  0.7546771E-02  0.1235069E+00
         21   -1    0    0  502  501  0.00000000000E+00  0.00000000000E+00  0.42558840500E+02  0.42558840500E+02  0.00000000000E+00 0.  1.
         21   -1    0    0  501  502 -0.00000000000E+00 -0.00000000000E+00 -0.91784690423E+02  0.91784690423E+02  0.00000000000E+00 0.  1.
         25    1    1    2    0    0  0.00000000000E+00  0.00000000000E+00 -0.49225849923E+02  0.13434353092E+03  0.12500000000E+03 0.  0.
<mgrwt>
<rscale>  2 0.12500000E+03</rscale>
<asrwt>0</asrwt>
<pdfrwt beam="1">  1       21 0.65475139E-02 0.12500000E+03</pdfrwt>
<pdfrwt beam="2">  1       21 0.14120722E-01 0.12500000E+03</pdfrwt>
<totfact> 0.72783510E+06</totfact>
</mgrwt>
</event>
<event>
 3    0  0.1680603E+001  0.1250000E+03  0.7546771E-02  0.1235069E+00
         21   -1    0    0  502  501  0.00000000000E+00  0.00000000000E+00  0.12149328102E+03  0.12149328102E+03  0.00000000000E+00 0. -1.
         21   -1    0    0  501  502 -0.00000000000E+00 -0.00000000000E+00 -0.32151983773E+02  0.32151983773E+02  0.00000000000E+00 0. -1.
         25    1    1    2    0    0  0.00000000000E+00  0.00000000000E+00  0.89341297251E+02  0.15364526480E+03  0.12500000000E+03 0.  0.
<mgrwt>
<rscale>  2 0.12500000E+03</rscale>
<asrwt>0</asrwt>
<pdfrwt beam="1">  1       21 0.18691274E-01 0.12500000E+03</pdfrwt>
<pdfrwt beam="2">  1       21 0.49464591E-02 0.12500000E+03</pdfrwt>
<totfact> 0.70304236E+06</totfact>
</mgrwt>
</event>
<event>
 3    0  0.1368989E+001  0.1250000E+03  0.7546771E-02  0.1235069E+00
         21   -1    0    0  502  501  0.00000000000E+00  0.00000000000E+00  0.28082382641E+01  0.28082382641E+01  0.00000000000E+00 0. -1.
         21   -1    0    0  501  502 -0.00000000000E+00 -0.00000000000E+00 -0.13909966437E+04  0.13909966437E+04  0.00000000000E+00 0. -1.
         25    1    1    2    0    0  0.00000000000E+00  0.00000000000E+00 -0.13881884054E+04  0.13938048819E+04  0.12500000000E+03 0.  0.
<mgrwt>
<rscale>  2 0.12500000E+03</rscale>
<asrwt>0</asrwt>
<pdfrwt beam="1">  1       21 0.43203759E-03 0.12500000E+03</pdfrwt>
<pdfrwt beam="2">  1       21 0.21399902E+00 0.12500000E+03</pdfrwt>
<totfact> 0.15645963E+06</totfact>
</mgrwt>
</event>
<event>
 3    0  0.1699127E+001  0.1250000E+03  0.7546771E-02  0.1235069E+00
         21   -1    0    0  502  501  0.00000000000E+00  0.00000000000E+00  0.46948138299E+02  0.46948138299E+02  0.00000000000E+00 0. -1.
         21   -1    0    0  501  502 -0.00000000000E+00 -0.00000000000E+00 -0.83203512248E+02  0.83203512248E+02  0.00000000000E+00 0. -1.
         25    1    1    2    0    0  0.00000000000E+00  0.00000000000E+00 -0.36255373949E+02  0.13015165055E+03  0.12500000000E+03 0.  0.
<mgrwt>
<rscale>  2 0.12500000E+03</rscale>
<asrwt>0</asrwt>
<pdfrwt beam="1">  1       21 0.72227906E-02 0.12500000E+03</pdfrwt>
<pdfrwt beam="2">  1       21 0.12800540E-01 0.12500000E+03</pdfrwt>
<totfact> 0.73344654E+06</totfact>
</mgrwt>
</event>
<event>
 3    0  0.1368989E+001  0.1250000E+03  0.7546771E-02  0.1235069E+00
         21   -1    0    0  502  501  0.00000000000E+00  0.00000000000E+00  0.28464104107E+04  0.28464104107E+04  0.00000000000E+00 0. -1.
         21   -1    0    0  501  502 -0.00000000000E+00 -0.00000000000E+00 -0.13723425074E+01  0.13723425074E+01  0.00000000000E+00 0. -1.
         25    1    1    2    0    0  0.00000000000E+00  0.00000000000E+00  0.28450380681E+04  0.28477827532E+04  0.12500000000E+03 0.  0.
<mgrwt>
<rscale>  2 0.12500000E+03</rscale>
<asrwt>0</asrwt>
<pdfrwt beam="1">  1       21 0.43790457E+00 0.12500000E+03</pdfrwt>
<pdfrwt beam="2">  1       21 0.21113190E-03 0.12500000E+03</pdfrwt>
<totfact> 0.22831967E+05</totfact>
</mgrwt>
</event>
<event>
 3    0  0.1368989E+001  0.1250000E+03  0.7546771E-02  0.1235069E+00
         21   -1    0    0  502  501  0.00000000000E+00  0.00000000000E+00  0.89656344131E+03  0.89656344131E+03  0.00000000000E+00 0. -1.
         21   -1    0    0  501  502 -0.00000000000E+00 -0.00000000000E+00 -0.43569142126E+01  0.43569142126E+01  0.00000000000E+00 0. -1.
         25    1    1    2    0    0  0.00000000000E+00  0.00000000000E+00  0.89220652710E+03  0.90092035553E+03  0.12500000000E+03 0.  0.
<mgrwt>
<rscale>  2 0.12500000E+03</rscale>
<asrwt>0</asrwt>
<pdfrwt beam="1">  1       21 0.13793269E+00 0.12500000E+03</pdfrwt>
<pdfrwt beam="2">  1       21 0.67029521E-03 0.12500000E+03</pdfrwt>
<totfact> 0.26272693E+06</totfact>
</mgrwt>
</event>
<event>
 3    0  0.1368989E+001  0.1250000E+03  0.7546771E-02  0.1235069E+00
         21   -1    0    0  502  501  0.00000000000E+00  0.00000000000E+00  0.70516552084E+03  0.70516552084E+03  0.00000000000E+00 0.  1.
         21   -1    0    0  501  502 -0.00000000000E+00 -0.00000000000E+00 -0.55394795755E+01  0.55394795755E+01  0.00000000000E+00 0.  1.
         25    1    1    2    0    0  0.00000000000E+00  0.00000000000E+00  0.69962604126E+03  0.71070500041E+03  0.12500000000E+03 0.  0.
<mgrwt>
<rscale>  2 0.12500000E+03</rscale>
<asrwt>0</asrwt>
<pdfrwt beam="1">  1       21 0.10848693E+00 0.12500000E+03</pdfrwt>
<pdfrwt beam="2">  1       21 0.85222818E-03 0.12500000E+03</pdfrwt>
<totfact> 0.32501510E+06</totfact>
</mgrwt>
</event>
<event>
 3    0  0.1700211E+001  0.1250000E+03  0.7546771E-02  0.1235069E+00
         21   -1    0    0  502  501  0.00000000000E+00  0.00000000000E+00  0.30850110213E+02  0.30850110213E+02  0.00000000000E+00 0.  1.
         21   -1    0    0  501  502 -0.00000000000E+00 -0.00000000000E+00 -0.12662029319E+03  0.12662029319E+03  0.00000000000E+00 0.  1.
         25    1    1    2    0    0  0.00000000000E+00  0.00000000000E+00 -0.95770182972E+02  0.15747040340E+03  0.12500000000E+03 0.  0.
<mgrwt>
<rscale>  2 0.12500000E+03</rscale>
<asrwt>0</asrwt>
<pdfrwt beam="1">  1       21 0.47461708E-02 0.12500000E+03</pdfrwt>
<pdfrwt beam="2">  1       21 0.19480045E-01 0.12500000E+03</pdfrwt>
<totfact> 0.69829913E+06</totfact>
</mgrwt>
</event>
<event>
 3    0  0.1418082E+001  0.1250000E+03  0.7546771E-02  0.1235069E+00
         21   -1    0    0  502  501  0.00000000000E+00  0.00000000000E+00  0.62173982727E+01  0.62173982727E+01  0.00000000000E+00 0.  1.
         21   -1    0    0  501  502 -0.00000000000E+00 -0.00000000000E+00 -0.62827726786E+03  0.62827726786E+03  0.00000000000E+00 0.  1.
         25    1    1    2    0    0  0.00000000000E+00  0.00000000000E+00 -0.62205986959E+03  0.63449466614E+03  0.12500000000E+03 0.  0.
<mgrwt>
<rscale>  2 0.12500000E+03</rscale>
<asrwt>0</asrwt>
<pdfrwt beam="1">  1       21 0.95652305E-03 0.12500000E+03</pdfrwt>
<pdfrwt beam="2">  1       21 0.96658017E-01 0.12500000E+03</pdfrwt>
<totfact> 0.35577706E+06</totfact>
</mgrwt>
</event>
<event>
 3    0  0.1697129E+001  0.1250000E+03  0.7546771E-02  0.1235069E+00
         21   -1    0    0  502  501  0.00000000000E+00  0.00000000000E+00  0.40800169106E+02  0.40800169106E+02  0.00000000000E+00 0. -1.
         21   -1    0    0  501  502 -0.00000000000E+00 -0.00000000000E+00 -0.95741024745E+02  0.95741024745E+02  0.00000000000E+00 0. -1.
         25    1    1    2    0    0  0.00000000000E+00  0.00000000000E+00 -0.54940855639E+02  0.13654119385E+03  0.12500000000E+03 0.  0.
<mgrwt>
<rscale>  2 0.12500000E+03</rscale>
<asrwt>0</asrwt>
<pdfrwt beam="1">  1       21 0.62769491E-02 0.12500000E+03</pdfrwt>
<pdfrwt beam="2">  1       21 0.14729388E-01 0.12500000E+03</pdfrwt>
<totfact> 0.72493045E+06</totfact>
</mgrwt>
</event>
<event>
 3    0  0.1726540E+001  0.1250000E+03  0.7546771E-02  0.1235069E+00
         21   -1    0    0  502  501  0.00000000000E+00  0.00000000000E+00  0.49819705449E+02  0.49819705449E+02  0.00000000000E+00 0.  1.
         21   -1    0    0  501  502 -0.00000000000E+00 -0.00000000000E+00 -0.78407729729E+02  0.78407729729E+02  0.00000000000E+00 0.  1.
         25    1    1    2    0    0  0.00000000000E+00  0.00000000000E+00 -0.28588024280E+02  0.12822743518E+03  0.12500000000E+03 0.  0.
<mgrwt>
<rscale>  2 0.12500000E+03</rscale>
<asrwt>0</asrwt>
<pdfrwt beam="1">  1       21 0.76645701E-02 0.12500000E+03</pdfrwt>
<pdfrwt beam="2">  1       21 0.12062728E-01 0.12500000E+03</pdfrwt>
<totfact> 0.73602858E+06</totfact>
</mgrwt>
</event>
<event>
 3    0  0.1472524E+001  0.1250000E+03  0.7546771E-02  0.1235069E+00
         21   -1    0    0  502  501  0.00000000000E+00  0.00000000000E+00  0.49250921925E+03  0.49250921925E+03  0.00000000000E+00 0.  1.
         21   -1    0    0  501  502 -0.00000000000E+00 -0.00000000000E+00 -0.79313236125E+01  0.79313236125E+01  0.00000000000E+00 0.  1.
         25    1    1    2    0    0  0.00000000000E+00  0.00000000000E+00  0.48457789564E+03  0.50044054286E+03  0.12500000000E+03 0.  0.
<mgrwt>
<rscale>  2 0.12500000E+03</rscale>
<asrwt>0</asrwt>
<pdfrwt beam="1">  1       21 0.75770625E-01 0.12500000E+03</pdfrwt>
<pdfrwt beam="2">  1       21 0.12202040E-02 0.12500000E+03</pdfrwt>
<totfact> 0.42020197E+06</totfact>
</mgrwt>
</event>
<event>
 3    0  0.1519316E+001  0.1250000E+03  0.7546771E-02  0.1235069E+00
         21   -1    0    0  502  501  0.00000000000E+00  0.00000000000E+00  0.38788116071E+03  0.38788116071E+03  0.00000000000E+00 0. -1.
         21   -1    0    0  501  502 -0.00000000000E+00 -0.00000000000E+00 -0.10070739174E+02  0.10070739174E+02  0.00000000000E+00 0. -1.
         25    1    1    2    0    0  0.00000000000E+00  0.00000000000E+00  0.37781042154E+03  0.39795189989E+03  0.12500000000E+03 0.  0.
<mgrwt>
<rscale>  2 0.12500000E+03</rscale>
<asrwt>0</asrwt>
<pdfrwt beam="1">  1       21 0.59674013E-01 0.12500000E+03</pdfrwt>
<pdfrwt beam="2">  1       21 0.15493448E-02 0.12500000E+03</pdfrwt>
<totfact> 0.48177501E+06</totfact>
</mgrwt>
</event>
<event>
 3    0  0.1612026E+001  0.1250000E+03  0.7546771E-02  0.1235069E+00
         21   -1    0    0  502  501  0.00000000000E+00  0.00000000000E+00  0.16265711028E+02  0.16265711028E+02  0.00000000000E+00 0. -1.
         21   -1    0    0  501  502 -0.00000000000E+00 -0.00000000000E+00 -0.24015242821E+03  0.24015242821E+03  0.00000000000E+00 0. -1.
         25    1    1    2    0    0  0.00000000000E+00  0.00000000000E+00 -0.22388671718E+03  0.25641813924E+03  0.12500000000E+03 0.  0.
<mgrwt>
<rscale>  2 0.12500000E+03</rscale>
<asrwt>0</asrwt>
<pdfrwt beam="1">  1       21 0.25024172E-02 0.12500000E+03</pdfrwt>
<pdfrwt beam="2">  1       21 0.36946525E-01 0.12500000E+03</pdfrwt>
<totfact> 0.59279139E+06</totfact>
</mgrwt>
</event>
<event>
 3    0  0.1693487E+001  0.1250000E+03  0.7546771E-02  0.1235069E+00
         21   -1    0    0  502  501  0.00000000000E+00  0.00000000000E+00  0.30147247856E+02  0.30147247856E+02  0.00000000000E+00 0.  1.
         21   -1    0    0  501  502 -0.00000000000E+00 -0.00000000000E+00 -0.12957235827E+03  0.12957235827E+03  0.00000000000E+00 0.  1.
         25    1    1    2    0    0  0.00000000000E+00  0.00000000000E+00 -0.99425110410E+02  0.15971960612E+03  0.12500000000E+03 0.  0.
<mgrwt>
<rscale>  2 0.12500000E+03</rscale>
<asrwt>0</asrwt>
<pdfrwt beam="1">  1       21 0.46380381E-02 0.12500000E+03</pdfrwt>
<pdfrwt beam="2">  1       21 0.19934209E-01 0.12500000E+03</pdfrwt>
<totfact> 0.69553773E+06</totfact>
</mgrwt>
</event>
<event>
 3    0  0.1696563E+001  0.1250000E+03  0.7546771E-02  0.1235069E+00
         21   -1    0    0  502  501  0.00000000000E+00  0.00000000000E+00  0.87598222545E+02  0.87598222545E+02  0.00000000000E+00 0. -1.
         21   -1    0    0  501  502 -0.00000000000E+00 -0.00000000000E+00 -0.44592799791E+02  0.44592799791E+02  0.00000000000E+00 0. -1.
         25    1    1    2    0    0  0.00000000000E+00  0.00000000000E+00  0.43005422755E+02  0.13219102234E+03  0.12500000000E+03 0.  0.
<mgrwt>
<rscale>  2 0.12500000E+03</rscale>
<asrwt>0</asrwt>
<pdfrwt beam="1">  1       21 0.13476650E-01 0.12500000E+03</pdfrwt>
<pdfrwt beam="2">  1       21 0.68604308E-02 0.12500000E+03</pdfrwt>
<totfact> 0.73070618E+06</totfact>
</mgrwt>
</event>
<event>
 3    0  0.1368989E+001  0.1250000E+03  0.7546771E-02  0.1235069E+00
         21   -1    0    0  502  501  0.00000000000E+00  0.00000000000E+00  0.25621904047E+01  0.25621904047E+01  0.00000000000E+00 0.  1.
         21   -1    0    0  501  502 -0.00000000000E+00 -0.00000000000E+00 -0.15245744395E+04  0.15245744395E+04  0.00000000000E+00 0.  1.
         25    1    1    2    0    0  0.00000000000E+00  0.00000000000E+00 -0.15220122491E+04  0.15271366299E+04  0.12500000000E+03 0.  0.
<mgrwt>
<rscale>  2 0.12500000E+03</rscale>
<asrwt>0</asrwt>
<pdfrwt beam="1">  1       21 0.39418283E-03 0.12500000E+03</pdfrwt>
<pdfrwt beam="2">  1       21 0.23455010E+00 0.12500000E+03</pdfrwt>
<totfact> 0.13595150E+06</totfact>
</mgrwt>
</event>
<event>
 3    0  0.1705419E+001  0.1250000E+03  0.7546771E-02  0.1235069E+00
         21   -1    0    0  502  501  0.00000000000E+00  0.00000000000E+00  0.62519186827E+02  0.62519186827E+02  0.00000000000E+00 0. -1.
         21   -1    0    0  501  502 -0.00000000000E+00 -0.00000000000E+00 -0.62480819061E+02  0.62480819061E+02  0.00000000000E+00 0. -1.
         25    1    1    2    0    0  0.00000000000E+00  0.00000000000E+00  0.38367766495E-01  0.12500000589E+03  0.12500000000E+03 0.  0.
<mgrwt>
<rscale>  2 0.12500000E+03</rscale>
<asrwt>0</asrwt>
<pdfrwt beam="1">  1       21 0.96183364E-02 0.12500000E+03</pdfrwt>
<pdfrwt beam="2">  1       21 0.96124337E-02 0.12500000E+03</pdfrwt>
<totfact> 0.74043581E+06</totfact>
</mgrwt>
</event>
<event>
 3    0  0.1368989E+001  0.1250000E+03  0.7546771E-02  0.1235069E+00
         21   -1    0    0  502  501  0.00000000000E+00  0.00000000000E+00  0.70649300834E+03  0.70649300834E+03  0.00000000000E+00 0.  1.
         21   -1    0    0  501  502 -0.00000000000E+00 -0.00000000000E+00 -0.55290709941E+01  0.55290709941E+01  0.00000000000E+00 0.  1.
         25    1    1    2    0    0  0.00000000000E+00  0.00000000000E+00  0.70096393735E+03  0.71202207934E+03  0.12500000000E+03 0.  0.
<mgrwt>
<rscale>  2 0.12500000E+03</rscale>
<asrwt>0</asrwt>
<pdfrwt beam="1">  1       21 0.10869116E+00 0.12500000E+03</pdfrwt>
<pdfrwt beam="2">  1       21 0.85062687E-03 0.12500000E+03</pdfrwt>
<totfact> 0.32451791E+06</totfact>
</mgrwt>
</event>
<event>
 3    0  0.1689594E+001  0.1250000E+03  0.7546771E-02  0.1235069E+00
         21   -1    0    0  502  501  0.00000000000E+00  0.00000000000E+00  0.23621590434E+02  0.23621590434E+02  0.00000000000E+00 0.  1.
         21   -1    0    0  501  502 -0.00000000000E+00 -0.00000000000E+00 -0.16536778126E+03  0.16536778126E+03  0.00000000000E+00 0.  1.
         25    1    1    2    0    0  0.00000000000E+00  0.00000000000E+00 -0.14174619083E+03  0.18898937170E+03  0.12500000000E+03 0.  0.
<mgrwt>
<rscale>  2 0.12500000E+03</rscale>
<asrwt>0</asrwt>
<pdfrwt beam="1">  1       21 0.36340907E-02 0.12500000E+03</pdfrwt>
<pdfrwt beam="2">  1       21 0.25441198E-01 0.12500000E+03</pdfrwt>
<totfact> 0.66134961E+06</totfact>
</mgrwt>
</event>
<event>
 3    0  0.1576380E+001  0.1250000E+03  0.7546771E-02  0.1235069E+00
         21   -1    0    0  502  501  0.00000000000E+00  0.00000000000E+00  0.14555675681E+02  0.14555675681E+02  0.00000000000E+00 0. -1.
         21   -1    0    0  501  502 -0.00000000000E+00 -0.00000000000E+00 -0.26836610581E+03  0.26836610581E+03  0.00000000000E+00 0. -1.
         25    1    1    2    0    0  0.00000000000E+00  0.00000000000E+00 -0.25381043012E+03  0.28292178149E+03  0.12500000000E+03 0.  0.
<mgrwt>
<rscale>  2 0.12500000E+03</rscale>
<asrwt>0</asrwt>
<pdfrwt beam="1">  1       21 0.22393349E-02 0.12500000E+03</pdfrwt>
<pdfrwt beam="2">  1       21 0.41287090E-01 0.12500000E+03</pdfrwt>
<totfact> 0.56905993E+06</totfact>
</mgrwt>
</event>
<event>
 3    0  0.1515026E+001  0.1250000E+03  0.7546771E-02  0.1235069E+00
         21   -1    0    0  502  501  0.00000000000E+00  0.00000000000E+00  0.41048871591E+03  0.41048871591E+03  0.00000000000E+00 0. -1.
         21   -1    0    0  501  502 -0.00000000000E+00 -0.00000000000E+00 -0.95160959330E+01  0.95160959330E+01  0.00000000000E+00 0. -1.
         25    1    1    2    0    0  0.00000000000E+00  0.00000000000E+00  0.40097261997E+03  0.42000481184E+03  0.12500000000E+03 0.  0.
<mgrwt>
<rscale>  2 0.12500000E+03</rscale>
<asrwt>0</asrwt>
<pdfrwt beam="1">  1       21 0.63152096E-01 0.12500000E+03</pdfrwt>
<pdfrwt beam="2">  1       21 0.14640151E-02 0.12500000E+03</pdfrwt>
<totfact> 0.46742161E+06</totfact>
</mgrwt>
</event>
<event>
 3    0  0.1670010E+001  0.1250000E+03  0.7546771E-02  0.1235069E+00
         21   -1    0    0  502  501  0.00000000000E+00  0.00000000000E+00  0.30213426559E+02  0.30213426559E+02  0.00000000000E+00 0. -1.
         21   -1    0    0  501  502 -0.00000000000E+00 -0.00000000000E+00 -0.12928854635E+03  0.12928854635E+03  0.00000000000E+00 0. -1.
         25    1    1    2    0    0  0.00000000000E+00  0.00000000000E+00 -0.99075119787E+02  0.15950197291E+03  0.12500000000E+03 0.  0.
<mgrwt>
<rscale>  2 0.12500000E+03</rscale>
<asrwt>0</asrwt>
<pdfrwt beam="1">  1       21 0.46482194E-02 0.12500000E+03</pdfrwt>
<pdfrwt beam="2">  1       21 0.19890546E-01 0.12500000E+03</pdfrwt>
<totfact> 0.69580400E+06</totfact>
</mgrwt>
</event>
<event>
 3    0  0.1700728E+001  0.1250000E+03  0.7546771E-02  0.1235069E+00
         21   -1    0    0  502  501  0.00000000000E+00  0.00000000000E+00  0.94047812258E+02  0.94047812258E+02  0.00000000000E+00 0. -1.
         21   -1    0    0  501  502 -0.00000000000E+00 -0.00000000000E+00 -0.41534724798E+02  0.41534724798E+02  0.00000000000E+00 0. -1.
         25    1    1    2    0    0  0.00000000000E+00  0.00000000000E+00  0.52513087460E+02  0.13558253706E+03  0.12500000000E+03 0.  0.
<mgrwt>
<rscale>  2 0.12500000E+03</rscale>
<asrwt>0</asrwt>
<pdfrwt beam="1">  1       21 0.14468894E-01 0.12500000E+03</pdfrwt>
<pdfrwt beam="2">  1       21 0.63899577E-02 0.12500000E+03</pdfrwt>
<totfact> 0.72619432E+06</totfact>
</mgrwt>
</event>
<event>
 3    0  0.1712415E+001  0.1250000E+03  0.7546771E-02  0.1235069E+00
         21   -1    0    0  502  501  0.00000000000E+00  0.00000000000E+00  0.11359427118E+03  0.11359427118E+03  0.00000000000E+00 0.  1.
         21   -1    0    0  501  502 -0.00000000000E+00 -0.00000000000E+00 -0.34387737686E+02  0.34387737686E+02  0.00000000000E+00 0.  1.
         25    1    1    2    0    0  0.00000000000E+00  0.00000000000E+00  0.79206533496E+02  0.14798200887E+03  0.12500000000E+03 0.  0.
<mgrwt>
<rscale>  2 0.12500000E+03</rscale>
<asrwt>0</asrwt>
<pdfrwt beam="1">  1       21 0.17476042E-01 0.12500000E+03</pdfrwt>
<pdfrwt beam="2">  1       21 0.52904212E-02 0.12500000E+03</pdfrwt>
<totfact> 0.71013627E+06</totfact>
</mgrwt>
</event>
<event>
 3    0  0.1700608E+001  0.1250000E+03  0.7546771E-02  0.1235069E+00
         21   -1    0    0  502  501  0.00000000000E+00  0.00000000000E+00  0.47586786775E+02  0.47586786775E+02  0.00000000000E+00 0. -1.
         21   -1    0    0  501  502 -0.00000000000E+00 -0.00000000000E+00 -0.82086862020E+02  0.82086862020E+02  0.00000000000E+00 0. -1.
         25    1    1    2    0    0  0.00000000000E+00  0.00000000000E+00 -0.34500075245E+02  0.12967364880E+03  0.12500000000E+03 0.  0.
<mgrwt>
<rscale>  2 0.12500000E+03</rscale>
<asrwt>0</asrwt>
<pdfrwt beam="1">  1       21 0.73210442E-02 0.12500000E+03</pdfrwt>
<pdfrwt beam="2">  1       21 0.12628748E-01 0.12500000E+03</pdfrwt>
<totfact> 0.73408564E+06</totfact>
</mgrwt>
</event>
<event>
 3    0  0.1698706E+001  0.1250000E+03  0.7546771E-02  0.1235069E+00
         21   -1    0    0  502  501  0.00000000000E+00  0.00000000000E+00  0.41186277847E+02  0.41186277847E+02  0.00000000000E+00 0. -1.
         21   -1    0    0  501  502 -0.00000000000E+00 -0.00000000000E+00 -0.94843481961E+02  0.94843481961E+02  0.00000000000E+00 0. -1.
         25    1    1    2    0    0  0.00000000000E+00  0.00000000000E+00 -0.53657204114E+02  0.13602975981E+03  0.12500000000E+03 0.  0.
<mgrwt>
<rscale>  2 0.12500000E+03</rscale>
<asrwt>0</asrwt>
<pdfrwt beam="1">  1       21 0.63363505E-02 0.12500000E+03</pdfrwt>
<pdfrwt beam="2">  1       21 0.14591305E-01 0.12500000E+03</pdfrwt>
<totfact> 0.72560411E+06</totfact>
</mgrwt>
</event>
<event>
 3    0  0.1512766E+001  0.1250000E+03  0.7546771E-02  0.1235069E+00
         21   -1    0    0  502  501  0.00000000000E+00  0.00000000000E+00  0.86880324017E+01  0.86880324017E+01  0.00000000000E+00 0.  1.
         21   -1    0    0  501  502 -0.00000000000E+00 -0.00000000000E+00 -0.44961273386E+03  0.44961273386E+03  0.00000000000E+00 0.  1.
         25    1    1    2    0    0  0.00000000000E+00  0.00000000000E+00 -0.44092470146E+03  0.45830076627E+03  0.12500000000E+03 0.  0.
<mgrwt>
<rscale>  2 0.12500000E+03</rscale>
<asrwt>0</asrwt>
<pdfrwt beam="1">  1       21 0.13366204E-02 0.12500000E+03</pdfrwt>
<pdfrwt beam="2">  1       21 0.69171188E-01 0.12500000E+03</pdfrwt>
<totfact> 0.44399700E+06</totfact>
</mgrwt>
</event>
<event>
 3    0  0.1727507E+001  0.1250000E+03  0.7546771E-02  0.1235069E+00
         21   -1    0    0  502  501  0.00000000000E+00  0.00000000000E+00  0.50368411437E+02  0.50368411437E+02  0.00000000000E+00 0.  1.
         21   -1    0    0  501  502 -0.00000000000E+00 -0.00000000000E+00 -0.77553567574E+02  0.77553567574E+02  0.00000000000E+00 0.  1.
         25    1    1    2    0    0  0.00000000000E+00  0.00000000000E+00 -0.27185156137E+02  0.12792197901E+03  0.12500000000E+03 0.  0.
<mgrwt>
<rscale>  2 0.12500000E+03</rscale>
<asrwt>0</asrwt>
<pdfrwt beam="1">  1       21 0.77489864E-02 0.12500000E+03</pdfrwt>
<pdfrwt beam="2">  1       21 0.11931318E-01 0.12500000E+03</pdfrwt>
<totfact> 0.73644101E+06</totfact>
</mgrwt>
</event>
<event>
 3    0  0.1630338E+001  0.1250000E+03  0.7546771E-02  0.1235069E+00
         21   -1    0    0  502  501  0.00000000000E+00  0.00000000000E+00  0.19320886397E+03  0.19320886397E+03  0.00000000000E+00 0. -1.
         21   -1    0    0  501  502 -0.00000000000E+00 -0.00000000000E+00 -0.20217757714E+02  0.20217757714E+02  0.00000000000E+00 0. -1.
         25    1    1    2    0    0  0.00000000000E+00  0.00000000000E+00  0.17299110626E+03  0.21342662169E+03  0.12500000000E+03 0.  0.
<mgrwt>
<rscale>  2 0.12500000E+03</rscale>
<asrwt>0</asrwt>
<pdfrwt beam="1">  1       21 0.29724439E-01 0.12500000E+03</pdfrwt>
<pdfrwt beam="2">  1       21 0.31104244E-02 0.12500000E+03</pdfrwt>
<totfact> 0.63500810E+06</totfact>
</mgrwt>
</event>
<event>
 3    0  0.1583427E+001  0.1250000E+03  0.7546771E-02  0.1235069E+00
         21   -1    0    0  502  501  0.00000000000E+00  0.00000000000E+00  0.29923439938E+03  0.29923439938E+03  0.00000000000E+00 0.  1.
         21   -1    0    0  501  502 -0.00000000000E+00 -0.00000000000E+00 -0.13054147545E+02  0.13054147545E+02  0.00000000000E+00 0.  1.
         25    1    1    2    0    0  0.00000000000E+00  0.00000000000E+00  0.28618025184E+03  0.31228854693E+03  0.12500000000E+03 0.  0.
<mgrwt>
<rscale>  2 0.12500000E+03</rscale>
<asrwt>0</asrwt>
<pdfrwt beam="1">  1       21 0.46036056E-01 0.12500000E+03</pdfrwt>
<pdfrwt beam="2">  1       21 0.20083306E-02 0.12500000E+03</pdfrwt>
<totfact> 0.54450152E+06</totfact>
</mgrwt>
</event>
<event>
 3    0  0.1368989E+001  0.1250000E+03  0.7546771E-02  0.1235069E+00
         21   -1    0    0  502  501  0.00000000000E+00  0.00000000000E+00  0.50984950779E+01  0.50984950779E+01  0.00000000000E+00 0.  1.
         21   -1    0    0  501  502 -0.00000000000E+00 -0.00000000000E+00 -0.76615745241E+03  0.76615745241E+03  0.00000000000E+00 0.  1.
         25    1    1    2    0    0  0.00000000000E+00  0.00000000000E+00 -0.76105895733E+03  0.77125594748E+03  0.12500000000E+03 0.  0.
<mgrwt>
<rscale>  2 0.12500000E+03</rscale>
<asrwt>0</asrwt>
<pdfrwt beam="1">  1       21 0.78438343E-03 0.12500000E+03</pdfrwt>
<pdfrwt beam="2">  1       21 0.11787044E+00 0.12500000E+03</pdfrwt>
<totfact> 0.30334940E+06</totfact>
</mgrwt>
</event>
<event>
 3    0  0.1672274E+001  0.1250000E+03  0.7546771E-02  0.1235069E+00
         21   -1    0    0  502  501  0.00000000000E+00  0.00000000000E+00  0.21028535315E+02  0.21028535315E+02  0.00000000000E+00 0.  1.
         21   -1    0    0  501  502 -0.00000000000E+00 -0.00000000000E+00 -0.18575949021E+03  0.18575949021E+03  0.00000000000E+00 0.  1.
         25    1    1    2    0    0  0.00000000000E+00  0.00000000000E+00 -0.16473095490E+03  0.20678802553E+03  0.12500000000E+03 0.  0.
<mgrwt>
<rscale>  2 0.12500000E+03</rscale>
<asrwt>0</asrwt>
<pdfrwt beam="1">  1       21 0.32351592E-02 0.12500000E+03</pdfrwt>
<pdfrwt beam="2">  1       21 0.28578384E-01 0.12500000E+03</pdfrwt>
<totfact> 0.64199064E+06</totfact>
</mgrwt>
</event>
<event>
 3    0  0.1581053E+001  0.1250000E+03  0.7546771E-02  0.1235069E+00
         21   -1    0    0  502  501  0.00000000000E+00  0.00000000000E+00  0.30029285271E+03  0.30029285271E+03  0.00000000000E+00 0.  1.
         21   -1    0    0  501  502 -0.00000000000E+00 -0.00000000000E+00 -0.13008135108E+02  0.13008135108E+02  0.00000000000E+00 0.  1.
         25    1    1    2    0    0  0.00000000000E+00  0.00000000000E+00  0.28728471761E+03  0.31330098782E+03  0.12500000000E+03 0.  0.
<mgrwt>
<rscale>  2 0.12500000E+03</rscale>
<asrwt>0</asrwt>
<pdfrwt beam="1">  1       21 0.46198895E-01 0.12500000E+03</pdfrwt>
<pdfrwt beam="2">  1       21 0.20012518E-02 0.12500000E+03</pdfrwt>
<totfact> 0.54368514E+06</totfact>
</mgrwt>
</event>
<event>
 3    0  0.1546534E+001  0.1250000E+03  0.7546771E-02  0.1235069E+00
         21   -1    0    0  502  501  0.00000000000E+00  0.00000000000E+00  0.34514787200E+03  0.34514787200E+03  0.00000000000E+00 0.  1.
         21   -1    0    0  501  502 -0.00000000000E+00 -0.00000000000E+00 -0.11317612875E+02  0.11317612875E+02  0.00000000000E+00 0.  1.
         25    1    1    2    0    0  0.00000000000E+00  0.00000000000E+00  0.33383025913E+03  0.35646548488E+03  0.12500000000E+03 0.  0.
<mgrwt>
<rscale>  2 0.12500000E+03</rscale>
<asrwt>0</asrwt>
<pdfrwt beam="1">  1       21 0.53099665E-01 0.12500000E+03</pdfrwt>
<pdfrwt beam="2">  1       21 0.17411715E-02 0.12500000E+03</pdfrwt>
<totfact> 0.51064458E+06</totfact>
</mgrwt>
</event>
<event>
 3    0  0.1368989E+001  0.1250000E+03  0.7546771E-02  0.1235069E+00
         21   -1    0    0  502  501  0.00000000000E+00  0.00000000000E+00  0.28377817411E+04  0.28377817411E+04  0.00000000000E+00 0.  1.
         21   -1    0    0  501  502 -0.00000000000E+00 -0.00000000000E+00 -0.13765153054E+01  0.13765153054E+01  0.00000000000E+00 0.  1.
         25    1    1    2    0    0  0.00000000000E+00  0.00000000000E+00  0.28364052258E+04  0.28391582564E+04  0.12500000000E+03 0.  0.
<mgrwt>
<rscale>  2 0.12500000E+03</rscale>
<asrwt>0</asrwt>
<pdfrwt beam="1">  1       21 0.43657713E+00 0.12500000E+03</pdfrwt>
<pdfrwt beam="2">  1       21 0.21177386E-03 0.12500000E+03</pdfrwt>
<totfact> 0.23177796E+05</totfact>
</mgrwt>
</event>
<event>
 3    0  0.1705391E+001  0.1250000E+03  0.7546771E-02  0.1235069E+00
         21   -1    0    0  502  501  0.00000000000E+00  0.00000000000E+00  0.64286764209E+02  0.64286764209E+02  0.00000000000E+00 0. -1.
         21   -1    0    0  501  502 -0.00000000000E+00 -0.00000000000E+00 -0.60762896501E+02  0.60762896501E+02  0.00000000000E+00 0. -1.
         25    1    1    2    0    0  0.00000000000E+00  0.00000000000E+00  0.35238677087E+01  0.12504966071E+03  0.12500000000E+03 0.  0.
<mgrwt>
<rscale>  2 0.12500000E+03</rscale>
<asrwt>0</asrwt>
<pdfrwt beam="1">  1       21 0.98902714E-02 0.12500000E+03</pdfrwt>
<pdfrwt beam="2">  1       21 0.93481379E-02 0.12500000E+03</pdfrwt>
<totfact> 0.74036874E+06</totfact>
</mgrwt>
</event>
<event>
 3    0  0.1712689E+001  0.1250000E+03  0.7546771E-02  0.1235069E+00
         21   -1    0    0  502  501  0.00000000000E+00  0.00000000000E+00  0.36628257726E+02  0.36628257726E+02  0.00000000000E+00 0.  1.
         21   -1    0    0  501  502 -0.00000000000E+00 -0.00000000000E+00 -0.10664580416E+03  0.10664580416E+03  0.00000000000E+00 0.  1.
         25    1    1    2    0    0  0.00000000000E+00  0.00000000000E+00 -0.70017546431E+02  0.14327406188E+03  0.12500000000E+03 0.  0.
<mgrwt>
<rscale>  2 0.12500000E+03</rscale>
<asrwt>0</asrwt>
<pdfrwt beam="1">  1       21 0.56351167E-02 0.12500000E+03</pdfrwt>
<pdfrwt beam="2">  1       21 0.16407047E-01 0.12500000E+03</pdfrwt>
<totfact> 0.71614715E+06</totfact>
</mgrwt>
</event>
<event>
 3    0  0.1368989E+001  0.1250000E+03  0.7546771E-02  0.1235069E+00
         21   -1    0    0  502  501  0.00000000000E+00  0.00000000000E+00  0.37003108512E+01  0.37003108512E+01  0.00000000000E+00 0. -1.
         21   -1    0    0  501  502 -0.00000000000E+00 -0.00000000000E+00 -0.10556545536E+04  0.10556545536E+04  0.00000000000E+00 0. -1.
         25    1    1    2    0    0  0.00000000000E+00  0.00000000000E+00 -0.10519542428E+04  0.10593548645E+04  0.12500000000E+03 0.  0.
<mgrwt>
<rscale>  2 0.12500000E+03</rscale>
<asrwt>0</asrwt>
<pdfrwt beam="1">  1       21 0.56927881E-03 0.12500000E+03</pdfrwt>
<pdfrwt beam="2">  1       21 0.16240833E+00 0.12500000E+03</pdfrwt>
<totfact> 0.22178743E+06</totfact>
</mgrwt>
</event>
<event>
 3    0  0.1588120E+001  0.1250000E+03  0.7546771E-02  0.1235069E+00
         21   -1    0    0  502  501  0.00000000000E+00  0.00000000000E+00  0.26295430568E+03  0.26295430568E+03  0.00000000000E+00 0. -1.
         21   -1    0    0  501  502 -0.00000000000E+00 -0.00000000000E+00 -0.14855242586E+02  0.14855242586E+02  0.00000000000E+00 0. -1.
         25    1    1    2    0    0  0.00000000000E+00  0.00000000000E+00  0.24809906309E+03  0.27780954827E+03  0.12500000000E+03 0.  0.
<mgrwt>
<rscale>  2 0.12500000E+03</rscale>
<asrwt>0</asrwt>
<pdfrwt beam="1">  1       21 0.40454505E-01 0.12500000E+03</pdfrwt>
<pdfrwt beam="2">  1       21 0.22854221E-02 0.12500000E+03</pdfrwt>
<totfact> 0.57352223E+06</totfact>
</mgrwt>
</event>
<event>
 3    0  0.1369754E+001  0.1250000E+03  0.7546771E-02  0.1235069E+00
         21   -1    0    0  502  501  0.00000000000E+00  0.00000000000E+00  0.59405146348E+01  0.59405146348E+01  0.00000000000E+00 0.  1.
         21   -1    0    0  501  502 -0.00000000000E+00 -0.00000000000E+00 -0.65756087479E+03  0.65756087479E+03  0.00000000000E+00 0.  1.
         25    1    1    2    0    0  0.00000000000E+00  0.00000000000E+00 -0.65162036016E+03  0.66350138943E+03  0.12500000000E+03 0.  0.
<mgrwt>
<rscale>  2 0.12500000E+03</rscale>
<asrwt>0</asrwt>
<pdfrwt beam="1">  1       21 0.91392509E-03 0.12500000E+03</pdfrwt>
<pdfrwt beam="2">  1       21 0.10116324E+00 0.12500000E+03</pdfrwt>
<totfact> 0.34365240E+06</totfact>
</mgrwt>
</event>
<event>
 3    0  0.1658095E+001  0.1250000E+03  0.7546771E-02  0.1235069E+00
         21   -1    0    0  502  501  0.00000000000E+00  0.00000000000E+00  0.19148008541E+03  0.19148008541E+03  0.00000000000E+00 0.  1.
         21   -1    0    0  501  502 -0.00000000000E+00 -0.00000000000E+00 -0.20400293804E+02  0.20400293804E+02  0.00000000000E+00 0.  1.
         25    1    1    2    0    0  0.00000000000E+00  0.00000000000E+00  0.17107979161E+03  0.21188037921E+03  0.12500000000E+03 0.  0.
<mgrwt>
<rscale>  2 0.12500000E+03</rscale>
<asrwt>0</asrwt>
<pdfrwt beam="1">  1       21 0.29458473E-01 0.12500000E+03</pdfrwt>
<pdfrwt beam="2">  1       21 0.31385069E-02 0.12500000E+03</pdfrwt>
<totfact> 0.63662240E+06</totfact>
</mgrwt>
</event>
<event>
 3    0  0.1414007E+001  0.1250000E+03  0.7546771E-02  0.1235069E+00
         21   -1    0    0  502  501  0.00000000000E+00  0.00000000000E+00  0.55007622938E+03  0.55007622938E+03  0.00000000000E+00 0. -1.
         21   -1    0    0  501  502 -0.00000000000E+00 -0.00000000000E+00 -0.71012884967E+01  0.71012884967E+01  0.00000000000E+00 0. -1.
         25    1    1    2    0    0  0.00000000000E+00  0.00000000000E+00  0.54297494089E+03  0.55717751788E+03  0.12500000000E+03 0.  0.
<mgrwt>
<rscale>  2 0.12500000E+03</rscale>
<asrwt>0</asrwt>
<pdfrwt beam="1">  1       21 0.84627079E-01 0.12500000E+03</pdfrwt>
<pdfrwt beam="2">  1       21 0.10925064E-02 0.12500000E+03</pdfrwt>
<totfact> 0.39103731E+06</totfact>
</mgrwt>
</event>
<event>
 3    0  0.1702112E+001  0.1250000E+03  0.7546771E-02  0.1235069E+00
         21   -1    0    0  502  501  0.00000000000E+00  0.00000000000E+00  0.12273637189E+03  0.12273637189E+03  0.00000000000E+00 0.  1.
         21   -1    0    0  501  502 -0.00000000000E+00 -0.00000000000E+00 -0.31826344056E+02  0.31826344056E+02  0.00000000000E+00 0.  1.
         25    1    1    2    0    0  0.00000000000E+00  0.00000000000E+00  0.90910027834E+02  0.15456271595E+03  0.12500000000E+03 0.  0.
<mgrwt>
<rscale>  2 0.12500000E+03</rscale>
<asrwt>0</asrwt>
<pdfrwt beam="1">  1       21 0.18882518E-01 0.12500000E+03</pdfrwt>
<pdfrwt beam="2">  1       21 0.48963607E-02 0.12500000E+03</pdfrwt>
<totfact> 0.70190048E+06</totfact>
</mgrwt>
</event>
<event>
 3    0  0.1439277E+001  0.1250000E+03  0.7546771E-02  0.1235069E+00
         21   -1    0    0  502  501  0.00000000000E+00  0.00000000000E+00  0.57754984853E+03  0.57754984853E+03  0.00000000000E+00 0.  1.
         21   -1    0    0  501  502 -0.00000000000E+00 -0.00000000000E+00 -0.67634854549E+01  0.67634854549E+01  0.00000000000E+00 0.  1.
         25    1    1    2    0    0  0.00000000000E+00  0.00000000000E+00  0.57078636307E+03  0.58431333398E+03  0.12500000000E+03 0.  0.
<mgrwt>
<rscale>  2 0.12500000E+03</rscale>
<asrwt>0</asrwt>
<pdfrwt beam="1">  1       21 0.88853784E-01 0.12500000E+03</pdfrwt>
<pdfrwt beam="2">  1       21 0.10405367E-02 0.12500000E+03</pdfrwt>
<totfact> 0.37811798E+06</totfact>
</mgrwt>
</event>
<event>
 3    0  0.1703842E+001  0.1250000E+03  0.7546771E-02  0.1235069E+00
         21   -1    0    0  502  501  0.00000000000E+00  0.00000000000E+00  0.69419351002E+02  0.69419351002E+02  0.00000000000E+00 0. -1.
         21   -1    0    0  501  502 -0.00000000000E+00 -0.00000000000E+00 -0.56270333035E+02  0.56270333035E+02  0.00000000000E+00 0. -1.
         25    1    1    2    0    0  0.00000000000E+00  0.00000000000E+00  0.13149017967E+02  0.12568968404E+03  0.12500000000E+03 0.  0.
<mgrwt>
<rscale>  2 0.12500000E+03</rscale>
<asrwt>0</asrwt>
<pdfrwt beam="1">  1       21 0.10679900E-01 0.12500000E+03</pdfrwt>
<pdfrwt beam="2">  1       21 0.86569743E-02 0.12500000E+03</pdfrwt>
<totfact> 0.73948970E+06</totfact>
</mgrwt>
</event>
<event>
 3    0  0.1705342E+001  0.1250000E+03  0.7546771E-02  0.1235069E+00
         21   -1    0    0  502  501  0.00000000000E+00  0.00000000000E+00  0.61269276755E+02  0.61269276755E+02  0.00000000000E+00 0. -1.
         21   -1    0    0  501  502 -0.00000000000E+00 -0.00000000000E+00 -0.63755444929E+02  0.63755444929E+02  0.00000000000E+00 0. -1.
         25    1    1    2    0    0  0.00000000000E+00  0.00000000000E+00 -0.24861681741E+01  0.12502472168E+03  0.12500000000E+03 0.  0.
<mgrwt>
<rscale>  2 0.12500000E+03</rscale>
<asrwt>0</asrwt>
<pdfrwt beam="1">  1       21 0.94260425E-02 0.12500000E+03</pdfrwt>
<pdfrwt beam="2">  1       21 0.98085300E-02 0.12500000E+03</pdfrwt>
<totfact> 0.74040242E+06</totfact>
</mgrwt>
</event>
<event>
 3    0  0.1590228E+001  0.1250000E+03  0.7546771E-02  0.1235069E+00
         21   -1    0    0  502  501  0.00000000000E+00  0.00000000000E+00  0.12432701116E+02  0.12432701116E+02  0.00000000000E+00 0.  1.
         21   -1    0    0  501  502 -0.00000000000E+00 -0.00000000000E+00 -0.31419157940E+03  0.31419157940E+03  0.00000000000E+00 0.  1.
         25    1    1    2    0    0  0.00000000000E+00  0.00000000000E+00 -0.30175887829E+03  0.32662428052E+03  0.12500000000E+03 0.  0.
<mgrwt>
<rscale>  2 0.12500000E+03</rscale>
<asrwt>0</asrwt>
<pdfrwt beam="1">  1       21 0.19127231E-02 0.12500000E+03</pdfrwt>
<pdfrwt beam="2">  1       21 0.48337169E-01 0.12500000E+03</pdfrwt>
<totfact> 0.53312541E+06</totfact>
</mgrwt>
</event>
<event>
 3    0  0.1698740E+001  0.1250000E+03  0.7546771E-02  0.1235069E+00
         21   -1    0    0  502  501  0.00000000000E+00  0.00000000000E+00  0.45568242452E+02  0.45568242452E+02  0.00000000000E+00 0. -1.
         21   -1    0    0  501  502 -0.00000000000E+00 -0.00000000000E+00 -0.85723077956E+02  0.85723077956E+02  0.00000000000E+00 0. -1.
         25    1    1    2    0    0  0.00000000000E+00  0.00000000000E+00 -0.40154835504E+02  0.13129132041E+03  0.12500000000E+03 0.  0.
<mgrwt>
<rscale>  2 0.12500000E+03</rscale>
<asrwt>0</asrwt>
<pdfrwt beam="1">  1       21 0.70104988E-02 0.12500000E+03</pdfrwt>
<pdfrwt beam="2">  1       21 0.13188166E-01 0.12500000E+03</pdfrwt>
<totfact> 0.73191440E+06</totfact>
</mgrwt>
</event>
<event>
 3    0  0.1702915E+001  0.1250000E+03  0.7546771E-02  0.1235069E+00
         21   -1    0    0  502  501  0.00000000000E+00  0.00000000000E+00  0.70833400262E+02  0.70833400262E+02  0.00000000000E+00 0. -1.
         21   -1    0    0  501  502 -0.00000000000E+00 -0.00000000000E+00 -0.55147006717E+02  0.55147006717E+02  0.00000000000E+00 0. -1.
         25    1    1    2    0    0  0.00000000000E+00  0.00000000000E+00  0.15686393545E+02  0.12598040698E+03  0.12500000000E+03 0.  0.
<mgrwt>
<rscale>  2 0.12500000E+03</rscale>
<asrwt>0</asrwt>
<pdfrwt beam="1">  1       21 0.10897446E-01 0.12500000E+03</pdfrwt>
<pdfrwt beam="2">  1       21 0.84841549E-02 0.12500000E+03</pdfrwt>
<totfact> 0.73908740E+06</totfact>
</mgrwt>
</event>
<event>
 3    0  0.1368989E+001  0.1250000E+03  0.7546771E-02  0.1235069E+00
         21   -1    0    0  502  501  0.00000000000E+00  0.00000000000E+00  0.34316964747E+01  0.34316964747E+01  0.00000000000E+00 0. -1.
         21   -1    0    0  501  502 -0.00000000000E+00 -0.00000000000E+00 -0.11382854016E+04  0.11382854016E+04  0.00000000000E+00 0. -1.
         25    1    1    2    0    0  0.00000000000E+00  0.00000000000E+00 -0.11348537052E+04  0.11417170981E+04  0.12500000000E+03 0.  0.
<mgrwt>
<rscale>  2 0.12500000E+03</rscale>
<asrwt>0</asrwt>
<pdfrwt beam="1">  1       21 0.52795241E-03 0.12500000E+03</pdfrwt>
<pdfrwt beam="2">  1       21 0.17512113E+00 0.12500000E+03</pdfrwt>
<totfact> 0.20344864E+06</totfact>
</mgrwt>
</event>
<event>
 3    0  0.1452360E+001  0.1250000E+03  0.7546771E-02  0.1235069E+00
         21   -1    0    0  502  501  0.00000000000E+00  0.00000000000E+00  0.50340850362E+03  0.50340850362E+03  0.00000000000E+00 0.  1.
         21   -1    0    0  501  502 -0.00000000000E+00 -0.00000000000E+00 -0.77596027320E+01  0.77596027320E+01  0.00000000000E+00 0.  1.
         25    1    1    2    0    0  0.00000000000E+00  0.00000000000E+00  0.49564890089E+03  0.51116810635E+03  0.12500000000E+03 0.  0.
<mgrwt>
<rscale>  2 0.12500000E+03</rscale>
<asrwt>0</asrwt>
<pdfrwt beam="1">  1       21 0.77447437E-01 0.12500000E+03</pdfrwt>
<pdfrwt beam="2">  1       21 0.11937854E-02 0.12500000E+03</pdfrwt>
<totfact> 0.41444813E+06</totfact>
</mgrwt>
</event>
<event>
 3    0  0.1697759E+001  0.1250000E+03  0.7546771E-02  0.1235069E+00
         21   -1    0    0  502  501  0.00000000000E+00  0.00000000000E+00  0.12788224137E+03  0.12788224137E+03  0.00000000000E+00 0.  1.
         21   -1    0    0  501  502 -0.00000000000E+00 -0.00000000000E+00 -0.30545679823E+02  0.30545679823E+02  0.00000000000E+00 0.  1.
         25    1    1    2    0    0  0.00000000000E+00  0.00000000000E+00  0.97336561551E+02  0.15842792120E+03  0.12500000000E+03 0.  0.
<mgrwt>
<rscale>  2 0.12500000E+03</rscale>
<asrwt>0</asrwt>
<pdfrwt beam="1">  1       21 0.19674191E-01 0.12500000E+03</pdfrwt>
<pdfrwt beam="2">  1       21 0.46993354E-02 0.12500000E+03</pdfrwt>
<totfact> 0.69712099E+06</totfact>
</mgrwt>
</event>
<event>
 3    0  0.1578738E+001  0.1250000E+03  0.7546771E-02  0.1235069E+00
         21   -1    0    0  502  501  0.00000000000E+00  0.00000000000E+00  0.14126965615E+02  0.14126965615E+02  0.00000000000E+00 0. -1.
         21   -1    0    0  501  502 -0.00000000000E+00 -0.00000000000E+00 -0.27651019380E+03  0.27651019380E+03  0.00000000000E+00 0. -1.
         25    1    1    2    0    0  0.00000000000E+00  0.00000000000E+00 -0.26238322819E+03  0.29063715942E+03  0.12500000000E+03 0.  0.
<mgrwt>
<rscale>  2 0.12500000E+03</rscale>
<asrwt>0</asrwt>
<pdfrwt beam="1">  1       21 0.21733797E-02 0.12500000E+03</pdfrwt>
<pdfrwt beam="2">  1       21 0.42540023E-01 0.12500000E+03</pdfrwt>
<totfact> 0.56243353E+06</totfact>
</mgrwt>
</event>
<event>
 3    0  0.1628716E+001  0.1250000E+03  0.7546771E-02  0.1235069E+00
         21   -1    0    0  502  501  0.00000000000E+00  0.00000000000E+00  0.15277012841E+02  0.15277012841E+02  0.00000000000E+00 0.  1.
         21   -1    0    0  501  502 -0.00000000000E+00 -0.00000000000E+00 -0.25569462046E+03  0.25569462046E+03  0.00000000000E+00 0.  1.
         25    1    1    2    0    0  0.00000000000E+00  0.00000000000E+00 -0.24041760762E+03  0.27097163330E+03  0.12500000000E+03 0.  0.
<mgrwt>
<rscale>  2 0.12500000E+03</rscale>
<asrwt>0</asrwt>
<pdfrwt beam="1">  1       21 0.23503098E-02 0.12500000E+03</pdfrwt>
<pdfrwt beam="2">  1       21 0.39337632E-01 0.12500000E+03</pdfrwt>
<totfact> 0.57958021E+06</totfact>
</mgrwt>
</event>
<event>
 3    0  0.1591202E+001  0.1250000E+03  0.7546771E-02  0.1235069E+00
         21   -1    0    0  502  501  0.00000000000E+00  0.00000000000E+00  0.24873315286E+03  0.24873315286E+03  0.00000000000E+00 0. -1.
         21   -1    0    0  501  502 -0.00000000000E+00 -0.00000000000E+00 -0.15704581215E+02  0.15704581215E+02  0.00000000000E+00 0. -1.
         25    1    1    2    0    0  0.00000000000E+00  0.00000000000E+00  0.23302857165E+03  0.26443773408E+03  0.12500000000E+03 0.  0.
<mgrwt>
<rscale>  2 0.12500000E+03</rscale>
<asrwt>0</asrwt>
<pdfrwt beam="1">  1       21 0.38266636E-01 0.12500000E+03</pdfrwt>
<pdfrwt beam="2">  1       21 0.24160896E-02 0.12500000E+03</pdfrwt>
<totfact> 0.58544903E+06</totfact>
</mgrwt>
</event>
<event>
 3    0  0.1537239E+001  0.1250000E+03  0.7546771E-02  0.1235069E+00
         21   -1    0    0  502  501  0.00000000000E+00  0.00000000000E+00  0.10760590564E+02  0.10760590564E+02  0.00000000000E+00 0. -1.
         21   -1    0    0  501  502 -0.00000000000E+00 -0.00000000000E+00 -0.36301446253E+03  0.36301446253E+03  0.00000000000E+00 0. -1.
         25    1    1    2    0    0  0.00000000000E+00  0.00000000000E+00 -0.35225387196E+03  0.37377505309E+03  0.12500000000E+03 0.  0.
<mgrwt>
<rscale>  2 0.12500000E+03</rscale>
<asrwt>0</asrwt>
<pdfrwt beam="1">  1       21 0.16554755E-02 0.12500000E+03</pdfrwt>
<pdfrwt beam="2">  1       21 0.55848377E-01 0.12500000E+03</pdfrwt>
<totfact> 0.49829094E+06</totfact>
</mgrwt>
</event>
<event>
 3    0  0.1508411E+001  0.1250000E+03  0.7546771E-02  0.1235069E+00
         21   -1    0    0  502  501  0.00000000000E+00  0.00000000000E+00  0.86453527365E+01  0.86453527365E+01  0.00000000000E+00 0.  1.
         21   -1    0    0  501  502 -0.00000000000E+00 -0.00000000000E+00 -0.45183234497E+03  0.45183234497E+03  0.00000000000E+00 0.  1.
         25    1    1    2    0    0  0.00000000000E+00  0.00000000000E+00 -0.44318699223E+03  0.46047769771E+03  0.12500000000E+03 0.  0.
<mgrwt>
<rscale>  2 0.12500000E+03</rscale>
<asrwt>0</asrwt>
<pdfrwt beam="1">  1       21 0.13300542E-02 0.12500000E+03</pdfrwt>
<pdfrwt beam="2">  1       21 0.69512672E-01 0.12500000E+03</pdfrwt>
<totfact> 0.44271872E+06</totfact>
</mgrwt>
</event>
<event>
 3    0  0.1368989E+001  0.1250000E+03  0.7546771E-02  0.1235069E+00
         21   -1    0    0  502  501  0.00000000000E+00  0.00000000000E+00  0.50421798808E+01  0.50421798808E+01  0.00000000000E+00 0.  1.
         21   -1    0    0  501  502 -0.00000000000E+00 -0.00000000000E+00 -0.77471452672E+03  0.77471452672E+03  0.00000000000E+00 0.  1.
         25    1    1    2    0    0  0.00000000000E+00  0.00000000000E+00 -0.76967234683E+03  0.77975670660E+03  0.12500000000E+03 0.  0.
<mgrwt>
<rscale>  2 0.12500000E+03</rscale>
<asrwt>0</asrwt>
<pdfrwt beam="1">  1       21 0.77572047E-03 0.12500000E+03</pdfrwt>
<pdfrwt beam="2">  1       21 0.11918678E+00 0.12500000E+03</pdfrwt>
<totfact> 0.30044589E+06</totfact>
</mgrwt>
</event>
<event>
 3    0  0.1711971E+001  0.1250000E+03  0.7546771E-02  0.1235069E+00
         21   -1    0    0  502  501  0.00000000000E+00  0.00000000000E+00  0.33064913630E+02  0.33064913630E+02  0.00000000000E+00 0.  1.
         21   -1    0    0  501  502 -0.00000000000E+00 -0.00000000000E+00 -0.11813882364E+03  0.11813882364E+03  0.00000000000E+00 0.  1.
         25    1    1    2    0    0  0.00000000000E+00  0.00000000000E+00 -0.85073910008E+02  0.15120373727E+03  0.12500000000E+03 0.  0.
<mgrwt>
<rscale>  2 0.12500000E+03</rscale>
<asrwt>0</asrwt>
<pdfrwt beam="1">  1       21 0.50869099E-02 0.12500000E+03</pdfrwt>
<pdfrwt beam="2">  1       21 0.18175203E-01 0.12500000E+03</pdfrwt>
<totfact> 0.70608316E+06</totfact>
</mgrwt>
</event>
<event>
 3    0  0.1710202E+001  0.1250000E+03  0.7546771E-02  0.1235069E+00
         21   -1    0    0  502  501  0.00000000000E+00  0.00000000000E+00  0.11907704389E+03  0.11907704389E+03  0.00000000000E+00 0.  1.
         21   -1    0    0  501  502 -0.00000000000E+00 -0.00000000000E+00 -0.32804391781E+02  0.32804391781E+02  0.00000000000E+00 0.  1.
         25    1    1    2    0    0  0.00000000000E+00  0.00000000000E+00  0.86272652113E+02  0.15188143567E+03  0.12500000000E+03 0.  0.
<mgrwt>
<rscale>  2 0.12500000E+03</rscale>
<asrwt>0</asrwt>
<pdfrwt beam="1">  1       21 0.18319545E-01 0.12500000E+03</pdfrwt>
<pdfrwt beam="2">  1       21 0.50468296E-02 0.12500000E+03</pdfrwt>
<totfact> 0.70523651E+06</totfact>
</mgrwt>
</event>
<event>
 3    0  0.1724187E+001  0.1250000E+03  0.7546771E-02  0.1235069E+00
         21   -1    0    0  502  501  0.00000000000E+00  0.00000000000E+00  0.41419129602E+02  0.41419129602E+02  0.00000000000E+00 0.  1.
         21   -1    0    0  501  502 -0.00000000000E+00 -0.00000000000E+00 -0.94310286999E+02  0.94310286999E+02  0.00000000000E+00 0.  1.
         25    1    1    2    0    0  0.00000000000E+00  0.00000000000E+00 -0.52891157397E+02  0.13572941660E+03  0.12500000000E+03 0.  0.
<mgrwt>
<rscale>  2 0.12500000E+03</rscale>
<asrwt>0</asrwt>
<pdfrwt beam="1">  1       21 0.63721738E-02 0.12500000E+03</pdfrwt>
<pdfrwt beam="2">  1       21 0.14509275E-01 0.12500000E+03</pdfrwt>
<totfact> 0.72600036E+06</totfact>
</mgrwt>
</event>
<event>
 3    0  0.1720120E+001  0.1250000E+03  0.7546771E-02  0.1235069E+00
         21   -1    0    0  502  501  0.00000000000E+00  0.00000000000E+00  0.92282024952E+02  0.92282024952E+02  0.00000000000E+00 0.  1.
         21   -1    0    0  501  502 -0.00000000000E+00 -0.00000000000E+00 -0.42329478596E+02  0.42329478596E+02  0.00000000000E+00 0.  1.
         25    1    1    2    0    0  0.00000000000E+00  0.00000000000E+00  0.49952546355E+02  0.13461150355E+03  0.12500000000E+03 0.  0.
<mgrwt>
<rscale>  2 0.12500000E+03</rscale>
<asrwt>0</asrwt>
<pdfrwt beam="1">  1       21 0.14197235E-01 0.12500000E+03</pdfrwt>
<pdfrwt beam="2">  1       21 0.65122275E-02 0.12500000E+03</pdfrwt>
<totfact> 0.72747952E+06</totfact>
</mgrwt>
</event>
<event>
 3    0  0.1613571E+001  0.1250000E+03  0.7546771E-02  0.1235069E+00
         21   -1    0    0  502  501  0.00000000000E+00  0.00000000000E+00  0.16310416431E+02  0.16310416431E+02  0.00000000000E+00 0. -1.
         21   -1    0    0  501  502 -0.00000000000E+00 -0.00000000000E+00 -0.23949419174E+03  0.23949419174E+03  0.00000000000E+00 0. -1.
         25    1    1    2    0    0  0.00000000000E+00  0.00000000000E+00 -0.22318377531E+03  0.25580460817E+03  0.12500000000E+03 0.  0.
<mgrwt>
<rscale>  2 0.12500000E+03</rscale>
<asrwt>0</asrwt>
<pdfrwt beam="1">  1       21 0.25092947E-02 0.12500000E+03</pdfrwt>
<pdfrwt beam="2">  1       21 0.36845262E-01 0.12500000E+03</pdfrwt>
<totfact> 0.59335957E+06</totfact>
</mgrwt>
</event>
<event>
 3    0  0.1634473E+001  0.1250000E+03  0.7546771E-02  0.1235069E+00
         21   -1    0    0  502  501  0.00000000000E+00  0.00000000000E+00  0.18397571918E+03  0.18397571918E+03  0.00000000000E+00 0. -1.
         21   -1    0    0  501  502 -0.00000000000E+00 -0.00000000000E+00 -0.21232421416E+02  0.21232421416E+02  0.00000000000E+00 0. -1.
         25    1    1    2    0    0  0.00000000000E+00  0.00000000000E+00  0.16274329777E+03  0.20520814060E+03  0.12500000000E+03 0.  0.
<mgrwt>
<rscale>  2 0.12500000E+03</rscale>
<asrwt>0</asrwt>
<pdfrwt beam="1">  1       21 0.28303956E-01 0.12500000E+03</pdfrwt>
<pdfrwt beam="2">  1       21 0.32665265E-02 0.12500000E+03</pdfrwt>
<totfact> 0.64367248E+06</totfact>
</mgrwt>
</event>
<event>
 3    0  0.1547698E+001  0.1250000E+03  0.7546771E-02  0.1235069E+00
         21   -1    0    0  502  501  0.00000000000E+00  0.00000000000E+00  0.33423316425E+03  0.33423316425E+03  0.00000000000E+00 0. -1.
         21   -1    0    0  501  502 -0.00000000000E+00 -0.00000000000E+00 -0.11687200487E+02  0.11687200487E+02  0.00000000000E+00 0. -1.
         25    1    1    2    0    0  0.00000000000E+00  0.00000000000E+00  0.32254596376E+03  0.34592036473E+03  0.12500000000E+03 0.  0.
<mgrwt>
<rscale>  2 0.12500000E+03</rscale>
<asrwt>0</asrwt>
<pdfrwt beam="1">  1       21 0.51420479E-01 0.12500000E+03</pdfrwt>
<pdfrwt beam="2">  1       21 0.17980311E-02 0.12500000E+03</pdfrwt>
<totfact> 0.51841145E+06</totfact>
</mgrwt>
</event>
<event>
 3    0  0.1678052E+001  0.1250000E+03  0.7546771E-02  0.1235069E+00
         21   -1    0    0  502  501  0.00000000000E+00  0.00000000000E+00  0.12265503429E+03  0.12265503429E+03  0.00000000000E+00 0. -1.
         21   -1    0    0  501  502 -0.00000000000E+00 -0.00000000000E+00 -0.31847449415E+02  0.31847449415E+02  0.00000000000E+00 0. -1.
         25    1    1    2    0    0  0.00000000000E+00  0.00000000000E+00  0.90807584876E+02  0.15450248370E+03  0.12500000000E+03 0.  0.
<mgrwt>
<rscale>  2 0.12500000E+03</rscale>
<asrwt>0</asrwt>
<pdfrwt beam="1">  1       21 0.18870005E-01 0.12500000E+03</pdfrwt>
<pdfrwt beam="2">  1       21 0.48996077E-02 0.12500000E+03</pdfrwt>
<totfact> 0.70197547E+06</totfact>
</mgrwt>
</event>
<event>
 3    0  0.1718953E+001  0.1250000E+03  0.7546771E-02  0.1235069E+00
         21   -1    0    0  502  501  0.00000000000E+00  0.00000000000E+00  0.10034477992E+03  0.10034477992E+03  0.00000000000E+00 0.  1.
         21   -1    0    0  501  502 -0.00000000000E+00 -0.00000000000E+00 -0.38928283097E+02  0.38928283097E+02  0.00000000000E+00 0.  1.
         25    1    1    2    0    0  0.00000000000E+00  0.00000000000E+00  0.61416496822E+02  0.13927306302E+03  0.12500000000E+03 0.  0.
<mgrwt>
<rscale>  2 0.12500000E+03</rscale>
<asrwt>0</asrwt>
<pdfrwt beam="1">  1       21 0.15437658E-01 0.12500000E+03</pdfrwt>
<pdfrwt beam="2">  1       21 0.59889667E-02 0.12500000E+03</pdfrwt>
<totfact> 0.72134351E+06</totfact>
</mgrwt>
</event>
<event>
 3    0  0.1730129E+001  0.1250000E+03  0.7546771E-02  0.1235069E+00
         21   -1    0    0  502  501  0.00000000000E+00  0.00000000000E+00  0.59974456278E+02  0.59974456278E+02  0.00000000000E+00 0.  1.
         21   -1    0    0  501  502 -0.00000000000E+00 -0.00000000000E+00 -0.65131895184E+02  0.65131895184E+02  0.00000000000E+00 0.  1.
         25    1    1    2    0    0  0.00000000000E+00  0.00000000000E+00 -0.51574389054E+01  0.12510635146E+03  0.12500000000E+03 0.  0.
<mgrwt>
<rscale>  2 0.12500000E+03</rscale>
<asrwt>0</asrwt>
<pdfrwt beam="1">  1       21 0.92268395E-02 0.12500000E+03</pdfrwt>
<pdfrwt beam="2">  1       21 0.10020292E-01 0.12500000E+03</pdfrwt>
<totfact> 0.74029218E+06</totfact>
</mgrwt>
</event>
<event>
 3    0  0.1728821E+001  0.1250000E+03  0.7546771E-02  0.1235069E+00
         21   -1    0    0  502  501  0.00000000000E+00  0.00000000000E+00  0.68804081827E+02  0.68804081827E+02  0.00000000000E+00 0.  1.
         21   -1    0    0  501  502 -0.00000000000E+00 -0.00000000000E+00 -0.56773521226E+02  0.56773521226E+02  0.00000000000E+00 0.  1.
         25    1    1    2    0    0  0.00000000000E+00  0.00000000000E+00  0.12030560601E+02  0.12557760305E+03  0.12500000000E+03 0.  0.
<mgrwt>
<rscale>  2 0.12500000E+03</rscale>
<asrwt>0</asrwt>
<pdfrwt beam="1">  1       21 0.10585243E-01 0.12500000E+03</pdfrwt>
<pdfrwt beam="2">  1       21 0.87343879E-02 0.12500000E+03</pdfrwt>
<totfact> 0.73964563E+06</totfact>
</mgrwt>
</event>
<event>
 3    0  0.1402547E+001  0.1250000E+03  0.7546771E-02  0.1235069E+00
         21   -1    0    0  502  501  0.00000000000E+00  0.00000000000E+00  0.58704482709E+03  0.58704482709E+03  0.00000000000E+00 0. -1.
         21   -1    0    0  501  502 -0.00000000000E+00 -0.00000000000E+00 -0.66540915102E+01  0.66540915102E+01  0.00000000000E+00 0. -1.
         25    1    1    2    0    0  0.00000000000E+00  0.00000000000E+00  0.58039073558E+03  0.59369891860E+03  0.12500000000E+03 0.  0.
<mgrwt>
<rscale>  2 0.12500000E+03</rscale>
<asrwt>0</asrwt>
<pdfrwt beam="1">  1       21 0.90314548E-01 0.12500000E+03</pdfrwt>
<pdfrwt beam="2">  1       21 0.10237068E-02 0.12500000E+03</pdfrwt>
<totfact> 0.37379160E+06</totfact>
</mgrwt>
</event>
<event>
 3    0  0.1488136E+001  0.1250000E+03  0.7546771E-02  0.1235069E+00
         21   -1    0    0  502  501  0.00000000000E+00  0.00000000000E+00  0.96624556108E+01  0.96624556108E+01  0.00000000000E+00 0. -1.
         21   -1    0    0  501  502 -0.00000000000E+00 -0.00000000000E+00 -0.40427093871E+03  0.40427093871E+03  0.00000000000E+00 0. -1.
         25    1    1    2    0    0  0.00000000000E+00  0.00000000000E+00 -0.39460848310E+03  0.41393339432E+03  0.12500000000E+03 0.  0.
<mgrwt>
<rscale>  2 0.12500000E+03</rscale>
<asrwt>0</asrwt>
<pdfrwt beam="1">  1       21 0.14865314E-02 0.12500000E+03</pdfrwt>
<pdfrwt beam="2">  1       21 0.62195540E-01 0.12500000E+03</pdfrwt>
<totfact> 0.47130686E+06</totfact>
</mgrwt>
</event>
<event>
 3    0  0.1381102E+001  0.1250000E+03  0.7546771E-02  0.1235069E+00
         21   -1    0    0  502  501  0.00000000000E+00  0.00000000000E+00  0.59982425441E+03  0.59982425441E+03  0.00000000000E+00 0. -1.
         21   -1    0    0  501  502 -0.00000000000E+00 -0.00000000000E+00 -0.65123241871E+01  0.65123241871E+01  0.00000000000E+00 0. -1.
         25    1    1    2    0    0  0.00000000000E+00  0.00000000000E+00  0.59331193023E+03  0.60633657860E+03  0.12500000000E+03 0.  0.
<mgrwt>
<rscale>  2 0.12500000E+03</rscale>
<asrwt>0</asrwt>
<pdfrwt beam="1">  1       21 0.92280611E-01 0.12500000E+03</pdfrwt>
<pdfrwt beam="2">  1       21 0.10018965E-02 0.12500000E+03</pdfrwt>
<totfact> 0.36807639E+06</totfact>
</mgrwt>
</event>
<event>
 3    0  0.1700605E+001  0.1250000E+03  0.7546771E-02  0.1235069E+00
         21   -1    0    0  502  501  0.00000000000E+00  0.00000000000E+00  0.44000512640E+02  0.44000512640E+02  0.00000000000E+00 0. -1.
         21   -1    0    0  501  502 -0.00000000000E+00 -0.00000000000E+00 -0.88777374755E+02  0.88777374755E+02  0.00000000000E+00 0. -1.
         25    1    1    2    0    0  0.00000000000E+00  0.00000000000E+00 -0.44776862115E+02  0.13277788739E+03  0.12500000000E+03 0.  0.
<mgrwt>
<rscale>  2 0.12500000E+03</rscale>
<asrwt>0</asrwt>
<pdfrwt beam="1">  1       21 0.67693096E-02 0.12500000E+03</pdfrwt>
<pdfrwt beam="2">  1       21 0.13658058E-01 0.12500000E+03</pdfrwt>
<totfact> 0.72992072E+06</totfact>
</mgrwt>
</event>
<event>
 3    0  0.1666140E+001  0.1250000E+03  0.7546771E-02  0.1235069E+00
         21   -1    0    0  502  501  0.00000000000E+00  0.00000000000E+00  0.14878893516E+03  0.14878893516E+03  0.00000000000E+00 0. -1.
         21   -1    0    0  501  502 -0.00000000000E+00 -0.00000000000E+00 -0.26253632341E+02  0.26253632341E+02  0.00000000000E+00 0. -1.
         25    1    1    2    0    0  0.00000000000E+00  0.00000000000E+00  0.12253530282E+03  0.17504256750E+03  0.12500000000E+03 0.  0.
<mgrwt>
<rscale>  2 0.12500000E+03</rscale>
<asrwt>0</asrwt>
<pdfrwt beam="1">  1       21 0.22890605E-01 0.12500000E+03</pdfrwt>
<pdfrwt beam="2">  1       21 0.40390204E-02 0.12500000E+03</pdfrwt>
<totfact> 0.67724839E+06</totfact>
</mgrwt>
</event>
<event>
 3    0  0.1566840E+001  0.1250000E+03  0.7546771E-02  0.1235069E+00
         21   -1    0    0  502  501  0.00000000000E+00  0.00000000000E+00  0.12027723520E+02  0.12027723520E+02  0.00000000000E+00 0.  1.
         21   -1    0    0  501  502 -0.00000000000E+00 -0.00000000000E+00 -0.32477051816E+03  0.32477051816E+03  0.00000000000E+00 0.  1.
         25    1    1    2    0    0  0.00000000000E+00  0.00000000000E+00 -0.31274279464E+03  0.33679824168E+03  0.12500000000E+03 0.  0.
<mgrwt>
<rscale>  2 0.12500000E+03</rscale>
<asrwt>0</asrwt>
<pdfrwt beam="1">  1       21 0.18504188E-02 0.12500000E+03</pdfrwt>
<pdfrwt beam="2">  1       21 0.49964700E-01 0.12500000E+03</pdfrwt>
<totfact> 0.52528445E+06</totfact>
</mgrwt>
</event>
<event>
 3    0  0.1682036E+001  0.1250000E+03  0.7546771E-02  0.1235069E+00
         21   -1    0    0  502  501  0.00000000000E+00  0.00000000000E+00  0.11643200055E+03  0.11643200055E+03  0.00000000000E+00 0. -1.
         21   -1    0    0  501  502 -0.00000000000E+00 -0.00000000000E+00 -0.33549625375E+02  0.33549625375E+02  0.00000000000E+00 0. -1.
         25    1    1    2    0    0  0.00000000000E+00  0.00000000000E+00  0.82882375170E+02  0.14998162592E+03  0.12500000000E+03 0.  0.
<mgrwt>
<rscale>  2 0.12500000E+03</rscale>
<asrwt>0</asrwt>
<pdfrwt beam="1">  1       21 0.17912615E-01 0.12500000E+03</pdfrwt>
<pdfrwt beam="2">  1       21 0.51614809E-02 0.12500000E+03</pdfrwt>
<totfact> 0.70761509E+06</totfact>
</mgrwt>
</event>
<event>
 3    0  0.1551445E+001  0.1250000E+03  0.7546771E-02  0.1235069E+00
         21   -1    0    0  502  501  0.00000000000E+00  0.00000000000E+00  0.10649754039E+02  0.10649754039E+02  0.00000000000E+00 0.  1.
         21   -1    0    0  501  502 -0.00000000000E+00 -0.00000000000E+00 -0.36679250861E+03  0.36679250861E+03  0.00000000000E+00 0.  1.
         25    1    1    2    0    0  0.00000000000E+00  0.00000000000E+00 -0.35614275457E+03  0.37744226265E+03  0.12500000000E+03 0.  0.
<mgrwt>
<rscale>  2 0.12500000E+03</rscale>
<asrwt>0</asrwt>
<pdfrwt beam="1">  1       21 0.16384237E-02 0.12500000E+03</pdfrwt>
<pdfrwt beam="2">  1       21 0.56429616E-01 0.12500000E+03</pdfrwt>
<totfact> 0.49573433E+06</totfact>
</mgrwt>
</event>
<event>
 3    0  0.1699644E+001  0.1250000E+03  0.7546771E-02  0.1235069E+00
         21   -1    0    0  502  501  0.00000000000E+00  0.00000000000E+00  0.47166385876E+02  0.47166385876E+02  0.00000000000E+00 0. -1.
         21   -1    0    0  501  502 -0.00000000000E+00 -0.00000000000E+00 -0.82818514233E+02  0.82818514233E+02  0.00000000000E+00 0. -1.
         25    1    1    2    0    0  0.00000000000E+00  0.00000000000E+00 -0.35652128357E+02  0.12998490011E+03  0.12500000000E+03 0.  0.
<mgrwt>
<rscale>  2 0.12500000E+03</rscale>
<asrwt>0</asrwt>
<pdfrwt beam="1">  1       21 0.72563671E-02 0.12500000E+03</pdfrwt>
<pdfrwt beam="2">  1       21 0.12741310E-01 0.12500000E+03</pdfrwt>
<totfact> 0.73366933E+06</totfact>
</mgrwt>
</event>
<event>
 3    0  0.1608154E+001  0.1250000E+03  0.7546771E-02  0.1235069E+00
         21   -1    0    0  502  501  0.00000000000E+00  0.00000000000E+00  0.22928281822E+03  0.22928281822E+03  0.00000000000E+00 0. -1.
         21   -1    0    0  501  502 -0.00000000000E+00 -0.00000000000E+00 -0.17036819551E+02  0.17036819551E+02  0.00000000000E+00 0. -1.
         25    1    1    2    0    0  0.00000000000E+00  0.00000000000E+00  0.21224599867E+03  0.24631963777E+03  0.12500000000E+03 0.  0.
<mgrwt>
<rscale>  2 0.12500000E+03</rscale>
<asrwt>0</asrwt>
<pdfrwt beam="1">  1       21 0.35274277E-01 0.12500000E+03</pdfrwt>
<pdfrwt beam="2">  1       21 0.26210493E-02 0.12500000E+03</pdfrwt>
<totfact> 0.60226432E+06</totfact>
</mgrwt>
</event>
<event>
 3    0  0.1368989E+001  0.1250000E+03  0.7546771E-02  0.1235069E+00
         21   -1    0    0  502  501  0.00000000000E+00  0.00000000000E+00  0.12358636418E+04  0.12358636418E+04  0.00000000000E+00 0.  1.
         21   -1    0    0  501  502 -0.00000000000E+00 -0.00000000000E+00 -0.31607451404E+01  0.31607451404E+01  0.00000000000E+00 0.  1.
         25    1    1    2    0    0  0.00000000000E+00  0.00000000000E+00  0.12327028966E+04  0.12390243869E+04  0.12500000000E+03 0.  0.
<mgrwt>
<rscale>  2 0.12500000E+03</rscale>
<asrwt>0</asrwt>
<pdfrwt beam="1">  1       21 0.19013248E+00 0.12500000E+03</pdfrwt>
<pdfrwt beam="2">  1       21 0.48626947E-03 0.12500000E+03</pdfrwt>
<totfact> 0.18382697E+06</totfact>
</mgrwt>
</event>
<event>
 3    0  0.1461778E+001  0.1250000E+03  0.7546771E-02  0.1235069E+00
         21   -1    0    0  502  501  0.00000000000E+00  0.00000000000E+00  0.69288781235E+01  0.69288781235E+01  0.00000000000E+00 0.  1.
         21   -1    0    0  501  502 -0.00000000000E+00 -0.00000000000E+00 -0.56376370466E+03  0.56376370466E+03  0.00000000000E+00 0.  1.
         25    1    1    2    0    0  0.00000000000E+00  0.00000000000E+00 -0.55683482653E+03  0.57069258278E+03  0.12500000000E+03 0.  0.
<mgrwt>
<rscale>  2 0.12500000E+03</rscale>
<asrwt>0</asrwt>
<pdfrwt beam="1">  1       21 0.10659810E-02 0.12500000E+03</pdfrwt>
<pdfrwt beam="2">  1       21 0.86732896E-01 0.12500000E+03</pdfrwt>
<totfact> 0.38452469E+06</totfact>
</mgrwt>
</event>
<event>
 3    0  0.1703222E+001  0.1250000E+03  0.7546771E-02  0.1235069E+00
         21   -1    0    0  502  501  0.00000000000E+00  0.00000000000E+00  0.48821434386E+02  0.48821434386E+02  0.00000000000E+00 0. -1.
         21   -1    0    0  501  502 -0.00000000000E+00 -0.00000000000E+00 -0.80010963404E+02  0.80010963404E+02  0.00000000000E+00 0. -1.
         25    1    1    2    0    0  0.00000000000E+00  0.00000000000E+00 -0.31189529017E+02  0.12883239779E+03  0.12500000000E+03 0.  0.
<mgrwt>
<rscale>  2 0.12500000E+03</rscale>
<asrwt>0</asrwt>
<pdfrwt beam="1">  1       21 0.75109900E-02 0.12500000E+03</pdfrwt>
<pdfrwt beam="2">  1       21 0.12309379E-01 0.12500000E+03</pdfrwt>
<totfact> 0.73521400E+06</totfact>
</mgrwt>
</event>
<event>
 3    0  0.1634038E+001  0.1250000E+03  0.7546771E-02  0.1235069E+00
         21   -1    0    0  502  501  0.00000000000E+00  0.00000000000E+00  0.21185363007E+02  0.21185363007E+02  0.00000000000E+00 0. -1.
         21   -1    0    0  501  502 -0.00000000000E+00 -0.00000000000E+00 -0.18438437891E+03  0.18438437891E+03  0.00000000000E+00 0. -1.
         25    1    1    2    0    0  0.00000000000E+00  0.00000000000E+00 -0.16319901590E+03  0.20556974191E+03  0.12500000000E+03 0.  0.
<mgrwt>
<rscale>  2 0.12500000E+03</rscale>
<asrwt>0</asrwt>
<pdfrwt beam="1">  1       21 0.32592867E-02 0.12500000E+03</pdfrwt>
<pdfrwt beam="2">  1       21 0.28366827E-01 0.12500000E+03</pdfrwt>
<totfact> 0.64328685E+06</totfact>
</mgrwt>
</event>
<event>
 3    0  0.1556784E+001  0.1250000E+03  0.7546771E-02  0.1235069E+00
         21   -1    0    0  502  501  0.00000000000E+00  0.00000000000E+00  0.11041704761E+02  0.11041704761E+02  0.00000000000E+00 0. -1.
         21   -1    0    0  501  502 -0.00000000000E+00 -0.00000000000E+00 -0.35377236436E+03  0.35377236436E+03  0.00000000000E+00 0. -1.
         25    1    1    2    0    0  0.00000000000E+00  0.00000000000E+00 -0.34273065960E+03  0.36481406912E+03  0.12500000000E+03 0.  0.
<mgrwt>
<rscale>  2 0.12500000E+03</rscale>
<asrwt>0</asrwt>
<pdfrwt beam="1">  1       21 0.16987241E-02 0.12500000E+03</pdfrwt>
<pdfrwt beam="2">  1       21 0.54426507E-01 0.12500000E+03</pdfrwt>
<totfact> 0.50462641E+06</totfact>
</mgrwt>
</event>
<event>
 3    0  0.1610406E+001  0.1250000E+03  0.7546771E-02  0.1235069E+00
         21   -1    0    0  502  501  0.00000000000E+00  0.00000000000E+00  0.14325958773E+02  0.14325958773E+02  0.00000000000E+00 0.  1.
         21   -1    0    0  501  502 -0.00000000000E+00 -0.00000000000E+00 -0.27266935931E+03  0.27266935931E+03  0.00000000000E+00 0.  1.
         25    1    1    2    0    0  0.00000000000E+00  0.00000000000E+00 -0.25834340054E+03  0.28699531808E+03  0.12500000000E+03 0.  0.
<mgrwt>
<rscale>  2 0.12500000E+03</rscale>
<asrwt>0</asrwt>
<pdfrwt beam="1">  1       21 0.22039936E-02 0.12500000E+03</pdfrwt>
<pdfrwt beam="2">  1       21 0.41949133E-01 0.12500000E+03</pdfrwt>
<totfact> 0.56554531E+06</totfact>
</mgrwt>
</event>
<event>
 3    0  0.1656008E+001  0.1250000E+03  0.7546771E-02  0.1235069E+00
         21   -1    0    0  502  501  0.00000000000E+00  0.00000000000E+00  0.24566132464E+02  0.24566132464E+02  0.00000000000E+00 0. -1.
         21   -1    0    0  501  502 -0.00000000000E+00 -0.00000000000E+00 -0.15900956350E+03  0.15900956350E+03  0.00000000000E+00 0. -1.
         25    1    1    2    0    0  0.00000000000E+00  0.00000000000E+00 -0.13444343104E+03  0.18357569596E+03  0.12500000000E+03 0.  0.
<mgrwt>
<rscale>  2 0.12500000E+03</rscale>
<asrwt>0</asrwt>
<pdfrwt beam="1">  1       21 0.37794052E-02 0.12500000E+03</pdfrwt>
<pdfrwt beam="2">  1       21 0.24463008E-01 0.12500000E+03</pdfrwt>
<totfact> 0.66743694E+06</totfact>
</mgrwt>
</event>
<event>
 3    0  0.1608061E+001  0.1250000E+03  0.7546771E-02  0.1235069E+00
         21   -1    0    0  502  501  0.00000000000E+00  0.00000000000E+00  0.26424502091E+03  0.26424502091E+03  0.00000000000E+00 0.  1.
         21   -1    0    0  501  502 -0.00000000000E+00 -0.00000000000E+00 -0.14782681568E+02  0.14782681568E+02  0.00000000000E+00 0.  1.
         25    1    1    2    0    0  0.00000000000E+00  0.00000000000E+00  0.24946233935E+03  0.27902770248E+03  0.12500000000E+03 0.  0.
<mgrwt>
<rscale>  2 0.12500000E+03</rscale>
<asrwt>0</asrwt>
<pdfrwt beam="1">  1       21 0.40653077E-01 0.12500000E+03</pdfrwt>
<pdfrwt beam="2">  1       21 0.22742589E-02 0.12500000E+03</pdfrwt>
<totfact> 0.57245368E+06</totfact>
</mgrwt>
</event>
<event>
 3    0  0.1368989E+001  0.1250000E+03  0.7546771E-02  0.1235069E+00
         21   -1    0    0  502  501  0.00000000000E+00  0.00000000000E+00  0.11491862096E+04  0.11491862096E+04  0.00000000000E+00 0. -1.
         21   -1    0    0  501  502 -0.00000000000E+00 -0.00000000000E+00 -0.33991445141E+01  0.33991445141E+01  0.00000000000E+00 0. -1.
         25    1    1    2    0    0  0.00000000000E+00  0.00000000000E+00  0.11457870651E+04  0.11525853541E+04  0.12500000000E+03 0.  0.
<mgrwt>
<rscale>  2 0.12500000E+03</rscale>
<asrwt>0</asrwt>
<pdfrwt beam="1">  1       21 0.17679757E+00 0.12500000E+03</pdfrwt>
<pdfrwt beam="2">  1       21 0.52294622E-03 0.12500000E+03</pdfrwt>
<totfact> 0.20114681E+06</totfact>
</mgrwt>
</event>
<event>
 3    0  0.1368989E+001  0.1250000E+03  0.7546771E-02  0.1235069E+00
         21   -1    0    0  502  501  0.00000000000E+00  0.00000000000E+00  0.90713259404E+03  0.90713259404E+03  0.00000000000E+00 0. -1.
         21   -1    0    0  501  502 -0.00000000000E+00 -0.00000000000E+00 -0.43061510805E+01  0.43061510805E+01  0.00000000000E+00 0. -1.
         25    1    1    2    0    0  0.00000000000E+00  0.00000000000E+00  0.90282644296E+03  0.91143874512E+03  0.12500000000E+03 0.  0.
<mgrwt>
<rscale>  2 0.12500000E+03</rscale>
<asrwt>0</asrwt>
<pdfrwt beam="1">  1       21 0.13955871E+00 0.12500000E+03</pdfrwt>
<pdfrwt beam="2">  1       21 0.66248551E-03 0.12500000E+03</pdfrwt>
<totfact> 0.25972907E+06</totfact>
</mgrwt>
</event>
<event>
 3    0  0.1651457E+001  0.1250000E+03  0.7546771E-02  0.1235069E+00
         21   -1    0    0  502  501  0.00000000000E+00  0.00000000000E+00  0.20105098676E+02  0.20105098676E+02  0.00000000000E+00 0.  1.
         21   -1    0    0  501  502 -0.00000000000E+00 -0.00000000000E+00 -0.19429151097E+03  0.19429151097E+03  0.00000000000E+00 0.  1.
         25    1    1    2    0    0  0.00000000000E+00  0.00000000000E+00 -0.17418641230E+03  0.21439660965E+03  0.12500000000E+03 0.  0.
<mgrwt>
<rscale>  2 0.12500000E+03</rscale>
<asrwt>0</asrwt>
<pdfrwt beam="1">  1       21 0.30930920E-02 0.12500000E+03</pdfrwt>
<pdfrwt beam="2">  1       21 0.29891002E-01 0.12500000E+03</pdfrwt>
<totfact> 0.63399910E+06</totfact>
</mgrwt>
</event>
<event>
 3    0  0.1703601E+001  0.1250000E+03  0.7546771E-02  0.1235069E+00
         21   -1    0    0  502  501  0.00000000000E+00  0.00000000000E+00  0.50789868858E+02  0.50789868858E+02  0.00000000000E+00 0. -1.
         21   -1    0    0  501  502 -0.00000000000E+00 -0.00000000000E+00 -0.76910023353E+02  0.76910023353E+02  0.00000000000E+00 0. -1.
         25    1    1    2    0    0  0.00000000000E+00  0.00000000000E+00 -0.26120154495E+02  0.12769989221E+03  0.12500000000E+03 0.  0.
<mgrwt>
<rscale>  2 0.12500000E+03</rscale>
<asrwt>0</asrwt>
<pdfrwt beam="1">  1       21 0.78138260E-02 0.12500000E+03</pdfrwt>
<pdfrwt beam="2">  1       21 0.11832311E-01 0.12500000E+03</pdfrwt>
<totfact> 0.73674140E+06</totfact>
</mgrwt>
</event>
<event>
 3    0  0.1368989E+001  0.1250000E+03  0.7546771E-02  0.1235069E+00
         21   -1    0    0  502  501  0.00000000000E+00  0.00000000000E+00  0.22195636509E+01  0.22195636509E+01  0.00000000000E+00 0.  1.
         21   -1    0    0  501  502 -0.00000000000E+00 -0.00000000000E+00 -0.17599179904E+04  0.17599179904E+04  0.00000000000E+00 0.  1.
         25    1    1    2    0    0  0.00000000000E+00  0.00000000000E+00 -0.17576984267E+04  0.17621375540E+04  0.12500000000E+03 0.  0.
<mgrwt>
<rscale>  2 0.12500000E+03</rscale>
<asrwt>0</asrwt>
<pdfrwt beam="1">  1       21 0.34147100E-03 0.12500000E+03</pdfrwt>
<pdfrwt beam="2">  1       21 0.27075688E+00 0.12500000E+03</pdfrwt>
<totfact> 0.10512591E+06</totfact>
</mgrwt>
</event>
<event>
 3    0  0.1614310E+001  0.1250000E+03  0.7546771E-02  0.1235069E+00
         21   -1    0    0  502  501  0.00000000000E+00  0.00000000000E+00  0.24868126519E+03  0.24868126519E+03  0.00000000000E+00 0.  1.
         21   -1    0    0  501  502 -0.00000000000E+00 -0.00000000000E+00 -0.15707857997E+02  0.15707857997E+02  0.00000000000E+00 0.  1.
         25    1    1    2    0    0  0.00000000000E+00  0.00000000000E+00  0.23297340719E+03  0.26438912318E+03  0.12500000000E+03 0.  0.
<mgrwt>
<rscale>  2 0.12500000E+03</rscale>
<asrwt>0</asrwt>
<pdfrwt beam="1">  1       21 0.38258653E-01 0.12500000E+03</pdfrwt>
<pdfrwt beam="2">  1       21 0.24165937E-02 0.12500000E+03</pdfrwt>
<totfact> 0.58549307E+06</totfact>
</mgrwt>
</event>
<event>
 3    0  0.1642900E+001  0.1250000E+03  0.7546771E-02  0.1235069E+00
         21   -1    0    0  502  501  0.00000000000E+00  0.00000000000E+00  0.16483862853E+02  0.16483862853E+02  0.00000000000E+00 0.  1.
         21   -1    0    0  501  502 -0.00000000000E+00 -0.00000000000E+00 -0.23697418711E+03  0.23697418711E+03  0.00000000000E+00 0.  1.
         25    1    1    2    0    0  0.00000000000E+00  0.00000000000E+00 -0.22049032426E+03  0.25345804996E+03  0.12500000000E+03 0.  0.
<mgrwt>
<rscale>  2 0.12500000E+03</rscale>
<asrwt>0</asrwt>
<pdfrwt beam="1">  1       21 0.25359790E-02 0.12500000E+03</pdfrwt>
<pdfrwt beam="2">  1       21 0.36457566E-01 0.12500000E+03</pdfrwt>
<totfact> 0.59554139E+06</totfact>
</mgrwt>
</event>
<event>
 3    0  0.1368989E+001  0.1250000E+03  0.7546771E-02  0.1235069E+00
         21   -1    0    0  502  501  0.00000000000E+00  0.00000000000E+00  0.22644863006E+04  0.22644863006E+04  0.00000000000E+00 0. -1.
         21   -1    0    0  501  502 -0.00000000000E+00 -0.00000000000E+00 -0.17250049156E+01  0.17250049156E+01  0.00000000000E+00 0. -1.
         25    1    1    2    0    0  0.00000000000E+00  0.00000000000E+00  0.22627612957E+04  0.22662113056E+04  0.12500000000E+03 0.  0.
<mgrwt>
<rscale>  2 0.12500000E+03</rscale>
<asrwt>0</asrwt>
<pdfrwt beam="1">  1       21 0.34838013E+00 0.12500000E+03</pdfrwt>
<pdfrwt beam="2">  1       21 0.26538718E-03 0.12500000E+03</pdfrwt>
<totfact> 0.56313368E+05</totfact>
</mgrwt>
</event>
<event>
 3    0  0.1674307E+001  0.1250000E+03  0.7546771E-02  0.1235069E+00
         21   -1    0    0  502  501  0.00000000000E+00  0.00000000000E+00  0.14227180029E+03  0.14227180029E+03  0.00000000000E+00 0. -1.
         21   -1    0    0  501  502 -0.00000000000E+00 -0.00000000000E+00 -0.27456249179E+02  0.27456249179E+02  0.00000000000E+00 0. -1.
         25    1    1    2    0    0  0.00000000000E+00  0.00000000000E+00  0.11481555111E+03  0.16972804947E+03  0.12500000000E+03 0.  0.
<mgrwt>
<rscale>  2 0.12500000E+03</rscale>
<asrwt>0</asrwt>
<pdfrwt beam="1">  1       21 0.21887969E-01 0.12500000E+03</pdfrwt>
<pdfrwt beam="2">  1       21 0.42240384E-02 0.12500000E+03</pdfrwt>
<totfact> 0.68349888E+06</totfact>
</mgrwt>
</event>
<event>
 3    0  0.1564077E+001  0.1250000E+03  0.7546771E-02  0.1235069E+00
         21   -1    0    0  502  501  0.00000000000E+00  0.00000000000E+00  0.11981054060E+02  0.11981054060E+02  0.00000000000E+00 0.  1.
         21   -1    0    0  501  502 -0.00000000000E+00 -0.00000000000E+00 -0.32603558755E+03  0.32603558755E+03  0.00000000000E+00 0.  1.
         25    1    1    2    0    0  0.00000000000E+00  0.00000000000E+00 -0.31405453349E+03  0.33801664161E+03  0.12500000000E+03 0.  0.
<mgrwt>
<rscale>  2 0.12500000E+03</rscale>
<asrwt>0</asrwt>
<pdfrwt beam="1">  1       21 0.18432393E-02 0.12500000E+03</pdfrwt>
<pdfrwt beam="2">  1       21 0.50159317E-01 0.12500000E+03</pdfrwt>
<totfact> 0.52435802E+06</totfact>
</mgrwt>
</event>
<event>
 3    0  0.1662730E+001  0.1250000E+03  0.7546771E-02  0.1235069E+00
         21   -1    0    0  502  501  0.00000000000E+00  0.00000000000E+00  0.15627489222E+03  0.15627489222E+03  0.00000000000E+00 0. -1.
         21   -1    0    0  501  502 -0.00000000000E+00 -0.00000000000E+00 -0.24996017879E+02  0.24996017879E+02  0.00000000000E+00 0. -1.
         25    1    1    2    0    0  0.00000000000E+00  0.00000000000E+00  0.13127887434E+03  0.18127091010E+03  0.12500000000E+03 0.  0.
<mgrwt>
<rscale>  2 0.12500000E+03</rscale>
<asrwt>0</asrwt>
<pdfrwt beam="1">  1       21 0.24042290E-01 0.12500000E+03</pdfrwt>
<pdfrwt beam="2">  1       21 0.38455413E-02 0.12500000E+03</pdfrwt>
<totfact> 0.67006040E+06</totfact>
</mgrwt>
</event>
<event>
 3    0  0.1711140E+001  0.1250000E+03  0.7546771E-02  0.1235069E+00
         21   -1    0    0  502  501  0.00000000000E+00  0.00000000000E+00  0.10735492643E+03  0.10735492643E+03  0.00000000000E+00 0.  1.
         21   -1    0    0  501  502 -0.00000000000E+00 -0.00000000000E+00 -0.36386313416E+02  0.36386313416E+02  0.00000000000E+00 0.  1.
         25    1    1    2    0    0  0.00000000000E+00  0.00000000000E+00  0.70968613017E+02  0.14374123985E+03  0.12500000000E+03 0.  0.
<mgrwt>
<rscale>  2 0.12500000E+03</rscale>
<asrwt>0</asrwt>
<pdfrwt beam="1">  1       21 0.16516142E-01 0.12500000E+03</pdfrwt>
<pdfrwt beam="2">  1       21 0.55978944E-02 0.12500000E+03</pdfrwt>
<totfact> 0.71554581E+06</totfact>
</mgrwt>
</event>
<event>
 3    0  0.1723243E+001  0.1250000E+03  0.7546771E-02  0.1235069E+00
         21   -1    0    0  502  501  0.00000000000E+00  0.00000000000E+00  0.45554578490E+02  0.45554578490E+02  0.00000000000E+00 0.  1.
         21   -1    0    0  501  502 -0.00000000000E+00 -0.00000000000E+00 -0.85748790341E+02  0.85748790341E+02  0.00000000000E+00 0.  1.
         25    1    1    2    0    0  0.00000000000E+00  0.00000000000E+00 -0.40194211852E+02  0.13130336883E+03  0.12500000000E+03 0.  0.
<mgrwt>
<rscale>  2 0.12500000E+03</rscale>
<asrwt>0</asrwt>
<pdfrwt beam="1">  1       21 0.70083967E-02 0.12500000E+03</pdfrwt>
<pdfrwt beam="2">  1       21 0.13192122E-01 0.12500000E+03</pdfrwt>
<totfact> 0.73189819E+06</totfact>
</mgrwt>
</event>
<event>
 3    0  0.1725965E+001  0.1250000E+03  0.7546771E-02  0.1235069E+00
         21   -1    0    0  502  501  0.00000000000E+00  0.00000000000E+00  0.78867509374E+02  0.78867509374E+02  0.00000000000E+00 0.  1.
         21   -1    0    0  501  502 -0.00000000000E+00 -0.00000000000E+00 -0.49529267895E+02  0.49529267895E+02  0.00000000000E+00 0.  1.
         25    1    1    2    0    0  0.00000000000E+00  0.00000000000E+00  0.29338241479E+02  0.12839677727E+03  0.12500000000E+03 0.  0.
<mgrwt>
<rscale>  2 0.12500000E+03</rscale>
<asrwt>0</asrwt>
<pdfrwt beam="1">  1       21 0.12133463E-01 0.12500000E+03</pdfrwt>
<pdfrwt beam="2">  1       21 0.76198874E-02 0.12500000E+03</pdfrwt>
<totfact> 0.73580027E+06</totfact>
</mgrwt>
</event>
<event>
 3    0  0.1705347E+001  0.1250000E+03  0.7546771E-02  0.1235069E+00
         21   -1    0    0  502  501  0.00000000000E+00  0.00000000000E+00  0.61316390691E+02  0.61316390691E+02  0.00000000000E+00 0. -1.
         21   -1    0    0  501  502 -0.00000000000E+00 -0.00000000000E+00 -0.63706456887E+02  0.63706456887E+02  0.00000000000E+00 0. -1.
         25    1    1    2    0    0  0.00000000000E+00  0.00000000000E+00 -0.23900661955E+01  0.12502284758E+03  0.12500000000E+03 0.  0.
<mgrwt>
<rscale>  2 0.12500000E+03</rscale>
<asrwt>0</asrwt>
<pdfrwt beam="1">  1       21 0.94332909E-02 0.12500000E+03</pdfrwt>
<pdfrwt beam="2">  1       21 0.98009933E-02 0.12500000E+03</pdfrwt>
<totfact> 0.74040495E+06</totfact>
</mgrwt>
</event>
<event>
 3    0  0.1368989E+001  0.1250000E+03  0.7546771E-02  0.1235069E+00
         21   -1    0    0  502  501  0.00000000000E+00  0.00000000000E+00  0.17732775103E+04  0.17732775103E+04  0.00000000000E+00 0.  1.
         21   -1    0    0  501  502 -0.00000000000E+00 -0.00000000000E+00 -0.22028419000E+01  0.22028419000E+01  0.00000000000E+00 0.  1.
         25    1    1    2    0    0  0.00000000000E+00  0.00000000000E+00  0.17710746684E+04  0.17754803522E+04  0.12500000000E+03 0.  0.
<mgrwt>
<rscale>  2 0.12500000E+03</rscale>
<asrwt>0</asrwt>
<pdfrwt beam="1">  1       21 0.27281078E+00 0.12500000E+03</pdfrwt>
<pdfrwt beam="2">  1       21 0.33890017E-03 0.12500000E+03</pdfrwt>
<totfact> 0.10355076E+06</totfact>
</mgrwt>
</event>
<event>
 3    0  0.1546371E+001  0.1250000E+03  0.7546771E-02  0.1235069E+00
         21   -1    0    0  502  501  0.00000000000E+00  0.00000000000E+00  0.34522425507E+03  0.34522425507E+03  0.00000000000E+00 0.  1.
         21   -1    0    0  501  502 -0.00000000000E+00 -0.00000000000E+00 -0.11315108781E+02  0.11315108781E+02  0.00000000000E+00 0.  1.
         25    1    1    2    0    0  0.00000000000E+00  0.00000000000E+00  0.33390914629E+03  0.35653936385E+03  0.12500000000E+03 0.  0.
<mgrwt>
<rscale>  2 0.12500000E+03</rscale>
<asrwt>0</asrwt>
<pdfrwt beam="1">  1       21 0.53111416E-01 0.12500000E+03</pdfrwt>
<pdfrwt beam="2">  1       21 0.17407862E-02 0.12500000E+03</pdfrwt>
<totfact> 0.51059082E+06</totfact>
</mgrwt>
</event>
<event>
 3    0  0.1368989E+001  0.1250000E+03  0.7546771E-02  0.1235069E+00
         21   -1    0    0  502  501  0.00000000000E+00  0.00000000000E+00  0.46591804682E+01  0.46591804682E+01  0.00000000000E+00 0.  1.
         21   -1    0    0  501  502 -0.00000000000E+00 -0.00000000000E+00 -0.83839851807E+03  0.83839851807E+03  0.00000000000E+00 0.  1.
         25    1    1    2    0    0  0.00000000000E+00  0.00000000000E+00 -0.83373933760E+03  0.84305769854E+03  0.12500000000E+03 0.  0.
<mgrwt>
<rscale>  2 0.12500000E+03</rscale>
<asrwt>0</asrwt>
<pdfrwt beam="1">  1       21 0.71679792E-03 0.12500000E+03</pdfrwt>
<pdfrwt beam="2">  1       21 0.12898422E+00 0.12500000E+03</pdfrwt>
<totfact> 0.27985025E+06</totfact>
</mgrwt>
</event>
<event>
 3    0  0.1439444E+001  0.1250000E+03  0.7546771E-02  0.1235069E+00
         21   -1    0    0  502  501  0.00000000000E+00  0.00000000000E+00  0.49912400753E+03  0.49912400753E+03  0.00000000000E+00 0. -1.
         21   -1    0    0  501  502 -0.00000000000E+00 -0.00000000000E+00 -0.78262114045E+01  0.78262114045E+01  0.00000000000E+00 0. -1.
         25    1    1    2    0    0  0.00000000000E+00  0.00000000000E+00  0.49129779613E+03  0.50695021894E+03  0.12500000000E+03 0.  0.
<mgrwt>
<rscale>  2 0.12500000E+03</rscale>
<asrwt>0</asrwt>
<pdfrwt beam="1">  1       21 0.76788284E-01 0.12500000E+03</pdfrwt>
<pdfrwt beam="2">  1       21 0.12040329E-02 0.12500000E+03</pdfrwt>
<totfact> 0.41669644E+06</totfact>
</mgrwt>
</event>
<event>
 3    0  0.1393783E+001  0.1250000E+03  0.7546771E-02  0.1235069E+00
         21   -1    0    0  502  501  0.00000000000E+00  0.00000000000E+00  0.64771409475E+01  0.64771409475E+01  0.00000000000E+00 0.  1.
         21   -1    0    0  501  502 -0.00000000000E+00 -0.00000000000E+00 -0.60308244512E+03  0.60308244512E+03  0.00000000000E+00 0.  1.
         25    1    1    2    0    0  0.00000000000E+00  0.00000000000E+00 -0.59660530417E+03  0.60955958606E+03  0.12500000000E+03 0.  0.
<mgrwt>
<rscale>  2 0.12500000E+03</rscale>
<asrwt>0</asrwt>
<pdfrwt beam="1">  1       21 0.99648306E-03 0.12500000E+03</pdfrwt>
<pdfrwt beam="2">  1       21 0.92781930E-01 0.12500000E+03</pdfrwt>
<totfact> 0.36663845E+06</totfact>
</mgrwt>
</event>
<event>
 3    0  0.1699388E+001  0.1250000E+03  0.7546771E-02  0.1235069E+00
         21   -1    0    0  502  501  0.00000000000E+00  0.00000000000E+00  0.89988683937E+02  0.89988683937E+02  0.00000000000E+00 0. -1.
         21   -1    0    0  501  502 -0.00000000000E+00 -0.00000000000E+00 -0.43408235670E+02  0.43408235670E+02  0.00000000000E+00 0. -1.
         25    1    1    2    0    0  0.00000000000E+00  0.00000000000E+00  0.46580448267E+02  0.13339691961E+03  0.12500000000E+03 0.  0.
<mgrwt>
<rscale>  2 0.12500000E+03</rscale>
<asrwt>0</asrwt>
<pdfrwt beam="1">  1       21 0.13844413E-01 0.12500000E+03</pdfrwt>
<pdfrwt beam="2">  1       21 0.66781901E-02 0.12500000E+03</pdfrwt>
<totfact> 0.72909442E+06</totfact>
</mgrwt>
</event>
<event>
 3    0  0.1368989E+001  0.1250000E+03  0.7546771E-02  0.1235069E+00
         21   -1    0    0  502  501  0.00000000000E+00  0.00000000000E+00  0.36598344362E+01  0.36598344362E+01  0.00000000000E+00 0. -1.
         21   -1    0    0  501  502 -0.00000000000E+00 -0.00000000000E+00 -0.10673297025E+04  0.10673297025E+04  0.00000000000E+00 0. -1.
         25    1    1    2    0    0  0.00000000000E+00  0.00000000000E+00 -0.10636698681E+04  0.10709895370E+04  0.12500000000E+03 0.  0.
<mgrwt>
<rscale>  2 0.12500000E+03</rscale>
<asrwt>0</asrwt>
<pdfrwt beam="1">  1       21 0.56305181E-03 0.12500000E+03</pdfrwt>
<pdfrwt beam="2">  1       21 0.16420446E+00 0.12500000E+03</pdfrwt>
<totfact> 0.21908420E+06</totfact>
</mgrwt>
</event>
<event>
 3    0  0.1664346E+001  0.1250000E+03  0.7546771E-02  0.1235069E+00
         21   -1    0    0  502  501  0.00000000000E+00  0.00000000000E+00  0.28401199432E+02  0.28401199432E+02  0.00000000000E+00 0. -1.
         21   -1    0    0  501  502 -0.00000000000E+00 -0.00000000000E+00 -0.13753820536E+03  0.13753820536E+03  0.00000000000E+00 0. -1.
         25    1    1    2    0    0  0.00000000000E+00  0.00000000000E+00 -0.10913700593E+03  0.16593940479E+03  0.12500000000E+03 0.  0.
<mgrwt>
<rscale>  2 0.12500000E+03</rscale>
<asrwt>0</asrwt>
<pdfrwt beam="1">  1       21 0.43694153E-02 0.12500000E+03</pdfrwt>
<pdfrwt beam="2">  1       21 0.21159724E-01 0.12500000E+03</pdfrwt>
<totfact> 0.68800949E+06</totfact>
</mgrwt>
</event>
<event>
 3    0  0.1730046E+001  0.1250000E+03  0.7546771E-02  0.1235069E+00
         21   -1    0    0  502  501  0.00000000000E+00  0.00000000000E+00  0.62064325879E+02  0.62064325879E+02  0.00000000000E+00 0.  1.
         21   -1    0    0  501  502 -0.00000000000E+00 -0.00000000000E+00 -0.62938732430E+02  0.62938732430E+02  0.00000000000E+00 0.  1.
         25    1    1    2    0    0  0.00000000000E+00  0.00000000000E+00 -0.87440655114E+00  0.12500305831E+03  0.12500000000E+03 0.  0.
<mgrwt>
<rscale>  2 0.12500000E+03</rscale>
<asrwt>0</asrwt>
<pdfrwt beam="1">  1       21 0.95483579E-02 0.12500000E+03</pdfrwt>
<pdfrwt beam="2">  1       21 0.96828819E-02 0.12500000E+03</pdfrwt>
<totfact> 0.74043168E+06</totfact>
</mgrwt>
</event>
<event>
 3    0  0.1368989E+001  0.1250000E+03  0.7546771E-02  0.1235069E+00
         21   -1    0    0  502  501  0.00000000000E+00  0.00000000000E+00  0.12592770078E+04  0.12592770078E+04  0.00000000000E+00 0. -1.
         21   -1    0    0  501  502 -0.00000000000E+00 -0.00000000000E+00 -0.31019783383E+01  0.31019783383E+01  0.00000000000E+00 0. -1.
         25    1    1    2    0    0  0.00000000000E+00  0.00000000000E+00  0.12561750294E+04  0.12623789861E+04  0.12500000000E+03 0.  0.
<mgrwt>
<rscale>  2 0.12500000E+03</rscale>
<asrwt>0</asrwt>
<pdfrwt beam="1">  1       21 0.19373452E+00 0.12500000E+03</pdfrwt>
<pdfrwt beam="2">  1       21 0.47722844E-03 0.12500000E+03</pdfrwt>
<totfact> 0.17941686E+06</totfact>
</mgrwt>
</event>
<event>
 3    0  0.1700995E+001  0.1250000E+03  0.7546771E-02  0.1235069E+00
         21   -1    0    0  502  501  0.00000000000E+00  0.00000000000E+00  0.88980182991E+02  0.88980182991E+02  0.00000000000E+00 0. -1.
         21   -1    0    0  501  502 -0.00000000000E+00 -0.00000000000E+00 -0.43900224395E+02  0.43900224395E+02  0.00000000000E+00 0. -1.
         25    1    1    2    0    0  0.00000000000E+00  0.00000000000E+00  0.45079958596E+02  0.13288040739E+03  0.12500000000E+03 0.  0.
<mgrwt>
<rscale>  2 0.12500000E+03</rscale>
<asrwt>0</asrwt>
<pdfrwt beam="1">  1       21 0.13689259E-01 0.12500000E+03</pdfrwt>
<pdfrwt beam="2">  1       21 0.67538807E-02 0.12500000E+03</pdfrwt>
<totfact> 0.72978372E+06</totfact>
</mgrwt>
</event>
<event>
 3    0  0.1651832E+001  0.1250000E+03  0.7546771E-02  0.1235069E+00
         21   -1    0    0  502  501  0.00000000000E+00  0.00000000000E+00  0.15484529781E+03  0.15484529781E+03  0.00000000000E+00 0. -1.
         21   -1    0    0  501  502 -0.00000000000E+00 -0.00000000000E+00 -0.25226791224E+02  0.25226791224E+02  0.00000000000E+00 0. -1.
         25    1    1    2    0    0  0.00000000000E+00  0.00000000000E+00  0.12961850659E+03  0.18007208904E+03  0.12500000000E+03 0.  0.
<mgrwt>
<rscale>  2 0.12500000E+03</rscale>
<asrwt>0</asrwt>
<pdfrwt beam="1">  1       21 0.23822353E-01 0.12500000E+03</pdfrwt>
<pdfrwt beam="2">  1       21 0.38810449E-02 0.12500000E+03</pdfrwt>
<totfact> 0.67143268E+06</totfact>
</mgrwt>
</event>
<event>
 3    0  0.1568290E+001  0.1250000E+03  0.7546771E-02  0.1235069E+00
         21   -1    0    0  502  501  0.00000000000E+00  0.00000000000E+00  0.10884819036E+02  0.10884819036E+02  0.00000000000E+00 0.  1.
         21   -1    0    0  501  502 -0.00000000000E+00 -0.00000000000E+00 -0.35887137739E+03  0.35887137739E+03  0.00000000000E+00 0.  1.
         25    1    1    2    0    0  0.00000000000E+00  0.00000000000E+00 -0.34798655835E+03  0.36975619642E+03  0.12500000000E+03 0.  0.
<mgrwt>
<rscale>  2 0.12500000E+03</rscale>
<asrwt>0</asrwt>
<pdfrwt beam="1">  1       21 0.16745876E-02 0.12500000E+03</pdfrwt>
<pdfrwt beam="2">  1       21 0.55210981E-01 0.12500000E+03</pdfrwt>
<totfact> 0.50111663E+06</totfact>
</mgrwt>
</event>
<event>
 3    0  0.1619052E+001  0.1250000E+03  0.7546771E-02  0.1235069E+00
         21   -1    0    0  502  501  0.00000000000E+00  0.00000000000E+00  0.23679606980E+03  0.23679606980E+03  0.00000000000E+00 0. -1.
         21   -1    0    0  501  502 -0.00000000000E+00 -0.00000000000E+00 -0.16496261966E+02  0.16496261966E+02  0.00000000000E+00 0. -1.
         25    1    1    2    0    0  0.00000000000E+00  0.00000000000E+00  0.22029980783E+03  0.25329233177E+03  0.12500000000E+03 0.  0.
<mgrwt>
<rscale>  2 0.12500000E+03</rscale>
<asrwt>0</asrwt>
<pdfrwt beam="1">  1       21 0.36430162E-01 0.12500000E+03</pdfrwt>
<pdfrwt beam="2">  1       21 0.25378866E-02 0.12500000E+03</pdfrwt>
<totfact> 0.59569600E+06</totfact>
</mgrwt>
</event>
<event>
 3    0  0.1728576E+001  0.1250000E+03  0.7546771E-02  0.1235069E+00
         21   -1    0    0  502  501  0.00000000000E+00  0.00000000000E+00  0.53474351358E+02  0.53474351358E+02  0.00000000000E+00 0.  1.
         21   -1    0    0  501  502 -0.00000000000E+00 -0.00000000000E+00 -0.73049039415E+02  0.73049039415E+02  0.00000000000E+00 0.  1.
         25    1    1    2    0    0  0.00000000000E+00  0.00000000000E+00 -0.19574688057E+02  0.12652339077E+03  0.12500000000E+03 0.  0.
<mgrwt>
<rscale>  2 0.12500000E+03</rscale>
<asrwt>0</asrwt>
<pdfrwt beam="1">  1       21 0.82268233E-02 0.12500000E+03</pdfrwt>
<pdfrwt beam="2">  1       21 0.11238314E-01 0.12500000E+03</pdfrwt>
<totfact> 0.73834172E+06</totfact>
</mgrwt>
</event>
<event>
 3    0  0.1382889E+001  0.1250000E+03  0.7546771E-02  0.1235069E+00
         21   -1    0    0  502  501  0.00000000000E+00  0.00000000000E+00  0.56459072277E+01  0.56459072277E+01  0.00000000000E+00 0.  1.
         21   -1    0    0  501  502 -0.00000000000E+00 -0.00000000000E+00 -0.69187286337E+03  0.69187286337E+03  0.00000000000E+00 0.  1.
         25    1    1    2    0    0  0.00000000000E+00  0.00000000000E+00 -0.68622695615E+03  0.69751877060E+03  0.12500000000E+03 0.  0.
<mgrwt>
<rscale>  2 0.12500000E+03</rscale>
<asrwt>0</asrwt>
<pdfrwt beam="1">  1       21 0.86860102E-03 0.12500000E+03</pdfrwt>
<pdfrwt beam="2">  1       21 0.10644199E+00 0.12500000E+03</pdfrwt>
<totfact> 0.33006016E+06</totfact>
</mgrwt>
</event>
<event>
 3    0  0.1368989E+001  0.1250000E+03  0.7546771E-02  0.1235069E+00
         21   -1    0    0  502  501  0.00000000000E+00  0.00000000000E+00  0.23799328091E+04  0.23799328091E+04  0.00000000000E+00 0.  1.
         21   -1    0    0  501  502 -0.00000000000E+00 -0.00000000000E+00 -0.16413278497E+01  0.16413278497E+01  0.00000000000E+00 0.  1.
         25    1    1    2    0    0  0.00000000000E+00  0.00000000000E+00  0.23782914813E+04  0.23815741370E+04  0.12500000000E+03 0.  0.
<mgrwt>
<rscale>  2 0.12500000E+03</rscale>
<asrwt>0</asrwt>
<pdfrwt beam="1">  1       21 0.36614075E+00 0.12500000E+03</pdfrwt>
<pdfrwt beam="2">  1       21 0.25251388E-03 0.12500000E+03</pdfrwt>
<totfact> 0.47901462E+05</totfact>
</mgrwt>
</event>
<event>
 3    0  0.1444695E+001  0.1250000E+03  0.7546771E-02  0.1235069E+00
         21   -1    0    0  502  501  0.00000000000E+00  0.00000000000E+00  0.47495670028E+03  0.47495670028E+03  0.00000000000E+00 0. -1.
         21   -1    0    0  501  502 -0.00000000000E+00 -0.00000000000E+00 -0.82244339278E+01  0.82244339278E+01  0.00000000000E+00 0. -1.
         25    1    1    2    0    0  0.00000000000E+00  0.00000000000E+00  0.46673226635E+03  0.48318113420E+03  0.12500000000E+03 0.  0.
<mgrwt>
<rscale>  2 0.12500000E+03</rscale>
<asrwt>0</asrwt>
<pdfrwt beam="1">  1       21 0.73070240E-01 0.12500000E+03</pdfrwt>
<pdfrwt beam="2">  1       21 0.12652979E-02 0.12500000E+03</pdfrwt>
<totfact> 0.42971141E+06</totfact>
</mgrwt>
</event>
<event>
 3    0  0.1633737E+001  0.1250000E+03  0.7546771E-02  0.1235069E+00
         21   -1    0    0  502  501  0.00000000000E+00  0.00000000000E+00  0.25329508299E+03  0.25329508299E+03  0.00000000000E+00 0.  1.
         21   -1    0    0  501  502 -0.00000000000E+00 -0.00000000000E+00 -0.15421736395E+02  0.15421736395E+02  0.00000000000E+00 0.  1.
         25    1    1    2    0    0  0.00000000000E+00  0.00000000000E+00  0.23787334659E+03  0.26871681938E+03  0.12500000000E+03 0.  0.
<mgrwt>
<rscale>  2 0.12500000E+03</rscale>
<asrwt>0</asrwt>
<pdfrwt beam="1">  1       21 0.38968471E-01 0.12500000E+03</pdfrwt>
<pdfrwt beam="2">  1       21 0.23725750E-02 0.12500000E+03</pdfrwt>
<totfact> 0.58159425E+06</totfact>
</mgrwt>
</event>
<event>
 3    0  0.1612182E+001  0.1250000E+03  0.7546771E-02  0.1235069E+00
         21   -1    0    0  502  501  0.00000000000E+00  0.00000000000E+00  0.23971578128E+03  0.23971578128E+03  0.00000000000E+00 0. -1.
         21   -1    0    0  501  502 -0.00000000000E+00 -0.00000000000E+00 -0.16295339335E+02  0.16295339335E+02  0.00000000000E+00 0. -1.
         25    1    1    2    0    0  0.00000000000E+00  0.00000000000E+00  0.22342044195E+03  0.25601112062E+03  0.12500000000E+03 0.  0.
<mgrwt>
<rscale>  2 0.12500000E+03</rscale>
<asrwt>0</asrwt>
<pdfrwt beam="1">  1       21 0.36879348E-01 0.12500000E+03</pdfrwt>
<pdfrwt beam="2">  1       21 0.25069755E-02 0.12500000E+03</pdfrwt>
<totfact> 0.59316823E+06</totfact>
</mgrwt>
</event>
<event>
 3    0  0.1683427E+001  0.1250000E+03  0.7546771E-02  0.1235069E+00
         21   -1    0    0  502  501  0.00000000000E+00  0.00000000000E+00  0.12019477352E+03  0.12019477352E+03  0.00000000000E+00 0. -1.
         21   -1    0    0  501  502 -0.00000000000E+00 -0.00000000000E+00 -0.32499333253E+02  0.32499333253E+02  0.00000000000E+00 0. -1.
         25    1    1    2    0    0  0.00000000000E+00  0.00000000000E+00  0.87695440268E+02  0.15269410678E+03  0.12500000000E+03 0.  0.
<mgrwt>
<rscale>  2 0.12500000E+03</rscale>
<asrwt>0</asrwt>
<pdfrwt beam="1">  1       21 0.18491503E-01 0.12500000E+03</pdfrwt>
<pdfrwt beam="2">  1       21 0.49998975E-02 0.12500000E+03</pdfrwt>
<totfact> 0.70422390E+06</totfact>
</mgrwt>
</event>
<event>
 3    0  0.1418949E+001  0.1250000E+03  0.7546771E-02  0.1235069E+00
         21   -1    0    0  502  501  0.00000000000E+00  0.00000000000E+00  0.51050275042E+03  0.51050275042E+03  0.00000000000E+00 0. -1.
         21   -1    0    0  501  502 -0.00000000000E+00 -0.00000000000E+00 -0.76517707237E+01  0.76517707237E+01  0.00000000000E+00 0. -1.
         25    1    1    2    0    0  0.00000000000E+00  0.00000000000E+00  0.50285097969E+03  0.51815452114E+03  0.12500000000E+03 0.  0.
<mgrwt>
<rscale>  2 0.12500000E+03</rscale>
<asrwt>0</asrwt>
<pdfrwt beam="1">  1       21 0.78538858E-01 0.12500000E+03</pdfrwt>
<pdfrwt beam="2">  1       21 0.11771959E-02 0.12500000E+03</pdfrwt>
<totfact> 0.41076329E+06</totfact>
</mgrwt>
</event>
<event>
 3    0  0.1368989E+001  0.1250000E+03  0.7546771E-02  0.1235069E+00
         21   -1    0    0  502  501  0.00000000000E+00  0.00000000000E+00  0.40040400736E+01  0.40040400736E+01  0.00000000000E+00 0. -1.
         21   -1    0    0  501  502 -0.00000000000E+00 -0.00000000000E+00 -0.97557714913E+03  0.97557714913E+03  0.00000000000E+00 0. -1.
         25    1    1    2    0    0  0.00000000000E+00  0.00000000000E+00 -0.97157310906E+03  0.97958118921E+03  0.12500000000E+03 0.  0.
<mgrwt>
<rscale>  2 0.12500000E+03</rscale>
<asrwt>0</asrwt>
<pdfrwt beam="1">  1       21 0.61600584E-03 0.12500000E+03</pdfrwt>
<pdfrwt beam="2">  1       21 0.15008887E+00 0.12500000E+03</pdfrwt>
<totfact> 0.24135767E+06</totfact>
</mgrwt>
</event>
<event>
 3    0  0.1686061E+001  0.1250000E+03  0.7546771E-02  0.1235069E+00
         21   -1    0    0  502  501  0.00000000000E+00  0.00000000000E+00  0.36248318318E+02  0.36248318318E+02  0.00000000000E+00 0. -1.
         21   -1    0    0  501  502 -0.00000000000E+00 -0.00000000000E+00 -0.10776361997E+03  0.10776361997E+03  0.00000000000E+00 0. -1.
         25    1    1    2    0    0  0.00000000000E+00  0.00000000000E+00 -0.71515301657E+02  0.14401193829E+03  0.12500000000E+03 0.  0.
<mgrwt>
<rscale>  2 0.12500000E+03</rscale>
<asrwt>0</asrwt>
<pdfrwt beam="1">  1       21 0.55766644E-02 0.12500000E+03</pdfrwt>
<pdfrwt beam="2">  1       21 0.16579018E-01 0.12500000E+03</pdfrwt>
<totfact> 0.71519787E+06</totfact>
</mgrwt>
</event>
<event>
 3    0  0.1610466E+001  0.1250000E+03  0.7546771E-02  0.1235069E+00
         21   -1    0    0  502  501  0.00000000000E+00  0.00000000000E+00  0.13600312736E+02  0.13600312736E+02  0.00000000000E+00 0.  1.
         21   -1    0    0  501  502 -0.00000000000E+00 -0.00000000000E+00 -0.28721766006E+03  0.28721766006E+03  0.00000000000E+00 0.  1.
         25    1    1    2    0    0  0.00000000000E+00  0.00000000000E+00 -0.27361734732E+03  0.30081797279E+03  0.12500000000E+03 0.  0.
<mgrwt>
<rscale>  2 0.12500000E+03</rscale>
<asrwt>0</asrwt>
<pdfrwt beam="1">  1       21 0.20923558E-02 0.12500000E+03</pdfrwt>
<pdfrwt beam="2">  1       21 0.44187333E-01 0.12500000E+03</pdfrwt>
<totfact> 0.55388265E+06</totfact>
</mgrwt>
</event>
<event>
 3    0  0.1728781E+001  0.1250000E+03  0.7546771E-02  0.1235069E+00
         21   -1    0    0  502  501  0.00000000000E+00  0.00000000000E+00  0.56280664310E+02  0.56280664310E+02  0.00000000000E+00 0.  1.
         21   -1    0    0  501  502 -0.00000000000E+00 -0.00000000000E+00 -0.69406607898E+02  0.69406607898E+02  0.00000000000E+00 0.  1.
         25    1    1    2    0    0  0.00000000000E+00  0.00000000000E+00 -0.13125943588E+02  0.12568727221E+03  0.12500000000E+03 0.  0.
<mgrwt>
<rscale>  2 0.12500000E+03</rscale>
<asrwt>0</asrwt>
<pdfrwt beam="1">  1       21 0.86585638E-02 0.12500000E+03</pdfrwt>
<pdfrwt beam="2">  1       21 0.10677940E-01 0.12500000E+03</pdfrwt>
<totfact> 0.73949305E+06</totfact>
</mgrwt>
</event>
<event>
 3    0  0.1589545E+001  0.1250000E+03  0.7546771E-02  0.1235069E+00
         21   -1    0    0  502  501  0.00000000000E+00  0.00000000000E+00  0.24945167654E+03  0.24945167654E+03  0.00000000000E+00 0. -1.
         21   -1    0    0  501  502 -0.00000000000E+00 -0.00000000000E+00 -0.15659345546E+02  0.15659345546E+02  0.00000000000E+00 0. -1.
         25    1    1    2    0    0  0.00000000000E+00  0.00000000000E+00  0.23379233100E+03  0.26511102209E+03  0.12500000000E+03 0.  0.
<mgrwt>
<rscale>  2 0.12500000E+03</rscale>
<asrwt>0</asrwt>
<pdfrwt beam="1">  1       21 0.38377178E-01 0.12500000E+03</pdfrwt>
<pdfrwt beam="2">  1       21 0.24091303E-02 0.12500000E+03</pdfrwt>
<totfact> 0.58483965E+06</totfact>
</mgrwt>
</event>
<event>
 3    0  0.1416433E+001  0.1250000E+03  0.7546771E-02  0.1235069E+00
         21   -1    0    0  502  501  0.00000000000E+00  0.00000000000E+00  0.54868437074E+03  0.54868437074E+03  0.00000000000E+00 0. -1.
         21   -1    0    0  501  502 -0.00000000000E+00 -0.00000000000E+00 -0.71193024775E+01  0.71193024775E+01  0.00000000000E+00 0. -1.
         25    1    1    2    0    0  0.00000000000E+00  0.00000000000E+00  0.54156506826E+03  0.55580367322E+03  0.12500000000E+03 0.  0.
<mgrwt>
<rscale>  2 0.12500000E+03</rscale>
<asrwt>0</asrwt>
<pdfrwt beam="1">  1       21 0.84412947E-01 0.12500000E+03</pdfrwt>
<pdfrwt beam="2">  1       21 0.10952777E-02 0.12500000E+03</pdfrwt>
<totfact> 0.39170822E+06</totfact>
</mgrwt>
</event>
<event>
 3    0  0.1678360E+001  0.1250000E+03  0.7546771E-02  0.1235069E+00
         21   -1    0    0  502  501  0.00000000000E+00  0.00000000000E+00  0.13131865311E+03  0.13131865311E+03  0.00000000000E+00 0. -1.
         21   -1    0    0  501  502 -0.00000000000E+00 -0.00000000000E+00 -0.29746345302E+02  0.29746345302E+02  0.00000000000E+00 0. -1.
         25    1    1    2    0    0  0.00000000000E+00  0.00000000000E+00  0.10157230781E+03  0.16106499841E+03  0.12500000000E+03 0.  0.
<mgrwt>
<rscale>  2 0.12500000E+03</rscale>
<asrwt>0</asrwt>
<pdfrwt beam="1">  1       21 0.20202869E-01 0.12500000E+03</pdfrwt>
<pdfrwt beam="2">  1       21 0.45763609E-02 0.12500000E+03</pdfrwt>
<totfact> 0.69389598E+06</totfact>
</mgrwt>
</event>
<event>
 3    0  0.1724750E+001  0.1250000E+03  0.7546771E-02  0.1235069E+00
         21   -1    0    0  502  501  0.00000000000E+00  0.00000000000E+00  0.43869869700E+02  0.43869869700E+02  0.00000000000E+00 0.  1.
         21   -1    0    0  501  502 -0.00000000000E+00 -0.00000000000E+00 -0.89041750676E+02  0.89041750676E+02  0.00000000000E+00 0.  1.
         25    1    1    2    0    0  0.00000000000E+00  0.00000000000E+00 -0.45171880977E+02  0.13291162038E+03  0.12500000000E+03 0.  0.
<mgrwt>
<rscale>  2 0.12500000E+03</rscale>
<asrwt>0</asrwt>
<pdfrwt beam="1">  1       21 0.67492108E-02 0.12500000E+03</pdfrwt>
<pdfrwt beam="2">  1       21 0.13698731E-01 0.12500000E+03</pdfrwt>
<totfact> 0.72974202E+06</totfact>
</mgrwt>
</event>
<event>
 3    0  0.1606586E+001  0.1250000E+03  0.7546771E-02  0.1235069E+00
         21   -1    0    0  502  501  0.00000000000E+00  0.00000000000E+00  0.16949650932E+02  0.16949650932E+02  0.00000000000E+00 0. -1.
         21   -1    0    0  501  502 -0.00000000000E+00 -0.00000000000E+00 -0.23046197327E+03  0.23046197327E+03  0.00000000000E+00 0. -1.
         25    1    1    2    0    0  0.00000000000E+00  0.00000000000E+00 -0.21351232234E+03  0.24741162420E+03  0.12500000000E+03 0.  0.
<mgrwt>
<rscale>  2 0.12500000E+03</rscale>
<asrwt>0</asrwt>
<pdfrwt beam="1">  1       21 0.26076387E-02 0.12500000E+03</pdfrwt>
<pdfrwt beam="2">  1       21 0.35455688E-01 0.12500000E+03</pdfrwt>
<totfact> 0.60122740E+06</totfact>
</mgrwt>
</event>
<event>
 3    0  0.1697352E+001  0.1250000E+03  0.7546771E-02  0.1235069E+00
         21   -1    0    0  502  501  0.00000000000E+00  0.00000000000E+00  0.87078706082E+02  0.87078706082E+02  0.00000000000E+00 0. -1.
         21   -1    0    0  501  502 -0.00000000000E+00 -0.00000000000E+00 -0.44858842945E+02  0.44858842945E+02  0.00000000000E+00 0. -1.
         25    1    1    2    0    0  0.00000000000E+00  0.00000000000E+00  0.42219863136E+02  0.13193754903E+03  0.12500000000E+03 0.  0.
<mgrwt>
<rscale>  2 0.12500000E+03</rscale>
<asrwt>0</asrwt>
<pdfrwt beam="1">  1       21 0.13396724E-01 0.12500000E+03</pdfrwt>
<pdfrwt beam="2">  1       21 0.69013605E-02 0.12500000E+03</pdfrwt>
<totfact> 0.73104607E+06</totfact>
</mgrwt>
</event>
<event>
 3    0  0.1430711E+001  0.1250000E+03  0.7546771E-02  0.1235069E+00
         21   -1    0    0  502  501  0.00000000000E+00  0.00000000000E+00  0.54056023837E+03  0.54056023837E+03  0.00000000000E+00 0. -1.
         21   -1    0    0  501  502 -0.00000000000E+00 -0.00000000000E+00 -0.72262991666E+01  0.72262991666E+01  0.00000000000E+00 0. -1.
         25    1    1    2    0    0  0.00000000000E+00  0.00000000000E+00  0.53333393920E+03  0.54778653753E+03  0.12500000000E+03 0.  0.
<mgrwt>
<rscale>  2 0.12500000E+03</rscale>
<asrwt>0</asrwt>
<pdfrwt beam="1">  1       21 0.83163082E-01 0.12500000E+03</pdfrwt>
<pdfrwt beam="2">  1       21 0.11117388E-02 0.12500000E+03</pdfrwt>
<totfact> 0.39565676E+06</totfact>
</mgrwt>
</event>
<event>
 3    0  0.1439758E+001  0.1250000E+03  0.7546771E-02  0.1235069E+00
         21   -1    0    0  502  501  0.00000000000E+00  0.00000000000E+00  0.73160694334E+01  0.73160694334E+01  0.00000000000E+00 0. -1.
         21   -1    0    0  501  502 -0.00000000000E+00 -0.00000000000E+00 -0.53392740946E+03  0.53392740946E+03  0.00000000000E+00 0. -1.
         25    1    1    2    0    0  0.00000000000E+00  0.00000000000E+00 -0.52661134002E+03  0.54124347889E+03  0.12500000000E+03 0.  0.
<mgrwt>
<rscale>  2 0.12500000E+03</rscale>
<asrwt>0</asrwt>
<pdfrwt beam="1">  1       21 0.11255485E-02 0.12500000E+03</pdfrwt>
<pdfrwt beam="2">  1       21 0.82142726E-01 0.12500000E+03</pdfrwt>
<totfact> 0.39892162E+06</totfact>
</mgrwt>
</event>
<event>
 3    0  0.1552842E+001  0.1250000E+03  0.7546771E-02  0.1235069E+00
         21   -1    0    0  502  501  0.00000000000E+00  0.00000000000E+00  0.10668997121E+02  0.10668997121E+02  0.00000000000E+00 0.  1.
         21   -1    0    0  501  502 -0.00000000000E+00 -0.00000000000E+00 -0.36613094519E+03  0.36613094519E+03  0.00000000000E+00 0.  1.
         25    1    1    2    0    0  0.00000000000E+00  0.00000000000E+00 -0.35546194807E+03  0.37679994231E+03  0.12500000000E+03 0.  0.
<mgrwt>
<rscale>  2 0.12500000E+03</rscale>
<asrwt>0</asrwt>
<pdfrwt beam="1">  1       21 0.16413841E-02 0.12500000E+03</pdfrwt>
<pdfrwt beam="2">  1       21 0.56327839E-01 0.12500000E+03</pdfrwt>
<totfact> 0.49618062E+06</totfact>
</mgrwt>
</event>
<event>
 3    0  0.1672310E+001  0.1250000E+03  0.7546771E-02  0.1235069E+00
         21   -1    0    0  502  501  0.00000000000E+00  0.00000000000E+00  0.26653940726E+02  0.26653940726E+02  0.00000000000E+00 0. -1.
         21   -1    0    0  501  502 -0.00000000000E+00 -0.00000000000E+00 -0.14655431406E+03  0.14655431406E+03  0.00000000000E+00 0. -1.
         25    1    1    2    0    0  0.00000000000E+00  0.00000000000E+00 -0.11990037333E+03  0.17320825478E+03  0.12500000000E+03 0.  0.
<mgrwt>
<rscale>  2 0.12500000E+03</rscale>
<asrwt>0</asrwt>
<pdfrwt beam="1">  1       21 0.41006062E-02 0.12500000E+03</pdfrwt>
<pdfrwt beam="2">  1       21 0.22546818E-01 0.12500000E+03</pdfrwt>
<totfact> 0.67939335E+06</totfact>
</mgrwt>
</event>
<event>
 3    0  0.1368989E+001  0.1250000E+03  0.7546771E-02  0.1235069E+00
         21   -1    0    0  502  501  0.00000000000E+00  0.00000000000E+00  0.30483178622E+01  0.30483178622E+01  0.00000000000E+00 0.  1.
         21   -1    0    0  501  502 -0.00000000000E+00 -0.00000000000E+00 -0.12814444479E+04  0.12814444479E+04  0.00000000000E+00 0.  1.
         25    1    1    2    0    0  0.00000000000E+00  0.00000000000E+00 -0.12783961301E+04  0.12844927658E+04  0.12500000000E+03 0.  0.
<mgrwt>
<rscale>  2 0.12500000E+03</rscale>
<asrwt>0</asrwt>
<pdfrwt beam="1">  1       21 0.46897182E-03 0.12500000E+03</pdfrwt>
<pdfrwt beam="2">  1       21 0.19714536E+00 0.12500000E+03</pdfrwt>
<totfact> 0.17533092E+06</totfact>
</mgrwt>
</event>
<event>
 3    0  0.1685247E+001  0.1250000E+03  0.7546771E-02  0.1235069E+00
         21   -1    0    0  502  501  0.00000000000E+00  0.00000000000E+00  0.10811397618E+03  0.10811397618E+03  0.00000000000E+00 0. -1.
         21   -1    0    0  501  502 -0.00000000000E+00 -0.00000000000E+00 -0.36130851329E+02  0.36130851329E+02  0.00000000000E+00 0. -1.
         25    1    1    2    0    0  0.00000000000E+00  0.00000000000E+00  0.71983124854E+02  0.14424482751E+03  0.12500000000E+03 0.  0.
<mgrwt>
<rscale>  2 0.12500000E+03</rscale>
<asrwt>0</asrwt>
<pdfrwt beam="1">  1       21 0.16632919E-01 0.12500000E+03</pdfrwt>
<pdfrwt beam="2">  1       21 0.55585926E-02 0.12500000E+03</pdfrwt>
<totfact> 0.71489883E+06</totfact>
</mgrwt>
</event>
<event>
 3    0  0.1701903E+001  0.1250000E+03  0.7546771E-02  0.1235069E+00
         21   -1    0    0  502  501  0.00000000000E+00  0.00000000000E+00  0.13162266111E+03  0.13162266111E+03  0.00000000000E+00 0.  1.
         21   -1    0    0  501  502 -0.00000000000E+00 -0.00000000000E+00 -0.29677640362E+02  0.29677640362E+02  0.00000000000E+00 0.  1.
         25    1    1    2    0    0  0.00000000000E+00  0.00000000000E+00  0.10194502075E+03  0.16130030147E+03  0.12500000000E+03 0.  0.
<mgrwt>
<rscale>  2 0.12500000E+03</rscale>
<asrwt>0</asrwt>
<pdfrwt beam="1">  1       21 0.20249640E-01 0.12500000E+03</pdfrwt>
<pdfrwt beam="2">  1       21 0.45657909E-02 0.12500000E+03</pdfrwt>
<totfact> 0.69360961E+06</totfact>
</mgrwt>
</event>
<event>
 3    0  0.1641363E+001  0.1250000E+03  0.7546771E-02  0.1235069E+00
         21   -1    0    0  502  501  0.00000000000E+00  0.00000000000E+00  0.21691210450E+03  0.21691210450E+03  0.00000000000E+00 0.  1.
         21   -1    0    0  501  502 -0.00000000000E+00 -0.00000000000E+00 -0.18008446366E+02  0.18008446366E+02  0.00000000000E+00 0.  1.
         25    1    1    2    0    0  0.00000000000E+00  0.00000000000E+00  0.19890365813E+03  0.23492055086E+03  0.12500000000E+03 0.  0.
<mgrwt>
<rscale>  2 0.12500000E+03</rscale>
<asrwt>0</asrwt>
<pdfrwt beam="1">  1       21 0.33371091E-01 0.12500000E+03</pdfrwt>
<pdfrwt beam="2">  1       21 0.27705304E-02 0.12500000E+03</pdfrwt>
<totfact> 0.61327682E+06</totfact>
</mgrwt>
</event>
<event>
 3    0  0.1590471E+001  0.1250000E+03  0.7546771E-02  0.1235069E+00
         21   -1    0    0  502  501  0.00000000000E+00  0.00000000000E+00  0.12436988321E+02  0.12436988321E+02  0.00000000000E+00 0.  1.
         21   -1    0    0  501  502 -0.00000000000E+00 -0.00000000000E+00 -0.31408327315E+03  0.31408327315E+03  0.00000000000E+00 0.  1.
         25    1    1    2    0    0  0.00000000000E+00  0.00000000000E+00 -0.30164628483E+03  0.32652026147E+03  0.12500000000E+03 0.  0.
<mgrwt>
<rscale>  2 0.12500000E+03</rscale>
<asrwt>0</asrwt>
<pdfrwt beam="1">  1       21 0.19133831E-02 0.12500000E+03</pdfrwt>
<pdfrwt beam="2">  1       21 0.48320497E-01 0.12500000E+03</pdfrwt>
<totfact> 0.53320660E+06</totfact>
</mgrwt>
</event>
<event>
 3    0  0.1568273E+001  0.1250000E+03  0.7546771E-02  0.1235069E+00
         21   -1    0    0  502  501  0.00000000000E+00  0.00000000000E+00  0.28087643873E+03  0.28087643873E+03  0.00000000000E+00 0. -1.
         21   -1    0    0  501  502 -0.00000000000E+00 -0.00000000000E+00 -0.13907360894E+02  0.13907360894E+02  0.00000000000E+00 0. -1.
         25    1    1    2    0    0  0.00000000000E+00  0.00000000000E+00  0.26696907784E+03  0.29478379962E+03  0.12500000000E+03 0.  0.
<mgrwt>
<rscale>  2 0.12500000E+03</rscale>
<asrwt>0</asrwt>
<pdfrwt beam="1">  1       21 0.43211756E-01 0.12500000E+03</pdfrwt>
<pdfrwt beam="2">  1       21 0.21395942E-02 0.12500000E+03</pdfrwt>
<totfact> 0.55892467E+06</totfact>
</mgrwt>
</event>
<event>
 3    0  0.1711600E+001  0.1250000E+03  0.7546771E-02  0.1235069E+00
         21   -1    0    0  502  501  0.00000000000E+00  0.00000000000E+00  0.11843863731E+03  0.11843863731E+03  0.00000000000E+00 0.  1.
         21   -1    0    0  501  502 -0.00000000000E+00 -0.00000000000E+00 -0.32981213637E+02  0.32981213637E+02  0.00000000000E+00 0.  1.
         25    1    1    2    0    0  0.00000000000E+00  0.00000000000E+00  0.85457423673E+02  0.15141985095E+03  0.12500000000E+03 0.  0.
<mgrwt>
<rscale>  2 0.12500000E+03</rscale>
<asrwt>0</asrwt>
<pdfrwt beam="1">  1       21 0.18221329E-01 0.12500000E+03</pdfrwt>
<pdfrwt beam="2">  1       21 0.50740329E-02 0.12500000E+03</pdfrwt>
<totfact> 0.70581295E+06</totfact>
</mgrwt>
</event>
<event>
 3    0  0.1368989E+001  0.1250000E+03  0.7546771E-02  0.1235069E+00
         21   -1    0    0  502  501  0.00000000000E+00  0.00000000000E+00  0.42247351513E+01  0.42247351513E+01  0.00000000000E+00 0.  1.
         21   -1    0    0  501  502 -0.00000000000E+00 -0.00000000000E+00 -0.92461417345E+03  0.92461417345E+03  0.00000000000E+00 0.  1.
         25    1    1    2    0    0  0.00000000000E+00  0.00000000000E+00 -0.92038943830E+03  0.92883890860E+03  0.12500000000E+03 0.  0.
<mgrwt>
<rscale>  2 0.12500000E+03</rscale>
<asrwt>0</asrwt>
<pdfrwt beam="1">  1       21 0.64995896E-03 0.12500000E+03</pdfrwt>
<pdfrwt beam="2">  1       21 0.14224840E+00 0.12500000E+03</pdfrwt>
<totfact> 0.25486640E+06</totfact>
</mgrwt>
</event>
<event>
 3    0  0.1719053E+001  0.1250000E+03  0.7546771E-02  0.1235069E+00
         21   -1    0    0  502  501  0.00000000000E+00  0.00000000000E+00  0.39013546780E+02  0.39013546780E+02  0.00000000000E+00 0.  1.
         21   -1    0    0  501  502 -0.00000000000E+00 -0.00000000000E+00 -0.10012547749E+03  0.10012547749E+03  0.00000000000E+00 0.  1.
         25    1    1    2    0    0  0.00000000000E+00  0.00000000000E+00 -0.61111930711E+02  0.13913902427E+03  0.12500000000E+03 0.  0.
<mgrwt>
<rscale>  2 0.12500000E+03</rscale>
<asrwt>0</asrwt>
<pdfrwt beam="1">  1       21 0.60020843E-02 0.12500000E+03</pdfrwt>
<pdfrwt beam="2">  1       21 0.15403919E-01 0.12500000E+03</pdfrwt>
<totfact> 0.72151907E+06</totfact>
</mgrwt>
</event>
<event>
 3    0  0.1685839E+001  0.1250000E+03  0.7546771E-02  0.1235069E+00
         21   -1    0    0  502  501  0.00000000000E+00  0.00000000000E+00  0.11908121806E+03  0.11908121806E+03  0.00000000000E+00 0. -1.
         21   -1    0    0  501  502 -0.00000000000E+00 -0.00000000000E+00 -0.32803241885E+02  0.32803241885E+02  0.00000000000E+00 0. -1.
         25    1    1    2    0    0  0.00000000000E+00  0.00000000000E+00  0.86277976174E+02  0.15188445994E+03  0.12500000000E+03 0.  0.
<mgrwt>
<rscale>  2 0.12500000E+03</rscale>
<asrwt>0</asrwt>
<pdfrwt beam="1">  1       21 0.18320187E-01 0.12500000E+03</pdfrwt>
<pdfrwt beam="2">  1       21 0.50466526E-02 0.12500000E+03</pdfrwt>
<totfact> 0.70523274E+06</totfact>
</mgrwt>
</event>
<event>
 3    0  0.1647452E+001  0.1250000E+03  0.7546771E-02  0.1235069E+00
         21   -1    0    0  502  501  0.00000000000E+00  0.00000000000E+00  0.16269754754E+03  0.16269754754E+03  0.00000000000E+00 0. -1.
         21   -1    0    0  501  502 -0.00000000000E+00 -0.00000000000E+00 -0.24009274012E+02  0.24009274012E+02  0.00000000000E+00 0. -1.
         25    1    1    2    0    0  0.00000000000E+00  0.00000000000E+00  0.13868827353E+03  0.18670682155E+03  0.12500000000E+03 0.  0.
<mgrwt>
<rscale>  2 0.12500000E+03</rscale>
<asrwt>0</asrwt>
<pdfrwt beam="1">  1       21 0.25030391E-01 0.12500000E+03</pdfrwt>
<pdfrwt beam="2">  1       21 0.36937346E-02 0.12500000E+03</pdfrwt>
<totfact> 0.66390355E+06</totfact>
</mgrwt>
</event>
<event>
 3    0  0.1692352E+001  0.1250000E+03  0.7546771E-02  0.1235069E+00
         21   -1    0    0  502  501  0.00000000000E+00  0.00000000000E+00  0.35106550685E+02  0.35106550685E+02  0.00000000000E+00 0. -1.
         21   -1    0    0  501  502 -0.00000000000E+00 -0.00000000000E+00 -0.11126840785E+03  0.11126840785E+03  0.00000000000E+00 0. -1.
         25    1    1    2    0    0  0.00000000000E+00  0.00000000000E+00 -0.76161857169E+02  0.14637495854E+03  0.12500000000E+03 0.  0.
<mgrwt>
<rscale>  2 0.12500000E+03</rscale>
<asrwt>0</asrwt>
<pdfrwt beam="1">  1       21 0.54010079E-02 0.12500000E+03</pdfrwt>
<pdfrwt beam="2">  1       21 0.17118216E-01 0.12500000E+03</pdfrwt>
<totfact> 0.71217600E+06</totfact>
</mgrwt>
</event>
<event>
 3    0  0.1526445E+001  0.1250000E+03  0.7546771E-02  0.1235069E+00
         21   -1    0    0  502  501  0.00000000000E+00  0.00000000000E+00  0.98645394525E+01  0.98645394525E+01  0.00000000000E+00 0.  1.
         21   -1    0    0  501  502 -0.00000000000E+00 -0.00000000000E+00 -0.39598908989E+03  0.39598908989E+03  0.00000000000E+00 0.  1.
         25    1    1    2    0    0  0.00000000000E+00  0.00000000000E+00 -0.38612455044E+03  0.40585362934E+03  0.12500000000E+03 0.  0.
<mgrwt>
<rscale>  2 0.12500000E+03</rscale>
<asrwt>0</asrwt>
<pdfrwt beam="1">  1       21 0.15176215E-02 0.12500000E+03</pdfrwt>
<pdfrwt beam="2">  1       21 0.60921398E-01 0.12500000E+03</pdfrwt>
<totfact> 0.47655495E+06</totfact>
</mgrwt>
</event>
<event>
 3    0  0.1626159E+001  0.1250000E+03  0.7546771E-02  0.1235069E+00
         21   -1    0    0  502  501  0.00000000000E+00  0.00000000000E+00  0.20478505175E+03  0.20478505175E+03  0.00000000000E+00 0. -1.
         21   -1    0    0  501  502 -0.00000000000E+00 -0.00000000000E+00 -0.19074878594E+02  0.19074878594E+02  0.00000000000E+00 0. -1.
         25    1    1    2    0    0  0.00000000000E+00  0.00000000000E+00  0.18571017316E+03  0.22385993034E+03  0.12500000000E+03 0.  0.
<mgrwt>
<rscale>  2 0.12500000E+03</rscale>
<asrwt>0</asrwt>
<pdfrwt beam="1">  1       21 0.31505391E-01 0.12500000E+03</pdfrwt>
<pdfrwt beam="2">  1       21 0.29345968E-02 0.12500000E+03</pdfrwt>
<totfact> 0.62430165E+06</totfact>
</mgrwt>
</event>
<event>
 3    0  0.1494509E+001  0.1250000E+03  0.7546771E-02  0.1235069E+00
         21   -1    0    0  502  501  0.00000000000E+00  0.00000000000E+00  0.42078015888E+03  0.42078015888E+03  0.00000000000E+00 0. -1.
         21   -1    0    0  501  502 -0.00000000000E+00 -0.00000000000E+00 -0.92833512169E+01  0.92833512169E+01  0.00000000000E+00 0. -1.
         25    1    1    2    0    0  0.00000000000E+00  0.00000000000E+00  0.41149680767E+03  0.43006351010E+03  0.12500000000E+03 0.  0.
<mgrwt>
<rscale>  2 0.12500000E+03</rscale>
<asrwt>0</asrwt>
<pdfrwt beam="1">  1       21 0.64735394E-01 0.12500000E+03</pdfrwt>
<pdfrwt beam="2">  1       21 0.14282082E-02 0.12500000E+03</pdfrwt>
<totfact> 0.46109173E+06</totfact>
</mgrwt>
</event>
<event>
 3    0  0.1668979E+001  0.1250000E+03  0.7546771E-02  0.1235069E+00
         21   -1    0    0  502  501  0.00000000000E+00  0.00000000000E+00  0.17950684526E+03  0.17950684526E+03  0.00000000000E+00 0.  1.
         21   -1    0    0  501  502 -0.00000000000E+00 -0.00000000000E+00 -0.21761008580E+02  0.21761008580E+02  0.00000000000E+00 0.  1.
         25    1    1    2    0    0  0.00000000000E+00  0.00000000000E+00  0.15774583668E+03  0.20126785384E+03  0.12500000000E+03 0.  0.
<mgrwt>
<rscale>  2 0.12500000E+03</rscale>
<asrwt>0</asrwt>
<pdfrwt beam="1">  1       21 0.27616437E-01 0.12500000E+03</pdfrwt>
<pdfrwt beam="2">  1       21 0.33478476E-02 0.12500000E+03</pdfrwt>
<totfact> 0.64790131E+06</totfact>
</mgrwt>
</event>
<event>
 3    0  0.1726993E+001  0.1250000E+03  0.7546771E-02  0.1235069E+00
         21   -1    0    0  502  501  0.00000000000E+00  0.00000000000E+00  0.48416171523E+02  0.48416171523E+02  0.00000000000E+00 0.  1.
         21   -1    0    0  501  502 -0.00000000000E+00 -0.00000000000E+00 -0.80680687404E+02  0.80680687404E+02  0.00000000000E+00 0.  1.
         25    1    1    2    0    0  0.00000000000E+00  0.00000000000E+00 -0.32264515881E+02  0.12909685893E+03  0.12500000000E+03 0.  0.
<mgrwt>
<rscale>  2 0.12500000E+03</rscale>
<asrwt>0</asrwt>
<pdfrwt beam="1">  1       21 0.74486417E-02 0.12500000E+03</pdfrwt>
<pdfrwt beam="2">  1       21 0.12412414E-01 0.12500000E+03</pdfrwt>
<totfact> 0.73485876E+06</totfact>
</mgrwt>
</event>
<event>
 3    0  0.1368989E+001  0.1250000E+03  0.7546771E-02  0.1235069E+00
         21   -1    0    0  502  501  0.00000000000E+00  0.00000000000E+00  0.40688266958E+01  0.40688266958E+01  0.00000000000E+00 0. -1.
         21   -1    0    0  501  502 -0.00000000000E+00 -0.00000000000E+00 -0.96004334714E+03  0.96004334714E+03  0.00000000000E+00 0. -1.
         25    1    1    2    0    0  0.00000000000E+00  0.00000000000E+00 -0.95597452045E+03  0.96411217384E+03  0.12500000000E+03 0.  0.
<mgrwt>
<rscale>  2 0.12500000E+03</rscale>
<asrwt>0</asrwt>
<pdfrwt beam="1">  1       21 0.62597261E-03 0.12500000E+03</pdfrwt>
<pdfrwt beam="2">  1       21 0.14769915E+00 0.12500000E+03</pdfrwt>
<totfact> 0.24537309E+06</totfact>
</mgrwt>
</event>
<event>
 3    0  0.1615780E+001  0.1250000E+03  0.7546771E-02  0.1235069E+00
         21   -1    0    0  502  501  0.00000000000E+00  0.00000000000E+00  0.27008156121E+03  0.27008156121E+03  0.00000000000E+00 0.  1.
         21   -1    0    0  501  502 -0.00000000000E+00 -0.00000000000E+00 -0.14463223563E+02  0.14463223563E+02  0.00000000000E+00 0.  1.
         25    1    1    2    0    0  0.00000000000E+00  0.00000000000E+00  0.25561833764E+03  0.28454478477E+03  0.12500000000E+03 0.  0.
<mgrwt>
<rscale>  2 0.12500000E+03</rscale>
<asrwt>0</asrwt>
<pdfrwt beam="1">  1       21 0.41551006E-01 0.12500000E+03</pdfrwt>
<pdfrwt beam="2">  1       21 0.22251115E-02 0.12500000E+03</pdfrwt>
<totfact> 0.56765530E+06</totfact>
</mgrwt>
</event>
<event>
 3    0  0.1704691E+001  0.1250000E+03  0.7546771E-02  0.1235069E+00
         21   -1    0    0  502  501  0.00000000000E+00  0.00000000000E+00  0.57910946393E+02  0.57910946393E+02  0.00000000000E+00 0. -1.
         21   -1    0    0  501  502 -0.00000000000E+00 -0.00000000000E+00 -0.67452705288E+02  0.67452705288E+02  0.00000000000E+00 0. -1.
         25    1    1    2    0    0  0.00000000000E+00  0.00000000000E+00 -0.95417588941E+01  0.12536365168E+03  0.12500000000E+03 0.  0.
<mgrwt>
<rscale>  2 0.12500000E+03</rscale>
<asrwt>0</asrwt>
<pdfrwt beam="1">  1       21 0.89093764E-02 0.12500000E+03</pdfrwt>
<pdfrwt beam="2">  1       21 0.10377339E-01 0.12500000E+03</pdfrwt>
<totfact> 0.73994480E+06</totfact>
</mgrwt>
</event>
<event>
 3    0  0.1632397E+001  0.1250000E+03  0.7546771E-02  0.1235069E+00
         21   -1    0    0  502  501  0.00000000000E+00  0.00000000000E+00  0.21087545626E+03  0.21087545626E+03  0.00000000000E+00 0. -1.
         21   -1    0    0  501  502 -0.00000000000E+00 -0.00000000000E+00 -0.18523967034E+02  0.18523967034E+02  0.00000000000E+00 0. -1.
         25    1    1    2    0    0  0.00000000000E+00  0.00000000000E+00  0.19235148922E+03  0.22939942329E+03  0.12500000000E+03 0.  0.
<mgrwt>
<rscale>  2 0.12500000E+03</rscale>
<asrwt>0</asrwt>
<pdfrwt beam="1">  1       21 0.32442376E-01 0.12500000E+03</pdfrwt>
<pdfrwt beam="2">  1       21 0.28498412E-02 0.12500000E+03</pdfrwt>
<totfact> 0.61873799E+06</totfact>
</mgrwt>
</event>
<event>
 3    0  0.1681955E+001  0.1250000E+03  0.7546771E-02  0.1235069E+00
         21   -1    0    0  502  501  0.00000000000E+00  0.00000000000E+00  0.27987743801E+02  0.27987743801E+02  0.00000000000E+00 0. -1.
         21   -1    0    0  501  502 -0.00000000000E+00 -0.00000000000E+00 -0.13957002136E+03  0.13957002136E+03  0.00000000000E+00 0. -1.
         25    1    1    2    0    0  0.00000000000E+00  0.00000000000E+00 -0.11158227756E+03  0.16755776516E+03  0.12500000000E+03 0.  0.
<mgrwt>
<rscale>  2 0.12500000E+03</rscale>
<asrwt>0</asrwt>
<pdfrwt beam="1">  1       21 0.43058067E-02 0.12500000E+03</pdfrwt>
<pdfrwt beam="2">  1       21 0.21472311E-01 0.12500000E+03</pdfrwt>
<totfact> 0.68607608E+06</totfact>
</mgrwt>
</event>
<event>
 3    0  0.1688899E+001  0.1250000E+03  0.7546771E-02  0.1235069E+00
         21   -1    0    0  502  501  0.00000000000E+00  0.00000000000E+00  0.28446358514E+02  0.28446358514E+02  0.00000000000E+00 0.  1.
         21   -1    0    0  501  502 -0.00000000000E+00 -0.00000000000E+00 -0.13731986110E+03  0.13731986110E+03  0.00000000000E+00 0.  1.
         25    1    1    2    0    0  0.00000000000E+00  0.00000000000E+00 -0.10887350259E+03  0.16576621962E+03  0.12500000000E+03 0.  0.
<mgrwt>
<rscale>  2 0.12500000E+03</rscale>
<asrwt>0</asrwt>
<pdfrwt beam="1">  1       21 0.43763628E-02 0.12500000E+03</pdfrwt>
<pdfrwt beam="2">  1       21 0.21126133E-01 0.12500000E+03</pdfrwt>
<totfact> 0.68821700E+06</totfact>
</mgrwt>
</event>
<event>
 3    0  0.1588940E+001  0.1250000E+03  0.7546771E-02  0.1235069E+00
         21   -1    0    0  502  501  0.00000000000E+00  0.00000000000E+00  0.13850742696E+02  0.13850742696E+02  0.00000000000E+00 0.  1.
         21   -1    0    0  501  502 -0.00000000000E+00 -0.00000000000E+00 -0.28202458784E+03  0.28202458784E+03  0.00000000000E+00 0.  1.
         25    1    1    2    0    0  0.00000000000E+00  0.00000000000E+00 -0.26817384514E+03  0.29587533053E+03  0.12500000000E+03 0.  0.
<mgrwt>
<rscale>  2 0.12500000E+03</rscale>
<asrwt>0</asrwt>
<pdfrwt beam="1">  1       21 0.21308837E-02 0.12500000E+03</pdfrwt>
<pdfrwt beam="2">  1       21 0.43388394E-01 0.12500000E+03</pdfrwt>
<totfact> 0.55800703E+06</totfact>
</mgrwt>
</event>
<event>
 3    0  0.1721807E+001  0.1250000E+03  0.7546771E-02  0.1235069E+00
         21   -1    0    0  502  501  0.00000000000E+00  0.00000000000E+00  0.42997579056E+02  0.42997579056E+02  0.00000000000E+00 0.  1.
         21   -1    0    0  501  502 -0.00000000000E+00 -0.00000000000E+00 -0.90848138099E+02  0.90848138099E+02  0.00000000000E+00 0.  1.
         25    1    1    2    0    0  0.00000000000E+00  0.00000000000E+00 -0.47850559043E+02  0.13384571716E+03  0.12500000000E+03 0.  0.
<mgrwt>
<rscale>  2 0.12500000E+03</rscale>
<asrwt>0</asrwt>
<pdfrwt beam="1">  1       21 0.66150122E-02 0.12500000E+03</pdfrwt>
<pdfrwt beam="2">  1       21 0.13976637E-01 0.12500000E+03</pdfrwt>
<totfact> 0.72849673E+06</totfact>
</mgrwt>
</event>
<event>
 3    0  0.1704814E+001  0.1250000E+03  0.7546771E-02  0.1235069E+00
         21   -1    0    0  502  501  0.00000000000E+00  0.00000000000E+00  0.66453644140E+02  0.66453644140E+02  0.00000000000E+00 0. -1.
         21   -1    0    0  501  502 -0.00000000000E+00 -0.00000000000E+00 -0.58781577000E+02  0.58781577000E+02  0.00000000000E+00 0. -1.
         25    1    1    2    0    0  0.00000000000E+00  0.00000000000E+00  0.76720671399E+01  0.12523522114E+03  0.12500000000E+03 0.  0.
<mgrwt>
<rscale>  2 0.12500000E+03</rscale>
<asrwt>0</asrwt>
<pdfrwt beam="1">  1       21 0.10223638E-01 0.12500000E+03</pdfrwt>
<pdfrwt beam="2">  1       21 0.90433196E-02 0.12500000E+03</pdfrwt>
<totfact> 0.74011817E+06</totfact>
</mgrwt>
</event>
<event>
 3    0  0.1677167E+001  0.1250000E+03  0.7546771E-02  0.1235069E+00
         21   -1    0    0  502  501  0.00000000000E+00  0.00000000000E+00  0.27582956135E+02  0.27582956135E+02  0.00000000000E+00 0. -1.
         21   -1    0    0  501  502 -0.00000000000E+00 -0.00000000000E+00 -0.14161825081E+03  0.14161825081E+03  0.00000000000E+00 0. -1.
         25    1    1    2    0    0  0.00000000000E+00  0.00000000000E+00 -0.11403529467E+03  0.16920120694E+03  0.12500000000E+03 0.  0.
<mgrwt>
<rscale>  2 0.12500000E+03</rscale>
<asrwt>0</asrwt>
<pdfrwt beam="1">  1       21 0.42435317E-02 0.12500000E+03</pdfrwt>
<pdfrwt beam="2">  1       21 0.21787423E-01 0.12500000E+03</pdfrwt>
<totfact> 0.68412319E+06</totfact>
</mgrwt>
</event>
<event>
 3    0  0.1368989E+001  0.1250000E+03  0.7546771E-02  0.1235069E+00
         21   -1    0    0  502  501  0.00000000000E+00  0.00000000000E+00  0.13313888148E+04  0.13313888148E+04  0.00000000000E+00 0. -1.
         21   -1    0    0  501  502 -0.00000000000E+00 -0.00000000000E+00 -0.29339663640E+01  0.29339663640E+01  0.00000000000E+00 0. -1.
         25    1    1    2    0    0  0.00000000000E+00  0.00000000000E+00  0.13284548484E+04  0.13343227812E+04  0.12500000000E+03 0.  0.
<mgrwt>
<rscale>  2 0.12500000E+03</rscale>
<asrwt>0</asrwt>
<pdfrwt beam="1">  1       21 0.20482857E+00 0.12500000E+03</pdfrwt>
<pdfrwt beam="2">  1       21 0.45138050E-03 0.12500000E+03</pdfrwt>
<totfact> 0.16647169E+06</totfact>
</mgrwt>
</event>
<event>
 3    0  0.1710930E+001  0.1250000E+03  0.7546771E-02  0.1235069E+00
         21   -1    0    0  502  501  0.00000000000E+00  0.00000000000E+00  0.11874479112E+03  0.11874479112E+03  0.00000000000E+00 0.  1.
         21   -1    0    0  501  502 -0.00000000000E+00 -0.00000000000E+00 -0.32896179808E+02  0.32896179808E+02  0.00000000000E+00 0.  1.
         25    1    1    2    0    0  0.00000000000E+00  0.00000000000E+00  0.85848611313E+02  0.15164097093E+03  0.12500000000E+03 0.  0.
<mgrwt>
<rscale>  2 0.12500000E+03</rscale>
<asrwt>0</asrwt>
<pdfrwt beam="1">  1       21 0.18268429E-01 0.12500000E+03</pdfrwt>
<pdfrwt beam="2">  1       21 0.50609508E-02 0.12500000E+03</pdfrwt>
<totfact> 0.70553669E+06</totfact>
</mgrwt>
</event>
<event>
 3    0  0.1672636E+001  0.1250000E+03  0.7546771E-02  0.1235069E+00
         21   -1    0    0  502  501  0.00000000000E+00  0.00000000000E+00  0.18553186183E+03  0.18553186183E+03  0.00000000000E+00 0.  1.
         21   -1    0    0  501  502 -0.00000000000E+00 -0.00000000000E+00 -0.21054335150E+02  0.21054335150E+02  0.00000000000E+00 0.  1.
         25    1    1    2    0    0  0.00000000000E+00  0.00000000000E+00  0.16447752668E+03  0.20658619698E+03  0.12500000000E+03 0.  0.
<mgrwt>
<rscale>  2 0.12500000E+03</rscale>
<asrwt>0</asrwt>
<pdfrwt beam="1">  1       21 0.28543362E-01 0.12500000E+03</pdfrwt>
<pdfrwt beam="2">  1       21 0.32391286E-02 0.12500000E+03</pdfrwt>
<totfact> 0.64220507E+06</totfact>
</mgrwt>
</event>
<event>
 3    0  0.1368989E+001  0.1250000E+03  0.7546771E-02  0.1235069E+00
         21   -1    0    0  502  501  0.00000000000E+00  0.00000000000E+00  0.17134451786E+01  0.17134451786E+01  0.00000000000E+00 0.  1.
         21   -1    0    0  501  502 -0.00000000000E+00 -0.00000000000E+00 -0.22797636300E+04  0.22797636300E+04  0.00000000000E+00 0.  1.
         25    1    1    2    0    0  0.00000000000E+00  0.00000000000E+00 -0.22780501848E+04  0.22814770751E+04  0.12500000000E+03 0.  0.
<mgrwt>
<rscale>  2 0.12500000E+03</rscale>
<asrwt>0</asrwt>
<pdfrwt beam="1">  1       21 0.26360679E-03 0.12500000E+03</pdfrwt>
<pdfrwt beam="2">  1       21 0.35073308E+00 0.12500000E+03</pdfrwt>
<totfact> 0.55144756E+05</totfact>
</mgrwt>
</event>
<event>
 3    0  0.1525965E+001  0.1250000E+03  0.7546771E-02  0.1235069E+00
         21   -1    0    0  502  501  0.00000000000E+00  0.00000000000E+00  0.93882146779E+01  0.93882146779E+01  0.00000000000E+00 0.  1.
         21   -1    0    0  501  502 -0.00000000000E+00 -0.00000000000E+00 -0.41608017435E+03  0.41608017435E+03  0.00000000000E+00 0.  1.
         25    1    1    2    0    0  0.00000000000E+00  0.00000000000E+00 -0.40669195967E+03  0.42546838903E+03  0.12500000000E+03 0.  0.
<mgrwt>
<rscale>  2 0.12500000E+03</rscale>
<asrwt>0</asrwt>
<pdfrwt beam="1">  1       21 0.14443401E-02 0.12500000E+03</pdfrwt>
<pdfrwt beam="2">  1       21 0.64012363E-01 0.12500000E+03</pdfrwt>
<totfact> 0.46396687E+06</totfact>
</mgrwt>
</event>
<event>
 3    0  0.1553792E+001  0.1250000E+03  0.7546771E-02  0.1235069E+00
         21   -1    0    0  502  501  0.00000000000E+00  0.00000000000E+00  0.38188202068E+03  0.38188202068E+03  0.00000000000E+00 0.  1.
         21   -1    0    0  501  502 -0.00000000000E+00 -0.00000000000E+00 -0.10228944513E+02  0.10228944513E+02  0.00000000000E+00 0.  1.
         25    1    1    2    0    0  0.00000000000E+00  0.00000000000E+00  0.37165307616E+03  0.39211096519E+03  0.12500000000E+03 0.  0.
<mgrwt>
<rscale>  2 0.12500000E+03</rscale>
<asrwt>0</asrwt>
<pdfrwt beam="1">  1       21 0.58751069E-01 0.12500000E+03</pdfrwt>
<pdfrwt beam="2">  1       21 0.15736841E-02 0.12500000E+03</pdfrwt>
<totfact> 0.48569066E+06</totfact>
</mgrwt>
</event>
<event>
 3    0  0.1699135E+001  0.1250000E+03  0.7546771E-02  0.1235069E+00
         21   -1    0    0  502  501  0.00000000000E+00  0.00000000000E+00  0.41293451473E+02  0.41293451473E+02  0.00000000000E+00 0. -1.
         21   -1    0    0  501  502 -0.00000000000E+00 -0.00000000000E+00 -0.94597323806E+02  0.94597323806E+02  0.00000000000E+00 0. -1.
         25    1    1    2    0    0  0.00000000000E+00  0.00000000000E+00 -0.53303872333E+02  0.13589077528E+03  0.12500000000E+03 0.  0.
<mgrwt>
<rscale>  2 0.12500000E+03</rscale>
<asrwt>0</asrwt>
<pdfrwt beam="1">  1       21 0.63528387E-02 0.12500000E+03</pdfrwt>
<pdfrwt beam="2">  1       21 0.14553434E-01 0.12500000E+03</pdfrwt>
<totfact> 0.72578742E+06</totfact>
</mgrwt>
</event>
<event>
 3    0  0.1593298E+001  0.1250000E+03  0.7546771E-02  0.1235069E+00
         21   -1    0    0  502  501  0.00000000000E+00  0.00000000000E+00  0.15738526056E+02  0.15738526056E+02  0.00000000000E+00 0. -1.
         21   -1    0    0  501  502 -0.00000000000E+00 -0.00000000000E+00 -0.24819668538E+03  0.24819668538E+03  0.00000000000E+00 0. -1.
         25    1    1    2    0    0  0.00000000000E+00  0.00000000000E+00 -0.23245815933E+03  0.26393521144E+03  0.12500000000E+03 0.  0.
<mgrwt>
<rscale>  2 0.12500000E+03</rscale>
<asrwt>0</asrwt>
<pdfrwt beam="1">  1       21 0.24213117E-02 0.12500000E+03</pdfrwt>
<pdfrwt beam="2">  1       21 0.38184106E-01 0.12500000E+03</pdfrwt>
<totfact> 0.58590455E+06</totfact>
</mgrwt>
</event>
<event>
 3    0  0.1661856E+001  0.1250000E+03  0.7546771E-02  0.1235069E+00
         21   -1    0    0  502  501  0.00000000000E+00  0.00000000000E+00  0.20557315562E+02  0.20557315562E+02  0.00000000000E+00 0.  1.
         21   -1    0    0  501  502 -0.00000000000E+00 -0.00000000000E+00 -0.19001751412E+03  0.19001751412E+03  0.00000000000E+00 0.  1.
         25    1    1    2    0    0  0.00000000000E+00  0.00000000000E+00 -0.16946019856E+03  0.21057482968E+03  0.12500000000E+03 0.  0.
<mgrwt>
<rscale>  2 0.12500000E+03</rscale>
<asrwt>0</asrwt>
<pdfrwt beam="1">  1       21 0.31626640E-02 0.12500000E+03</pdfrwt>
<pdfrwt beam="2">  1       21 0.29233463E-01 0.12500000E+03</pdfrwt>
<totfact> 0.63799108E+06</totfact>
</mgrwt>
</event>
<event>
 3    0  0.1368989E+001  0.1250000E+03  0.7546771E-02  0.1235069E+00
         21   -1    0    0  502  501  0.00000000000E+00  0.00000000000E+00  0.88011195596E+03  0.88011195596E+03  0.00000000000E+00 0.  1.
         21   -1    0    0  501  502 -0.00000000000E+00 -0.00000000000E+00 -0.44383557950E+01  0.44383557950E+01  0.00000000000E+00 0.  1.
         25    1    1    2    0    0  0.00000000000E+00  0.00000000000E+00  0.87567360016E+03  0.88455031175E+03  0.12500000000E+03 0.  0.
<mgrwt>
<rscale>  2 0.12500000E+03</rscale>
<asrwt>0</asrwt>
<pdfrwt beam="1">  1       21 0.13540170E+00 0.12500000E+03</pdfrwt>
<pdfrwt beam="2">  1       21 0.68282467E-03 0.12500000E+03</pdfrwt>
<totfact> 0.26744435E+06</totfact>
</mgrwt>
</event>
<event>
 3    0  0.1368989E+001  0.1250000E+03  0.7546771E-02  0.1235069E+00
         21   -1    0    0  502  501  0.00000000000E+00  0.00000000000E+00  0.49563477988E+01  0.49563477988E+01  0.00000000000E+00 0. -1.
         21   -1    0    0  501  502 -0.00000000000E+00 -0.00000000000E+00 -0.78813072823E+03  0.78813072823E+03  0.00000000000E+00 0. -1.
         25    1    1    2    0    0  0.00000000000E+00  0.00000000000E+00 -0.78317438043E+03  0.79308707602E+03  0.12500000000E+03 0.  0.
<mgrwt>
<rscale>  2 0.12500000E+03</rscale>
<asrwt>0</asrwt>
<pdfrwt beam="1">  1       21 0.76251557E-03 0.12500000E+03</pdfrwt>
<pdfrwt beam="2">  1       21 0.12125080E+00 0.12500000E+03</pdfrwt>
<totfact> 0.29593162E+06</totfact>
</mgrwt>
</event>
<event>
 3    0  0.1695570E+001  0.1250000E+03  0.7546771E-02  0.1235069E+00
         21   -1    0    0  502  501  0.00000000000E+00  0.00000000000E+00  0.88244079957E+02  0.88244079957E+02  0.00000000000E+00 0. -1.
         21   -1    0    0  501  502 -0.00000000000E+00 -0.00000000000E+00 -0.44266425599E+02  0.44266425599E+02  0.00000000000E+00 0. -1.
         25    1    1    2    0    0  0.00000000000E+00  0.00000000000E+00  0.43977654358E+02  0.13251050556E+03  0.12500000000E+03 0.  0.
<mgrwt>
<rscale>  2 0.12500000E+03</rscale>
<asrwt>0</asrwt>
<pdfrwt beam="1">  1       21 0.13576012E-01 0.12500000E+03</pdfrwt>
<pdfrwt beam="2">  1       21 0.68102193E-02 0.12500000E+03</pdfrwt>
<totfact> 0.73027833E+06</totfact>
</mgrwt>
</event>
<event>
 3    0  0.1654856E+001  0.1250000E+03  0.7546771E-02  0.1235069E+00
         21   -1    0    0  502  501  0.00000000000E+00  0.00000000000E+00  0.20250999623E+02  0.20250999623E+02  0.00000000000E+00 0.  1.
         21   -1    0    0  501  502 -0.00000000000E+00 -0.00000000000E+00 -0.19289171264E+03  0.19289171264E+03  0.00000000000E+00 0.  1.
         25    1    1    2    0    0  0.00000000000E+00  0.00000000000E+00 -0.17264071302E+03  0.21314271226E+03  0.12500000000E+03 0.  0.
<mgrwt>
<rscale>  2 0.12500000E+03</rscale>
<asrwt>0</asrwt>
<pdfrwt beam="1">  1       21 0.31155384E-02 0.12500000E+03</pdfrwt>
<pdfrwt beam="2">  1       21 0.29675648E-01 0.12500000E+03</pdfrwt>
<totfact> 0.63530396E+06</totfact>
</mgrwt>
</event>
<event>
 3    0  0.1704579E+001  0.1250000E+03  0.7546771E-02  0.1235069E+00
         21   -1    0    0  502  501  0.00000000000E+00  0.00000000000E+00  0.68099503545E+02  0.68099503545E+02  0.00000000000E+00 0. -1.
         21   -1    0    0  501  502 -0.00000000000E+00 -0.00000000000E+00 -0.57360917432E+02  0.57360917432E+02  0.00000000000E+00 0. -1.
         25    1    1    2    0    0  0.00000000000E+00  0.00000000000E+00  0.10738586113E+02  0.12546042098E+03  0.12500000000E+03 0.  0.
<mgrwt>
<rscale>  2 0.12500000E+03</rscale>
<asrwt>0</asrwt>
<pdfrwt beam="1">  1       21 0.10476847E-01 0.12500000E+03</pdfrwt>
<pdfrwt beam="2">  1       21 0.88247565E-02 0.12500000E+03</pdfrwt>
<totfact> 0.73980935E+06</totfact>
</mgrwt>
</event>
<event>
 3    0  0.1501317E+001  0.1250000E+03  0.7546771E-02  0.1235069E+00
         21   -1    0    0  502  501  0.00000000000E+00  0.00000000000E+00  0.87893424650E+01  0.87893424650E+01  0.00000000000E+00 0. -1.
         21   -1    0    0  501  502 -0.00000000000E+00 -0.00000000000E+00 -0.44443028765E+03  0.44443028765E+03  0.00000000000E+00 0. -1.
         25    1    1    2    0    0  0.00000000000E+00  0.00000000000E+00 -0.43564094519E+03  0.45321963012E+03  0.12500000000E+03 0.  0.
<mgrwt>
<rscale>  2 0.12500000E+03</rscale>
<asrwt>0</asrwt>
<pdfrwt beam="1">  1       21 0.13522063E-02 0.12500000E+03</pdfrwt>
<pdfrwt beam="2">  1       21 0.68373904E-01 0.12500000E+03</pdfrwt>
<totfact> 0.44700233E+06</totfact>
</mgrwt>
</event>
<event>
 3    0  0.1670483E+001  0.1250000E+03  0.7546771E-02  0.1235069E+00
         21   -1    0    0  502  501  0.00000000000E+00  0.00000000000E+00  0.22550971704E+02  0.22550971704E+02  0.00000000000E+00 0.  1.
         21   -1    0    0  501  502 -0.00000000000E+00 -0.00000000000E+00 -0.17321869990E+03  0.17321869990E+03  0.00000000000E+00 0.  1.
         25    1    1    2    0    0  0.00000000000E+00  0.00000000000E+00 -0.15066772819E+03  0.19576967160E+03  0.12500000000E+03 0.  0.
<mgrwt>
<rscale>  2 0.12500000E+03</rscale>
<asrwt>0</asrwt>
<pdfrwt beam="1">  1       21 0.34693802E-02 0.12500000E+03</pdfrwt>
<pdfrwt beam="2">  1       21 0.26649031E-01 0.12500000E+03</pdfrwt>
<totfact> 0.65386882E+06</totfact>
</mgrwt>
</event>
<event>
 3    0  0.1676212E+001  0.1250000E+03  0.7546771E-02  0.1235069E+00
         21   -1    0    0  502  501  0.00000000000E+00  0.00000000000E+00  0.13226063965E+03  0.13226063965E+03  0.00000000000E+00 0. -1.
         21   -1    0    0  501  502 -0.00000000000E+00 -0.00000000000E+00 -0.29534485925E+02  0.29534485925E+02  0.00000000000E+00 0. -1.
         25    1    1    2    0    0  0.00000000000E+00  0.00000000000E+00  0.10272615372E+03  0.16179512557E+03  0.12500000000E+03 0.  0.
<mgrwt>
<rscale>  2 0.12500000E+03</rscale>
<asrwt>0</asrwt>
<pdfrwt beam="1">  1       21 0.20347790E-01 0.12500000E+03</pdfrwt>
<pdfrwt beam="2">  1       21 0.45437671E-02 0.12500000E+03</pdfrwt>
<totfact> 0.69300814E+06</totfact>
</mgrwt>
</event>
<event>
 3    0  0.1668471E+001  0.1250000E+03  0.7546771E-02  0.1235069E+00
         21   -1    0    0  502  501  0.00000000000E+00  0.00000000000E+00  0.26361644912E+02  0.26361644912E+02  0.00000000000E+00 0. -1.
         21   -1    0    0  501  502 -0.00000000000E+00 -0.00000000000E+00 -0.14817929659E+03  0.14817929659E+03  0.00000000000E+00 0. -1.
         25    1    1    2    0    0  0.00000000000E+00  0.00000000000E+00 -0.12181765168E+03  0.17454094150E+03  0.12500000000E+03 0.  0.
<mgrwt>
<rscale>  2 0.12500000E+03</rscale>
<asrwt>0</asrwt>
<pdfrwt beam="1">  1       21 0.40556377E-02 0.12500000E+03</pdfrwt>
<pdfrwt beam="2">  1       21 0.22796815E-01 0.12500000E+03</pdfrwt>
<totfact> 0.67783368E+06</totfact>
</mgrwt>
</event>
<event>
 3    0  0.1546559E+001  0.1250000E+03  0.7546771E-02  0.1235069E+00
         21   -1    0    0  502  501  0.00000000000E+00  0.00000000000E+00  0.12780559055E+02  0.12780559055E+02  0.00000000000E+00 0. -1.
         21   -1    0    0  501  502 -0.00000000000E+00 -0.00000000000E+00 -0.30563999457E+03  0.30563999457E+03  0.00000000000E+00 0. -1.
         25    1    1    2    0    0  0.00000000000E+00  0.00000000000E+00 -0.29285943551E+03  0.31842055362E+03  0.12500000000E+03 0.  0.
<mgrwt>
<rscale>  2 0.12500000E+03</rscale>
<asrwt>0</asrwt>
<pdfrwt beam="1">  1       21 0.19662401E-02 0.12500000E+03</pdfrwt>
<pdfrwt beam="2">  1       21 0.47021531E-01 0.12500000E+03</pdfrwt>
<totfact> 0.53958746E+06</totfact>
</mgrwt>
</event>
<event>
 3    0  0.1691971E+001  0.1250000E+03  0.7546771E-02  0.1235069E+00
         21   -1    0    0  502  501  0.00000000000E+00  0.00000000000E+00  0.14805377388E+03  0.14805377388E+03  0.00000000000E+00 0.  1.
         21   -1    0    0  501  502 -0.00000000000E+00 -0.00000000000E+00 -0.26383994799E+02  0.26383994799E+02  0.00000000000E+00 0.  1.
         25    1    1    2    0    0  0.00000000000E+00  0.00000000000E+00  0.12166977908E+03  0.17443776868E+03  0.12500000000E+03 0.  0.
<mgrwt>
<rscale>  2 0.12500000E+03</rscale>
<asrwt>0</asrwt>
<pdfrwt beam="1">  1       21 0.22777503E-01 0.12500000E+03</pdfrwt>
<pdfrwt beam="2">  1       21 0.40590762E-02 0.12500000E+03</pdfrwt>
<totfact> 0.67795418E+06</totfact>
</mgrwt>
</event>
<event>
 3    0  0.1648167E+001  0.1250000E+03  0.7546771E-02  0.1235069E+00
         21   -1    0    0  502  501  0.00000000000E+00  0.00000000000E+00  0.21882761782E+02  0.21882761782E+02  0.00000000000E+00 0. -1.
         21   -1    0    0  501  502 -0.00000000000E+00 -0.00000000000E+00 -0.17850808956E+03  0.17850808956E+03  0.00000000000E+00 0. -1.
         25    1    1    2    0    0  0.00000000000E+00  0.00000000000E+00 -0.15662532778E+03  0.20039085134E+03  0.12500000000E+03 0.  0.
<mgrwt>
<rscale>  2 0.12500000E+03</rscale>
<asrwt>0</asrwt>
<pdfrwt beam="1">  1       21 0.33665787E-02 0.12500000E+03</pdfrwt>
<pdfrwt beam="2">  1       21 0.27462783E-01 0.12500000E+03</pdfrwt>
<totfact> 0.64884925E+06</totfact>
</mgrwt>
</event>
<event>
 3    0  0.1623740E+001  0.1250000E+03  0.7546771E-02  0.1235069E+00
         21   -1    0    0  502  501  0.00000000000E+00  0.00000000000E+00  0.18178206373E+02  0.18178206373E+02  0.00000000000E+00 0. -1.
         21   -1    0    0  501  502 -0.00000000000E+00 -0.00000000000E+00 -0.21488643707E+03  0.21488643707E+03  0.00000000000E+00 0. -1.
         25    1    1    2    0    0  0.00000000000E+00  0.00000000000E+00 -0.19670823070E+03  0.23306464345E+03  0.12500000000E+03 0.  0.
<mgrwt>
<rscale>  2 0.12500000E+03</rscale>
<asrwt>0</asrwt>
<pdfrwt beam="1">  1       21 0.27966471E-02 0.12500000E+03</pdfrwt>
<pdfrwt beam="2">  1       21 0.33059452E-01 0.12500000E+03</pdfrwt>
<totfact> 0.61510309E+06</totfact>
</mgrwt>
</event>
<event>
 3    0  0.1722438E+001  0.1250000E+03  0.7546771E-02  0.1235069E+00
         21   -1    0    0  502  501  0.00000000000E+00  0.00000000000E+00  0.43179313974E+02  0.43179313974E+02  0.00000000000E+00 0.  1.
         21   -1    0    0  501  502 -0.00000000000E+00 -0.00000000000E+00 -0.90465772623E+02  0.90465772623E+02  0.00000000000E+00 0.  1.
         25    1    1    2    0    0  0.00000000000E+00  0.00000000000E+00 -0.47286458649E+02  0.13364508660E+03  0.12500000000E+03 0.  0.
<mgrwt>
<rscale>  2 0.12500000E+03</rscale>
<asrwt>0</asrwt>
<pdfrwt beam="1">  1       21 0.66429714E-02 0.12500000E+03</pdfrwt>
<pdfrwt beam="2">  1       21 0.13917811E-01 0.12500000E+03</pdfrwt>
<totfact> 0.72876378E+06</totfact>
</mgrwt>
</event>
<event>
 3    0  0.1684418E+001  0.1250000E+03  0.7546771E-02  0.1235069E+00
         21   -1    0    0  502  501  0.00000000000E+00  0.00000000000E+00  0.23322362132E+02  0.23322362132E+02  0.00000000000E+00 0.  1.
         21   -1    0    0  501  502 -0.00000000000E+00 -0.00000000000E+00 -0.16748946689E+03  0.16748946689E+03  0.00000000000E+00 0.  1.
         25    1    1    2    0    0  0.00000000000E+00  0.00000000000E+00 -0.14416710476E+03  0.19081182902E+03  0.12500000000E+03 0.  0.
<mgrwt>
<rscale>  2 0.12500000E+03</rscale>
<asrwt>0</asrwt>
<pdfrwt beam="1">  1       21 0.35880557E-02 0.12500000E+03</pdfrwt>
<pdfrwt beam="2">  1       21 0.25767611E-01 0.12500000E+03</pdfrwt>
<totfact> 0.65932350E+06</totfact>
</mgrwt>
</event>
<event>
 3    0  0.1368989E+001  0.1250000E+03  0.7546771E-02  0.1235069E+00
         21   -1    0    0  502  501  0.00000000000E+00  0.00000000000E+00  0.53723933309E+01  0.53723933309E+01  0.00000000000E+00 0. -1.
         21   -1    0    0  501  502 -0.00000000000E+00 -0.00000000000E+00 -0.72709680014E+03  0.72709680014E+03  0.00000000000E+00 0. -1.
         25    1    1    2    0    0  0.00000000000E+00  0.00000000000E+00 -0.72172440681E+03  0.73246919347E+03  0.12500000000E+03 0.  0.
<mgrwt>
<rscale>  2 0.12500000E+03</rscale>
<asrwt>0</asrwt>
<pdfrwt beam="1">  1       21 0.82652204E-03 0.12500000E+03</pdfrwt>
<pdfrwt beam="2">  1       21 0.11186105E+00 0.12500000E+03</pdfrwt>
<totfact> 0.31695269E+06</totfact>
</mgrwt>
</event>
<event>
 3    0  0.1368989E+001  0.1250000E+03  0.7546771E-02  0.1235069E+00
         21   -1    0    0  502  501  0.00000000000E+00  0.00000000000E+00  0.12115261439E+01  0.12115261439E+01  0.00000000000E+00 0.  1.
         21   -1    0    0  501  502 -0.00000000000E+00 -0.00000000000E+00 -0.32242391300E+04  0.32242391300E+04  0.00000000000E+00 0.  1.
         25    1    1    2    0    0  0.00000000000E+00  0.00000000000E+00 -0.32230276038E+04  0.32254506561E+04  0.12500000000E+03 0.  0.
<mgrwt>
<rscale>  2 0.12500000E+03</rscale>
<asrwt>0</asrwt>
<pdfrwt beam="1">  1       21 0.18639115E-03 0.12500000E+03</pdfrwt>
<pdfrwt beam="2">  1       21 0.49603011E+00 0.12500000E+03</pdfrwt>
<totfact> 0.11254710E+05</totfact>
</mgrwt>
</event>
<event>
 3    0  0.1711996E+001  0.1250000E+03  0.7546771E-02  0.1235069E+00
         21   -1    0    0  502  501  0.00000000000E+00  0.00000000000E+00  0.33068004476E+02  0.33068004476E+02  0.00000000000E+00 0.  1.
         21   -1    0    0  501  502 -0.00000000000E+00 -0.00000000000E+00 -0.11812778128E+03  0.11812778128E+03  0.00000000000E+00 0.  1.
         25    1    1    2    0    0  0.00000000000E+00  0.00000000000E+00 -0.85059776800E+02  0.15119578575E+03  0.12500000000E+03 0.  0.
<mgrwt>
<rscale>  2 0.12500000E+03</rscale>
<asrwt>0</asrwt>
<pdfrwt beam="1">  1       21 0.50873854E-02 0.12500000E+03</pdfrwt>
<pdfrwt beam="2">  1       21 0.18173504E-01 0.12500000E+03</pdfrwt>
<totfact> 0.70609310E+06</totfact>
</mgrwt>
</event>
<event>
 3    0  0.1468041E+001  0.1250000E+03  0.7546771E-02  0.1235069E+00
         21   -1    0    0  502  501  0.00000000000E+00  0.00000000000E+00  0.73728651984E+01  0.73728651984E+01  0.00000000000E+00 0.  1.
         21   -1    0    0  501  502 -0.00000000000E+00 -0.00000000000E+00 -0.52981437947E+03  0.52981437947E+03  0.00000000000E+00 0.  1.
         25    1    1    2    0    0  0.00000000000E+00  0.00000000000E+00 -0.52244151427E+03  0.53718724466E+03  0.12500000000E+03 0.  0.
<mgrwt>
<rscale>  2 0.12500000E+03</rscale>
<asrwt>0</asrwt>
<pdfrwt beam="1">  1       21 0.11342870E-02 0.12500000E+03</pdfrwt>
<pdfrwt beam="2">  1       21 0.81509901E-01 0.12500000E+03</pdfrwt>
<totfact> 0.40096561E+06</totfact>
</mgrwt>
</event>
<event>
 3    0  0.1639570E+001  0.1250000E+03  0.7546771E-02  0.1235069E+00
         21   -1    0    0  502  501  0.00000000000E+00  0.00000000000E+00  0.21453610062E+02  0.21453610062E+02  0.00000000000E+00 0. -1.
         21   -1    0    0  501  502 -0.00000000000E+00 -0.00000000000E+00 -0.18207891300E+03  0.18207891300E+03  0.00000000000E+00 0. -1.
         25    1    1    2    0    0  0.00000000000E+00  0.00000000000E+00 -0.16062530294E+03  0.20353252306E+03  0.12500000000E+03 0.  0.
<mgrwt>
<rscale>  2 0.12500000E+03</rscale>
<asrwt>0</asrwt>
<pdfrwt beam="1">  1       21 0.33005555E-02 0.12500000E+03</pdfrwt>
<pdfrwt beam="2">  1       21 0.28012140E-01 0.12500000E+03</pdfrwt>
<totfact> 0.64546478E+06</totfact>
</mgrwt>
</event>
<event>
 3    0  0.1434309E+001  0.1250000E+03  0.7546771E-02  0.1235069E+00
         21   -1    0    0  502  501  0.00000000000E+00  0.00000000000E+00  0.50195305313E+03  0.50195305313E+03  0.00000000000E+00 0. -1.
         21   -1    0    0  501  502 -0.00000000000E+00 -0.00000000000E+00 -0.77821022816E+01  0.77821022816E+01  0.00000000000E+00 0. -1.
         25    1    1    2    0    0  0.00000000000E+00  0.00000000000E+00  0.49417095085E+03  0.50973515541E+03  0.12500000000E+03 0.  0.
<mgrwt>
<rscale>  2 0.12500000E+03</rscale>
<asrwt>0</asrwt>
<pdfrwt beam="1">  1       21 0.77223521E-01 0.12500000E+03</pdfrwt>
<pdfrwt beam="2">  1       21 0.11972469E-02 0.12500000E+03</pdfrwt>
<totfact> 0.41520994E+06</totfact>
</mgrwt>
</event>
<event>
 3    0  0.1697385E+001  0.1250000E+03  0.7546771E-02  0.1235069E+00
         21   -1    0    0  502  501  0.00000000000E+00  0.00000000000E+00  0.29222614417E+02  0.29222614417E+02  0.00000000000E+00 0.  1.
         21   -1    0    0  501  502 -0.00000000000E+00 -0.00000000000E+00 -0.13367216035E+03  0.13367216035E+03  0.00000000000E+00 0.  1.
         25    1    1    2    0    0  0.00000000000E+00  0.00000000000E+00 -0.10444954593E+03  0.16289477476E+03  0.12500000000E+03 0.  0.
<mgrwt>
<rscale>  2 0.12500000E+03</rscale>
<asrwt>0</asrwt>
<pdfrwt beam="1">  1       21 0.44957869E-02 0.12500000E+03</pdfrwt>
<pdfrwt beam="2">  1       21 0.20564947E-01 0.12500000E+03</pdfrwt>
<totfact> 0.69167505E+06</totfact>
</mgrwt>
</event>
<event>
 3    0  0.1543019E+001  0.1250000E+03  0.7546771E-02  0.1235069E+00
         21   -1    0    0  502  501  0.00000000000E+00  0.00000000000E+00  0.12001854958E+02  0.12001854958E+02  0.00000000000E+00 0. -1.
         21   -1    0    0  501  502 -0.00000000000E+00 -0.00000000000E+00 -0.32547052216E+03  0.32547052216E+03  0.00000000000E+00 0. -1.
         25    1    1    2    0    0  0.00000000000E+00  0.00000000000E+00 -0.31346866720E+03  0.33747237712E+03  0.12500000000E+03 0.  0.
<mgrwt>
<rscale>  2 0.12500000E+03</rscale>
<asrwt>0</asrwt>
<pdfrwt beam="1">  1       21 0.18464392E-02 0.12500000E+03</pdfrwt>
<pdfrwt beam="2">  1       21 0.50072388E-01 0.12500000E+03</pdfrwt>
<totfact> 0.52477153E+06</totfact>
</mgrwt>
</event>
<event>
 3    0  0.1441359E+001  0.1250000E+03  0.7546771E-02  0.1235069E+00
         21   -1    0    0  502  501  0.00000000000E+00  0.00000000000E+00  0.69316471548E+01  0.69316471548E+01  0.00000000000E+00 0. -1.
         21   -1    0    0  501  502 -0.00000000000E+00 -0.00000000000E+00 -0.56353849420E+03  0.56353849420E+03  0.00000000000E+00 0. -1.
         25    1    1    2    0    0  0.00000000000E+00  0.00000000000E+00 -0.55660684705E+03  0.57047014136E+03  0.12500000000E+03 0.  0.
<mgrwt>
<rscale>  2 0.12500000E+03</rscale>
<asrwt>0</asrwt>
<pdfrwt beam="1">  1       21 0.10664070E-02 0.12500000E+03</pdfrwt>
<pdfrwt beam="2">  1       21 0.86698249E-01 0.12500000E+03</pdfrwt>
<totfact> 0.38463061E+06</totfact>
</mgrwt>
</event>
<event>
 3    0  0.1692615E+001  0.1250000E+03  0.7546771E-02  0.1235069E+00
         21   -1    0    0  502  501  0.00000000000E+00  0.00000000000E+00  0.41713939903E+02  0.41713939903E+02  0.00000000000E+00 0. -1.
         21   -1    0    0  501  502 -0.00000000000E+00 -0.00000000000E+00 -0.93643755758E+02  0.93643755758E+02  0.00000000000E+00 0. -1.
         25    1    1    2    0    0  0.00000000000E+00  0.00000000000E+00 -0.51929815855E+02  0.13535769566E+03  0.12500000000E+03 0.  0.
<mgrwt>
<rscale>  2 0.12500000E+03</rscale>
<asrwt>0</asrwt>
<pdfrwt beam="1">  1       21 0.64175292E-02 0.12500000E+03</pdfrwt>
<pdfrwt beam="2">  1       21 0.14406732E-01 0.12500000E+03</pdfrwt>
<totfact> 0.72649145E+06</totfact>
</mgrwt>
</event>
<event>
 3    0  0.1414678E+001  0.1250000E+03  0.7546771E-02  0.1235069E+00
         21   -1    0    0  502  501  0.00000000000E+00  0.00000000000E+00  0.59178923427E+03  0.59178923427E+03  0.00000000000E+00 0.  1.
         21   -1    0    0  501  502 -0.00000000000E+00 -0.00000000000E+00 -0.66007452887E+01  0.66007452887E+01  0.00000000000E+00 0.  1.
         25    1    1    2    0    0  0.00000000000E+00  0.00000000000E+00  0.58518848898E+03  0.59838997956E+03  0.12500000000E+03 0.  0.
<mgrwt>
<rscale>  2 0.12500000E+03</rscale>
<asrwt>0</asrwt>
<pdfrwt beam="1">  1       21 0.91044455E-01 0.12500000E+03</pdfrwt>
<pdfrwt beam="2">  1       21 0.10154997E-02 0.12500000E+03</pdfrwt>
<totfact> 0.37165556E+06</totfact>
</mgrwt>
</event>
<event>
 3    0  0.1592640E+001  0.1250000E+03  0.7546771E-02  0.1235069E+00
         21   -1    0    0  502  501  0.00000000000E+00  0.00000000000E+00  0.26098898469E+03  0.26098898469E+03  0.00000000000E+00 0. -1.
         21   -1    0    0  501  502 -0.00000000000E+00 -0.00000000000E+00 -0.14967106771E+02  0.14967106771E+02  0.00000000000E+00 0. -1.
         25    1    1    2    0    0  0.00000000000E+00  0.00000000000E+00  0.24602187792E+03  0.27595609146E+03  0.12500000000E+03 0.  0.
<mgrwt>
<rscale>  2 0.12500000E+03</rscale>
<asrwt>0</asrwt>
<pdfrwt beam="1">  1       21 0.40152148E-01 0.12500000E+03</pdfrwt>
<pdfrwt beam="2">  1       21 0.23026320E-02 0.12500000E+03</pdfrwt>
<totfact> 0.57515443E+06</totfact>
</mgrwt>
</event>
<event>
 3    0  0.1715414E+001  0.1250000E+03  0.7546771E-02  0.1235069E+00
         21   -1    0    0  502  501  0.00000000000E+00  0.00000000000E+00  0.34899861107E+02  0.34899861107E+02  0.00000000000E+00 0.  1.
         21   -1    0    0  501  502 -0.00000000000E+00 -0.00000000000E+00 -0.11192737954E+03  0.11192737954E+03  0.00000000000E+00 0.  1.
         25    1    1    2    0    0  0.00000000000E+00  0.00000000000E+00 -0.77027518431E+02  0.14682724065E+03  0.12500000000E+03 0.  0.
<mgrwt>
<rscale>  2 0.12500000E+03</rscale>
<asrwt>0</asrwt>
<pdfrwt beam="1">  1       21 0.53692094E-02 0.12500000E+03</pdfrwt>
<pdfrwt beam="2">  1       21 0.17219597E-01 0.12500000E+03</pdfrwt>
<totfact> 0.71160070E+06</totfact>
</mgrwt>
</event>
<event>
 3    0  0.1424598E+001  0.1250000E+03  0.7546771E-02  0.1235069E+00
         21   -1    0    0  502  501  0.00000000000E+00  0.00000000000E+00  0.70495423276E+01  0.70495423276E+01  0.00000000000E+00 0.  1.
         21   -1    0    0  501  502 -0.00000000000E+00 -0.00000000000E+00 -0.55411398619E+03  0.55411398619E+03  0.00000000000E+00 0.  1.
         25    1    1    2    0    0  0.00000000000E+00  0.00000000000E+00 -0.54706444387E+03  0.56116352852E+03  0.12500000000E+03 0.  0.
<mgrwt>
<rscale>  2 0.12500000E+03</rscale>
<asrwt>0</asrwt>
<pdfrwt beam="1">  1       21 0.10845451E-02 0.12500000E+03</pdfrwt>
<pdfrwt beam="2">  1       21 0.85248292E-01 0.12500000E+03</pdfrwt>
<totfact> 0.38910009E+06</totfact>
</mgrwt>
</event>
<event>
 3    0  0.1612828E+001  0.1250000E+03  0.7546771E-02  0.1235069E+00
         21   -1    0    0  502  501  0.00000000000E+00  0.00000000000E+00  0.14882815992E+02  0.14882815992E+02  0.00000000000E+00 0.  1.
         21   -1    0    0  501  502 -0.00000000000E+00 -0.00000000000E+00 -0.26246713002E+03  0.26246713002E+03  0.00000000000E+00 0.  1.
         25    1    1    2    0    0  0.00000000000E+00  0.00000000000E+00 -0.24758431403E+03  0.27734994602E+03  0.12500000000E+03 0.  0.
<mgrwt>
<rscale>  2 0.12500000E+03</rscale>
<asrwt>0</asrwt>
<pdfrwt beam="1">  1       21 0.22896642E-02 0.12500000E+03</pdfrwt>
<pdfrwt beam="2">  1       21 0.40379555E-01 0.12500000E+03</pdfrwt>
<totfact> 0.57392625E+06</totfact>
</mgrwt>
</event>
<event>
 3    0  0.1675229E+001  0.1250000E+03  0.7546771E-02  0.1235069E+00
         21   -1    0    0  502  501  0.00000000000E+00  0.00000000000E+00  0.24268636098E+02  0.24268636098E+02  0.00000000000E+00 0.  1.
         21   -1    0    0  501  502 -0.00000000000E+00 -0.00000000000E+00 -0.16095877758E+03  0.16095877758E+03  0.00000000000E+00 0.  1.
         25    1    1    2    0    0  0.00000000000E+00  0.00000000000E+00 -0.13669014148E+03  0.18522741368E+03  0.12500000000E+03 0.  0.
<mgrwt>
<rscale>  2 0.12500000E+03</rscale>
<asrwt>0</asrwt>
<pdfrwt beam="1">  1       21 0.37336364E-02 0.12500000E+03</pdfrwt>
<pdfrwt beam="2">  1       21 0.24762888E-01 0.12500000E+03</pdfrwt>
<totfact> 0.66556865E+06</totfact>
</mgrwt>
</event>
<event>
 3    0  0.1530165E+001  0.1250000E+03  0.7546771E-02  0.1235069E+00
         21   -1    0    0  502  501  0.00000000000E+00  0.00000000000E+00  0.36616399646E+03  0.36616399646E+03  0.00000000000E+00 0. -1.
         21   -1    0    0  501  502 -0.00000000000E+00 -0.00000000000E+00 -0.10668034099E+02  0.10668034099E+02  0.00000000000E+00 0. -1.
         25    1    1    2    0    0  0.00000000000E+00  0.00000000000E+00  0.35549596236E+03  0.37683203056E+03  0.12500000000E+03 0.  0.
<mgrwt>
<rscale>  2 0.12500000E+03</rscale>
<asrwt>0</asrwt>
<pdfrwt beam="1">  1       21 0.56332913E-01 0.12500000E+03</pdfrwt>
<pdfrwt beam="2">  1       21 0.16412363E-02 0.12500000E+03</pdfrwt>
<totfact> 0.49615836E+06</totfact>
</mgrwt>
</event>
<event>
 3    0  0.1665106E+001  0.1250000E+03  0.7546771E-02  0.1235069E+00
         21   -1    0    0  502  501  0.00000000000E+00  0.00000000000E+00  0.14619032515E+03  0.14619032515E+03  0.00000000000E+00 0. -1.
         21   -1    0    0  501  502 -0.00000000000E+00 -0.00000000000E+00 -0.26720304479E+02  0.26720304479E+02  0.00000000000E+00 0. -1.
         25    1    1    2    0    0  0.00000000000E+00  0.00000000000E+00  0.11947002067E+03  0.17291062963E+03  0.12500000000E+03 0.  0.
<mgrwt>
<rscale>  2 0.12500000E+03</rscale>
<asrwt>0</asrwt>
<pdfrwt beam="1">  1       21 0.22490819E-01 0.12500000E+03</pdfrwt>
<pdfrwt beam="2">  1       21 0.41108162E-02 0.12500000E+03</pdfrwt>
<totfact> 0.67974261E+06</totfact>
</mgrwt>
</event>
<event>
 3    0  0.1678713E+001  0.1250000E+03  0.7546771E-02  0.1235069E+00
         21   -1    0    0  502  501  0.00000000000E+00  0.00000000000E+00  0.31149038853E+02  0.31149038853E+02  0.00000000000E+00 0. -1.
         21   -1    0    0  501  502 -0.00000000000E+00 -0.00000000000E+00 -0.12540515354E+03  0.12540515354E+03  0.00000000000E+00 0. -1.
         25    1    1    2    0    0  0.00000000000E+00  0.00000000000E+00 -0.94256114689E+02  0.15655419239E+03  0.12500000000E+03 0.  0.
<mgrwt>
<rscale>  2 0.12500000E+03</rscale>
<asrwt>0</asrwt>
<pdfrwt beam="1">  1       21 0.47921599E-02 0.12500000E+03</pdfrwt>
<pdfrwt beam="2">  1       21 0.19293100E-01 0.12500000E+03</pdfrwt>
<totfact> 0.69943006E+06</totfact>
</mgrwt>
</event>
<event>
 3    0  0.1515186E+001  0.1250000E+03  0.7546771E-02  0.1235069E+00
         21   -1    0    0  502  501  0.00000000000E+00  0.00000000000E+00  0.10454451974E+02  0.10454451974E+02  0.00000000000E+00 0. -1.
         21   -1    0    0  501  502 -0.00000000000E+00 -0.00000000000E+00 -0.37364464533E+03  0.37364464533E+03  0.00000000000E+00 0. -1.
         25    1    1    2    0    0  0.00000000000E+00  0.00000000000E+00 -0.36319019336E+03  0.38409909731E+03  0.12500000000E+03 0.  0.
<mgrwt>
<rscale>  2 0.12500000E+03</rscale>
<asrwt>0</asrwt>
<pdfrwt beam="1">  1       21 0.16083775E-02 0.12500000E+03</pdfrwt>
<pdfrwt beam="2">  1       21 0.57483783E-01 0.12500000E+03</pdfrwt>
<totfact> 0.49114240E+06</totfact>
</mgrwt>
</event>
<event>
 3    0  0.1543583E+001  0.1250000E+03  0.7546771E-02  0.1235069E+00
         21   -1    0    0  502  501  0.00000000000E+00  0.00000000000E+00  0.33615289018E+03  0.33615289018E+03  0.00000000000E+00 0. -1.
         21   -1    0    0  501  502 -0.00000000000E+00 -0.00000000000E+00 -0.11620456388E+02  0.11620456388E+02  0.00000000000E+00 0. -1.
         25    1    1    2    0    0  0.00000000000E+00  0.00000000000E+00  0.32453243379E+03  0.34777334657E+03  0.12500000000E+03 0.  0.
<mgrwt>
<rscale>  2 0.12500000E+03</rscale>
<asrwt>0</asrwt>
<pdfrwt beam="1">  1       21 0.51715822E-01 0.12500000E+03</pdfrwt>
<pdfrwt beam="2">  1       21 0.17877628E-02 0.12500000E+03</pdfrwt>
<totfact> 0.51703301E+06</totfact>
</mgrwt>
</event>
<event>
 3    0  0.1626177E+001  0.1250000E+03  0.7546771E-02  0.1235069E+00
         21   -1    0    0  502  501  0.00000000000E+00  0.00000000000E+00  0.16008858508E+02  0.16008858508E+02  0.00000000000E+00 0.  1.
         21   -1    0    0  501  502 -0.00000000000E+00 -0.00000000000E+00 -0.24400552970E+03  0.24400552970E+03  0.00000000000E+00 0.  1.
         25    1    1    2    0    0  0.00000000000E+00  0.00000000000E+00 -0.22799667119E+03  0.26001438820E+03  0.12500000000E+03 0.  0.
<mgrwt>
<rscale>  2 0.12500000E+03</rscale>
<asrwt>0</asrwt>
<pdfrwt beam="1">  1       21 0.24629016E-02 0.12500000E+03</pdfrwt>
<pdfrwt beam="2">  1       21 0.37539308E-01 0.12500000E+03</pdfrwt>
<totfact> 0.58947955E+06</totfact>
</mgrwt>
</event>
<event>
 3    0  0.1666304E+001  0.1250000E+03  0.7546771E-02  0.1235069E+00
         21   -1    0    0  502  501  0.00000000000E+00  0.00000000000E+00  0.28578273711E+02  0.28578273711E+02  0.00000000000E+00 0. -1.
         21   -1    0    0  501  502 -0.00000000000E+00 -0.00000000000E+00 -0.13668600278E+03  0.13668600278E+03  0.00000000000E+00 0. -1.
         25    1    1    2    0    0  0.00000000000E+00  0.00000000000E+00 -0.10810772907E+03  0.16526427649E+03  0.12500000000E+03 0.  0.
<mgrwt>
<rscale>  2 0.12500000E+03</rscale>
<asrwt>0</asrwt>
<pdfrwt beam="1">  1       21 0.43966576E-02 0.12500000E+03</pdfrwt>
<pdfrwt beam="2">  1       21 0.21028615E-01 0.12500000E+03</pdfrwt>
<totfact> 0.68881911E+06</totfact>
</mgrwt>
</event>
<event>
 3    0  0.1618538E+001  0.1250000E+03  0.7546771E-02  0.1235069E+00
         21   -1    0    0  502  501  0.00000000000E+00  0.00000000000E+00  0.23469799562E+03  0.23469799562E+03  0.00000000000E+00 0.  1.
         21   -1    0    0  501  502 -0.00000000000E+00 -0.00000000000E+00 -0.16643729699E+02  0.16643729699E+02  0.00000000000E+00 0.  1.
         25    1    1    2    0    0  0.00000000000E+00  0.00000000000E+00  0.21805426592E+03  0.25134172532E+03  0.12500000000E+03 0.  0.
<mgrwt>
<rscale>  2 0.12500000E+03</rscale>
<asrwt>0</asrwt>
<pdfrwt beam="1">  1       21 0.36107382E-01 0.12500000E+03</pdfrwt>
<pdfrwt beam="2">  1       21 0.25605740E-02 0.12500000E+03</pdfrwt>
<totfact> 0.59752098E+06</totfact>
</mgrwt>
</event>
<event>
 3    0  0.1695216E+001  0.1250000E+03  0.7546771E-02  0.1235069E+00
         21   -1    0    0  502  501  0.00000000000E+00  0.00000000000E+00  0.26559201662E+02  0.26559201662E+02  0.00000000000E+00 0.  1.
         21   -1    0    0  501  502 -0.00000000000E+00 -0.00000000000E+00 -0.14707708649E+03  0.14707708649E+03  0.00000000000E+00 0.  1.
         25    1    1    2    0    0  0.00000000000E+00  0.00000000000E+00 -0.12051788483E+03  0.17363628815E+03  0.12500000000E+03 0.  0.
<mgrwt>
<rscale>  2 0.12500000E+03</rscale>
<asrwt>0</asrwt>
<pdfrwt beam="1">  1       21 0.40860311E-02 0.12500000E+03</pdfrwt>
<pdfrwt beam="2">  1       21 0.22627244E-01 0.12500000E+03</pdfrwt>
<totfact> 0.67889167E+06</totfact>
</mgrwt>
</event>
<event>
 3    0  0.1718416E+001  0.1250000E+03  0.7546771E-02  0.1235069E+00
         21   -1    0    0  502  501  0.00000000000E+00  0.00000000000E+00  0.40055186537E+02  0.40055186537E+02  0.00000000000E+00 0.  1.
         21   -1    0    0  501  502 -0.00000000000E+00 -0.00000000000E+00 -0.97521702874E+02  0.97521702874E+02  0.00000000000E+00 0.  1.
         25    1    1    2    0    0  0.00000000000E+00  0.00000000000E+00 -0.57466516337E+02  0.13757688941E+03  0.12500000000E+03 0.  0.
<mgrwt>
<rscale>  2 0.12500000E+03</rscale>
<asrwt>0</asrwt>
<pdfrwt beam="1">  1       21 0.61623365E-02 0.12500000E+03</pdfrwt>
<pdfrwt beam="2">  1       21 0.15003339E-01 0.12500000E+03</pdfrwt>
<totfact> 0.72357038E+06</totfact>
</mgrwt>
</event>
<event>
 3    0  0.1636581E+001  0.1250000E+03  0.7546771E-02  0.1235069E+00
         21   -1    0    0  502  501  0.00000000000E+00  0.00000000000E+00  0.25209326595E+03  0.25209326595E+03  0.00000000000E+00 0.  1.
         21   -1    0    0  501  502 -0.00000000000E+00 -0.00000000000E+00 -0.15495257223E+02  0.15495257223E+02  0.00000000000E+00 0.  1.
         25    1    1    2    0    0  0.00000000000E+00  0.00000000000E+00  0.23659800873E+03  0.26758852317E+03  0.12500000000E+03 0.  0.
<mgrwt>
<rscale>  2 0.12500000E+03</rscale>
<asrwt>0</asrwt>
<pdfrwt beam="1">  1       21 0.38783576E-01 0.12500000E+03</pdfrwt>
<pdfrwt beam="2">  1       21 0.23838859E-02 0.12500000E+03</pdfrwt>
<totfact> 0.58260650E+06</totfact>
</mgrwt>
</event>
<event>
 3    0  0.1646103E+001  0.1250000E+03  0.7546771E-02  0.1235069E+00
         21   -1    0    0  502  501  0.00000000000E+00  0.00000000000E+00  0.17913679576E+03  0.17913679576E+03  0.00000000000E+00 0. -1.
         21   -1    0    0  501  502 -0.00000000000E+00 -0.00000000000E+00 -0.21805961100E+02  0.21805961100E+02  0.00000000000E+00 0. -1.
         25    1    1    2    0    0  0.00000000000E+00  0.00000000000E+00  0.15733083466E+03  0.20094275686E+03  0.12500000000E+03 0.  0.
<mgrwt>
<rscale>  2 0.12500000E+03</rscale>
<asrwt>0</asrwt>
<pdfrwt beam="1">  1       21 0.27559506E-01 0.12500000E+03</pdfrwt>
<pdfrwt beam="2">  1       21 0.33547634E-02 0.12500000E+03</pdfrwt>
<totfact> 0.64825242E+06</totfact>
</mgrwt>
</event>
<event>
 3    0  0.1538660E+001  0.1250000E+03  0.7546771E-02  0.1235069E+00
         21   -1    0    0  502  501  0.00000000000E+00  0.00000000000E+00  0.34885539071E+03  0.34885539071E+03  0.00000000000E+00 0.  1.
         21   -1    0    0  501  502 -0.00000000000E+00 -0.00000000000E+00 -0.11197333061E+02  0.11197333061E+02  0.00000000000E+00 0.  1.
         25    1    1    2    0    0  0.00000000000E+00  0.00000000000E+00  0.33765805765E+03  0.36005272377E+03  0.12500000000E+03 0.  0.
<mgrwt>
<rscale>  2 0.12500000E+03</rscale>
<asrwt>0</asrwt>
<pdfrwt beam="1">  1       21 0.53670052E-01 0.12500000E+03</pdfrwt>
<pdfrwt beam="2">  1       21 0.17226669E-02 0.12500000E+03</pdfrwt>
<totfact> 0.50804476E+06</totfact>
</mgrwt>
</event>
<event>
 3    0  0.1696521E+001  0.1250000E+03  0.7546771E-02  0.1235069E+00
         21   -1    0    0  502  501  0.00000000000E+00  0.00000000000E+00  0.44789455669E+02  0.44789455669E+02  0.00000000000E+00 0. -1.
         21   -1    0    0  501  502 -0.00000000000E+00 -0.00000000000E+00 -0.87213607346E+02  0.87213607346E+02  0.00000000000E+00 0. -1.
         25    1    1    2    0    0  0.00000000000E+00  0.00000000000E+00 -0.42424151677E+02  0.13200306302E+03  0.12500000000E+03 0.  0.
<mgrwt>
<rscale>  2 0.12500000E+03</rscale>
<asrwt>0</asrwt>
<pdfrwt beam="1">  1       21 0.68906856E-02 0.12500000E+03</pdfrwt>
<pdfrwt beam="2">  1       21 0.13417478E-01 0.12500000E+03</pdfrwt>
<totfact> 0.73095818E+06</totfact>
</mgrwt>
</event>
<event>
 3    0  0.1368989E+001  0.1250000E+03  0.7546771E-02  0.1235069E+00
         21   -1    0    0  502  501  0.00000000000E+00  0.00000000000E+00  0.26725621367E+01  0.26725621367E+01  0.00000000000E+00 0.  1.
         21   -1    0    0  501  502 -0.00000000000E+00 -0.00000000000E+00 -0.14616124154E+04  0.14616124154E+04  0.00000000000E+00 0.  1.
         25    1    1    2    0    0  0.00000000000E+00  0.00000000000E+00 -0.14589398533E+04  0.14642849775E+04  0.12500000000E+03 0.  0.
<mgrwt>
<rscale>  2 0.12500000E+03</rscale>
<asrwt>0</asrwt>
<pdfrwt beam="1">  1       21 0.41116293E-03 0.12500000E+03</pdfrwt>
<pdfrwt beam="2">  1       21 0.22486371E+00 0.12500000E+03</pdfrwt>
<totfact> 0.14530738E+06</totfact>
</mgrwt>
</event>
<event>
 3    0  0.1696287E+001  0.1250000E+03  0.7546771E-02  0.1235069E+00
         21   -1    0    0  502  501  0.00000000000E+00  0.00000000000E+00  0.96574204079E+02  0.96574204079E+02  0.00000000000E+00 0. -1.
         21   -1    0    0  501  502 -0.00000000000E+00 -0.00000000000E+00 -0.40448171820E+02  0.40448171820E+02  0.00000000000E+00 0. -1.
         25    1    1    2    0    0  0.00000000000E+00  0.00000000000E+00  0.56126032259E+02  0.13702237590E+03  0.12500000000E+03 0.  0.
<mgrwt>
<rscale>  2 0.12500000E+03</rscale>
<asrwt>0</asrwt>
<pdfrwt beam="1">  1       21 0.14857570E-01 0.12500000E+03</pdfrwt>
<pdfrwt beam="2">  1       21 0.62227957E-02 0.12500000E+03</pdfrwt>
<totfact> 0.72429788E+06</totfact>
</mgrwt>
</event>
<event>
 3    0  0.1678357E+001  0.1250000E+03  0.7546771E-02  0.1235069E+00
         21   -1    0    0  502  501  0.00000000000E+00  0.00000000000E+00  0.29723624189E+02  0.29723624189E+02  0.00000000000E+00 0. -1.
         21   -1    0    0  501  502 -0.00000000000E+00 -0.00000000000E+00 -0.13141903474E+03  0.13141903474E+03  0.00000000000E+00 0. -1.
         25    1    1    2    0    0  0.00000000000E+00  0.00000000000E+00 -0.10169541055E+03  0.16114265893E+03  0.12500000000E+03 0.  0.
<mgrwt>
<rscale>  2 0.12500000E+03</rscale>
<asrwt>0</asrwt>
<pdfrwt beam="1">  1       21 0.45728653E-02 0.12500000E+03</pdfrwt>
<pdfrwt beam="2">  1       21 0.20218313E-01 0.12500000E+03</pdfrwt>
<totfact> 0.69380144E+06</totfact>
</mgrwt>
</event>
<event>
 3    0  0.1729065E+001  0.1250000E+03  0.7546771E-02  0.1235069E+00
         21   -1    0    0  502  501  0.00000000000E+00  0.00000000000E+00  0.76064854973E+02  0.76064854973E+02  0.00000000000E+00 0.  1.
         21   -1    0    0  501  502 -0.00000000000E+00 -0.00000000000E+00 -0.51354202955E+02  0.51354202955E+02  0.00000000000E+00 0.  1.
         25    1    1    2    0    0  0.00000000000E+00  0.00000000000E+00  0.24710652018E+02  0.12741905793E+03  0.12500000000E+03 0.  0.
<mgrwt>
<rscale>  2 0.12500000E+03</rscale>
<asrwt>0</asrwt>
<pdfrwt beam="1">  1       21 0.11702285E-01 0.12500000E+03</pdfrwt>
<pdfrwt beam="2">  1       21 0.79006466E-02 0.12500000E+03</pdfrwt>
<totfact> 0.73712194E+06</totfact>
</mgrwt>
</event>
<event>
 3    0  0.1715381E+001  0.1250000E+03  0.7546771E-02  0.1235069E+00
         21   -1    0    0  502  501  0.00000000000E+00  0.00000000000E+00  0.10219842082E+03  0.10219842082E+03  0.00000000000E+00 0.  1.
         21   -1    0    0  501  502 -0.00000000000E+00 -0.00000000000E+00 -0.38222214872E+02  0.38222214872E+02  0.00000000000E+00 0.  1.
         25    1    1    2    0    0  0.00000000000E+00  0.00000000000E+00  0.63976205943E+02  0.14042063569E+03  0.12500000000E+03 0.  0.
<mgrwt>
<rscale>  2 0.12500000E+03</rscale>
<asrwt>0</asrwt>
<pdfrwt beam="1">  1       21 0.15722834E-01 0.12500000E+03</pdfrwt>
<pdfrwt beam="2">  1       21 0.58803408E-02 0.12500000E+03</pdfrwt>
<totfact> 0.71984443E+06</totfact>
</mgrwt>
</event>
<event>
 3    0  0.1368989E+001  0.1250000E+03  0.7546771E-02  0.1235069E+00
         21   -1    0    0  502  501  0.00000000000E+00  0.00000000000E+00  0.16307022063E+04  0.16307022063E+04  0.00000000000E+00 0.  1.
         21   -1    0    0  501  502 -0.00000000000E+00 -0.00000000000E+00 -0.23954404335E+01  0.23954404335E+01  0.00000000000E+00 0.  1.
         25    1    1    2    0    0  0.00000000000E+00  0.00000000000E+00  0.16283067659E+04  0.16330976468E+04  0.12500000000E+03 0.  0.
<mgrwt>
<rscale>  2 0.12500000E+03</rscale>
<asrwt>0</asrwt>
<pdfrwt beam="1">  1       21 0.25087637E+00 0.12500000E+03</pdfrwt>
<pdfrwt beam="2">  1       21 0.36853060E-03 0.12500000E+03</pdfrwt>
<totfact> 0.12129952E+06</totfact>
</mgrwt>
</event>
<event>
 3    0  0.1477738E+001  0.1250000E+03  0.7546771E-02  0.1235069E+00
         21   -1    0    0  502  501  0.00000000000E+00  0.00000000000E+00  0.42934599102E+03  0.42934599102E+03  0.00000000000E+00 0. -1.
         21   -1    0    0  501  502 -0.00000000000E+00 -0.00000000000E+00 -0.90981401520E+01  0.90981401520E+01  0.00000000000E+00 0. -1.
         25    1    1    2    0    0  0.00000000000E+00  0.00000000000E+00  0.42024785087E+03  0.43844413117E+03  0.12500000000E+03 0.  0.
<mgrwt>
<rscale>  2 0.12500000E+03</rscale>
<asrwt>0</asrwt>
<pdfrwt beam="1">  1       21 0.66053213E-01 0.12500000E+03</pdfrwt>
<pdfrwt beam="2">  1       21 0.13997142E-02 0.12500000E+03</pdfrwt>
<totfact> 0.45591723E+06</totfact>
</mgrwt>
</event>
<event>
 3    0  0.1678804E+001  0.1250000E+03  0.7546771E-02  0.1235069E+00
         21   -1    0    0  502  501  0.00000000000E+00  0.00000000000E+00  0.31969397926E+02  0.31969397926E+02  0.00000000000E+00 0. -1.
         21   -1    0    0  501  502 -0.00000000000E+00 -0.00000000000E+00 -0.12218716189E+03  0.12218716189E+03  0.00000000000E+00 0. -1.
         25    1    1    2    0    0  0.00000000000E+00  0.00000000000E+00 -0.90217763968E+02  0.15415655982E+03  0.12500000000E+03 0.  0.
<mgrwt>
<rscale>  2 0.12500000E+03</rscale>
<asrwt>0</asrwt>
<pdfrwt beam="1">  1       21 0.49183690E-02 0.12500000E+03</pdfrwt>
<pdfrwt beam="2">  1       21 0.18798025E-01 0.12500000E+03</pdfrwt>
<totfact> 0.70240639E+06</totfact>
</mgrwt>
</event>
<event>
 3    0  0.1507760E+001  0.1250000E+03  0.7546771E-02  0.1235069E+00
         21   -1    0    0  502  501  0.00000000000E+00  0.00000000000E+00  0.88547269550E+01  0.88547269550E+01  0.00000000000E+00 0. -1.
         21   -1    0    0  501  502 -0.00000000000E+00 -0.00000000000E+00 -0.44114855487E+03  0.44114855487E+03  0.00000000000E+00 0. -1.
         25    1    1    2    0    0  0.00000000000E+00  0.00000000000E+00 -0.43229382792E+03  0.45000328183E+03  0.12500000000E+03 0.  0.
<mgrwt>
<rscale>  2 0.12500000E+03</rscale>
<asrwt>0</asrwt>
<pdfrwt beam="1">  1       21 0.13622658E-02 0.12500000E+03</pdfrwt>
<pdfrwt beam="2">  1       21 0.67869003E-01 0.12500000E+03</pdfrwt>
<totfact> 0.44892074E+06</totfact>
</mgrwt>
</event>
<event>
 3    0  0.1629064E+001  0.1250000E+03  0.7546771E-02  0.1235069E+00
         21   -1    0    0  502  501  0.00000000000E+00  0.00000000000E+00  0.20153849736E+02  0.20153849736E+02  0.00000000000E+00 0. -1.
         21   -1    0    0  501  502 -0.00000000000E+00 -0.00000000000E+00 -0.19382153043E+03  0.19382153043E+03  0.00000000000E+00 0. -1.
         25    1    1    2    0    0  0.00000000000E+00  0.00000000000E+00 -0.17366768070E+03  0.21397538017E+03  0.12500000000E+03 0.  0.
<mgrwt>
<rscale>  2 0.12500000E+03</rscale>
<asrwt>0</asrwt>
<pdfrwt beam="1">  1       21 0.31005922E-02 0.12500000E+03</pdfrwt>
<pdfrwt beam="2">  1       21 0.29818697E-01 0.12500000E+03</pdfrwt>
<totfact> 0.63443692E+06</totfact>
</mgrwt>
</event>
<event>
 3    0  0.1711559E+001  0.1250000E+03  0.7546771E-02  0.1235069E+00
         21   -1    0    0  502  501  0.00000000000E+00  0.00000000000E+00  0.11399571418E+03  0.11399571418E+03  0.00000000000E+00 0.  1.
         21   -1    0    0  501  502 -0.00000000000E+00 -0.00000000000E+00 -0.34266639130E+02  0.34266639130E+02  0.00000000000E+00 0.  1.
         25    1    1    2    0    0  0.00000000000E+00  0.00000000000E+00  0.79729075046E+02  0.14826235331E+03  0.12500000000E+03 0.  0.
<mgrwt>
<rscale>  2 0.12500000E+03</rscale>
<asrwt>0</asrwt>
<pdfrwt beam="1">  1       21 0.17537802E-01 0.12500000E+03</pdfrwt>
<pdfrwt beam="2">  1       21 0.52717907E-02 0.12500000E+03</pdfrwt>
<totfact> 0.70978169E+06</totfact>
</mgrwt>
</event>
<event>
 3    0  0.1678490E+001  0.1250000E+03  0.7546771E-02  0.1235069E+00
         21   -1    0    0  502  501  0.00000000000E+00  0.00000000000E+00  0.29736785095E+02  0.29736785095E+02  0.00000000000E+00 0. -1.
         21   -1    0    0  501  502 -0.00000000000E+00 -0.00000000000E+00 -0.13136087131E+03  0.13136087131E+03  0.00000000000E+00 0. -1.
         25    1    1    2    0    0  0.00000000000E+00  0.00000000000E+00 -0.10162408621E+03  0.16109765640E+03  0.12500000000E+03 0.  0.
<mgrwt>
<rscale>  2 0.12500000E+03</rscale>
<asrwt>0</asrwt>
<pdfrwt beam="1">  1       21 0.45748899E-02 0.12500000E+03</pdfrwt>
<pdfrwt beam="2">  1       21 0.20209365E-01 0.12500000E+03</pdfrwt>
<totfact> 0.69385622E+06</totfact>
</mgrwt>
</event>
<event>
 3    0  0.1500494E+001  0.1250000E+03  0.7546771E-02  0.1235069E+00
         21   -1    0    0  502  501  0.00000000000E+00  0.00000000000E+00  0.41775736640E+03  0.41775736640E+03  0.00000000000E+00 0. -1.
         21   -1    0    0  501  502 -0.00000000000E+00 -0.00000000000E+00 -0.93505233281E+01  0.93505233281E+01  0.00000000000E+00 0. -1.
         25    1    1    2    0    0  0.00000000000E+00  0.00000000000E+00  0.40840684307E+03  0.42710788973E+03  0.12500000000E+03 0.  0.
<mgrwt>
<rscale>  2 0.12500000E+03</rscale>
<asrwt>0</asrwt>
<pdfrwt beam="1">  1       21 0.64270350E-01 0.12500000E+03</pdfrwt>
<pdfrwt beam="2">  1       21 0.14385424E-02 0.12500000E+03</pdfrwt>
<totfact> 0.46293802E+06</totfact>
</mgrwt>
</event>
<event>
 3    0  0.1668675E+001  0.1250000E+03  0.7546771E-02  0.1235069E+00
         21   -1    0    0  502  501  0.00000000000E+00  0.00000000000E+00  0.28795844535E+02  0.28795844535E+02  0.00000000000E+00 0. -1.
         21   -1    0    0  501  502 -0.00000000000E+00 -0.00000000000E+00 -0.13565325356E+03  0.13565325356E+03  0.00000000000E+00 0. -1.
         25    1    1    2    0    0  0.00000000000E+00  0.00000000000E+00 -0.10685740902E+03  0.16444909809E+03  0.12500000000E+03 0.  0.
<mgrwt>
<rscale>  2 0.12500000E+03</rscale>
<asrwt>0</asrwt>
<pdfrwt beam="1">  1       21 0.44301298E-02 0.12500000E+03</pdfrwt>
<pdfrwt beam="2">  1       21 0.20869732E-01 0.12500000E+03</pdfrwt>
<totfact> 0.68979909E+06</totfact>
</mgrwt>
</event>
<event>
 3    0  0.1368989E+001  0.1250000E+03  0.7546771E-02  0.1235069E+00
         21   -1    0    0  502  501  0.00000000000E+00  0.00000000000E+00  0.33403202182E+01  0.33403202182E+01  0.00000000000E+00 0.  1.
         21   -1    0    0  501  502 -0.00000000000E+00 -0.00000000000E+00 -0.11694238111E+04  0.11694238111E+04  0.00000000000E+00 0.  1.
         25    1    1    2    0    0  0.00000000000E+00  0.00000000000E+00 -0.11660834909E+04  0.11727641314E+04  0.12500000000E+03 0.  0.
<mgrwt>
<rscale>  2 0.12500000E+03</rscale>
<asrwt>0</asrwt>
<pdfrwt beam="1">  1       21 0.51389494E-03 0.12500000E+03</pdfrwt>
<pdfrwt beam="2">  1       21 0.17991152E+00 0.12500000E+03</pdfrwt>
<totfact> 0.19694722E+06</totfact>
</mgrwt>
</event>
<event>
 3    0  0.1700615E+001  0.1250000E+03  0.7546771E-02  0.1235069E+00
         21   -1    0    0  502  501  0.00000000000E+00  0.00000000000E+00  0.49100074697E+02  0.49100074697E+02  0.00000000000E+00 0. -1.
         21   -1    0    0  501  502 -0.00000000000E+00 -0.00000000000E+00 -0.79556905444E+02  0.79556905444E+02  0.00000000000E+00 0. -1.
         25    1    1    2    0    0  0.00000000000E+00  0.00000000000E+00 -0.30456830747E+02  0.12865698014E+03  0.12500000000E+03 0.  0.
<mgrwt>
<rscale>  2 0.12500000E+03</rscale>
<asrwt>0</asrwt>
<pdfrwt beam="1">  1       21 0.75538576E-02 0.12500000E+03</pdfrwt>
<pdfrwt beam="2">  1       21 0.12239524E-01 0.12500000E+03</pdfrwt>
<totfact> 0.73544991E+06</totfact>
</mgrwt>
</event>
<event>
 3    0  0.1523204E+001  0.1250000E+03  0.7546771E-02  0.1235069E+00
         21   -1    0    0  502  501  0.00000000000E+00  0.00000000000E+00  0.93574474584E+01  0.93574474584E+01  0.00000000000E+00 0.  1.
         21   -1    0    0  501  502 -0.00000000000E+00 -0.00000000000E+00 -0.41744824295E+03  0.41744824295E+03  0.00000000000E+00 0.  1.
         25    1    1    2    0    0  0.00000000000E+00  0.00000000000E+00 -0.40809079549E+03  0.42680569041E+03  0.12500000000E+03 0.  0.
<mgrwt>
<rscale>  2 0.12500000E+03</rscale>
<asrwt>0</asrwt>
<pdfrwt beam="1">  1       21 0.14396075E-02 0.12500000E+03</pdfrwt>
<pdfrwt beam="2">  1       21 0.64222797E-01 0.12500000E+03</pdfrwt>
<totfact> 0.46312742E+06</totfact>
</mgrwt>
</event>
<event>
 3    0  0.1707325E+001  0.1250000E+03  0.7546771E-02  0.1235069E+00
         21   -1    0    0  502  501  0.00000000000E+00  0.00000000000E+00  0.12038602030E+03  0.12038602030E+03  0.00000000000E+00 0.  1.
         21   -1    0    0  501  502 -0.00000000000E+00 -0.00000000000E+00 -0.32447704395E+02  0.32447704395E+02  0.00000000000E+00 0.  1.
         25    1    1    2    0    0  0.00000000000E+00  0.00000000000E+00  0.87938315904E+02  0.15283372469E+03  0.12500000000E+03 0.  0.
<mgrwt>
<rscale>  2 0.12500000E+03</rscale>
<asrwt>0</asrwt>
<pdfrwt beam="1">  1       21 0.18520926E-01 0.12500000E+03</pdfrwt>
<pdfrwt beam="2">  1       21 0.49919546E-02 0.12500000E+03</pdfrwt>
<totfact> 0.70405022E+06</totfact>
</mgrwt>
</event>
<event>
 3    0  0.1727534E+001  0.1250000E+03  0.7546771E-02  0.1235069E+00
         21   -1    0    0  502  501  0.00000000000E+00  0.00000000000E+00  0.52634537782E+02  0.52634537782E+02  0.00000000000E+00 0.  1.
         21   -1    0    0  501  502 -0.00000000000E+00 -0.00000000000E+00 -0.74214577815E+02  0.74214577815E+02  0.00000000000E+00 0.  1.
         25    1    1    2    0    0  0.00000000000E+00  0.00000000000E+00 -0.21580040032E+02  0.12684911560E+03  0.12500000000E+03 0.  0.
<mgrwt>
<rscale>  2 0.12500000E+03</rscale>
<asrwt>0</asrwt>
<pdfrwt beam="1">  1       21 0.80976212E-02 0.12500000E+03</pdfrwt>
<pdfrwt beam="2">  1       21 0.11417627E-01 0.12500000E+03</pdfrwt>
<totfact> 0.73789691E+06</totfact>
</mgrwt>
</event>
<event>
 3    0  0.1495746E+001  0.1250000E+03  0.7546771E-02  0.1235069E+00
         21   -1    0    0  502  501  0.00000000000E+00  0.00000000000E+00  0.97546156757E+01  0.97546156757E+01  0.00000000000E+00 0. -1.
         21   -1    0    0  501  502 -0.00000000000E+00 -0.00000000000E+00 -0.40045145087E+03  0.40045145087E+03  0.00000000000E+00 0. -1.
         25    1    1    2    0    0  0.00000000000E+00  0.00000000000E+00 -0.39069683519E+03  0.41020606654E+03  0.12500000000E+03 0.  0.
<mgrwt>
<rscale>  2 0.12500000E+03</rscale>
<asrwt>0</asrwt>
<pdfrwt beam="1">  1       21 0.15007102E-02 0.12500000E+03</pdfrwt>
<pdfrwt beam="2">  1       21 0.61607913E-01 0.12500000E+03</pdfrwt>
<totfact> 0.47371681E+06</totfact>
</mgrwt>
</event>
<event>
 3    0  0.1485495E+001  0.1250000E+03  0.7546771E-02  0.1235069E+00
         21   -1    0    0  502  501  0.00000000000E+00  0.00000000000E+00  0.45335114255E+03  0.45335114255E+03  0.00000000000E+00 0. -1.
         21   -1    0    0  501  502 -0.00000000000E+00 -0.00000000000E+00 -0.86163894459E+01  0.86163894459E+01  0.00000000000E+00 0. -1.
         25    1    1    2    0    0  0.00000000000E+00  0.00000000000E+00  0.44473475311E+03  0.46196753200E+03  0.12500000000E+03 0.  0.
<mgrwt>
<rscale>  2 0.12500000E+03</rscale>
<asrwt>0</asrwt>
<pdfrwt beam="1">  1       21 0.69746311E-01 0.12500000E+03</pdfrwt>
<pdfrwt beam="2">  1       21 0.13255987E-02 0.12500000E+03</pdfrwt>
<totfact> 0.44184718E+06</totfact>
</mgrwt>
</event>
<event>
 3    0  0.1566619E+001  0.1250000E+03  0.7546771E-02  0.1235069E+00
         21   -1    0    0  502  501  0.00000000000E+00  0.00000000000E+00  0.35941462809E+03  0.35941462809E+03  0.00000000000E+00 0.  1.
         21   -1    0    0  501  502 -0.00000000000E+00 -0.00000000000E+00 -0.10868366768E+02  0.10868366768E+02  0.00000000000E+00 0.  1.
         25    1    1    2    0    0  0.00000000000E+00  0.00000000000E+00  0.34854626132E+03  0.37028299485E+03  0.12500000000E+03 0.  0.
<mgrwt>
<rscale>  2 0.12500000E+03</rscale>
<asrwt>0</asrwt>
<pdfrwt beam="1">  1       21 0.55294549E-01 0.12500000E+03</pdfrwt>
<pdfrwt beam="2">  1       21 0.16720567E-02 0.12500000E+03</pdfrwt>
<totfact> 0.50074484E+06</totfact>
</mgrwt>
</event>
<event>
 3    0  0.1591854E+001  0.1250000E+03  0.7546771E-02  0.1235069E+00
         21   -1    0    0  502  501  0.00000000000E+00  0.00000000000E+00  0.24845017608E+03  0.24845017608E+03  0.00000000000E+00 0. -1.
         21   -1    0    0  501  502 -0.00000000000E+00 -0.00000000000E+00 -0.15722468229E+02  0.15722468229E+02  0.00000000000E+00 0. -1.
         25    1    1    2    0    0  0.00000000000E+00  0.00000000000E+00  0.23272770785E+03  0.26417264431E+03  0.12500000000E+03 0.  0.
<mgrwt>
<rscale>  2 0.12500000E+03</rscale>
<asrwt>0</asrwt>
<pdfrwt beam="1">  1       21 0.38223101E-01 0.12500000E+03</pdfrwt>
<pdfrwt beam="2">  1       21 0.24188414E-02 0.12500000E+03</pdfrwt>
<totfact> 0.58568926E+06</totfact>
</mgrwt>
</event>
<event>
 3    0  0.1705077E+001  0.1250000E+03  0.7546771E-02  0.1235069E+00
         21   -1    0    0  502  501  0.00000000000E+00  0.00000000000E+00  0.58750619149E+02  0.58750619149E+02  0.00000000000E+00 0. -1.
         21   -1    0    0  501  502 -0.00000000000E+00 -0.00000000000E+00 -0.66488660998E+02  0.66488660998E+02  0.00000000000E+00 0. -1.
         25    1    1    2    0    0  0.00000000000E+00  0.00000000000E+00 -0.77380418497E+01  0.12523928015E+03  0.12500000000E+03 0.  0.
<mgrwt>
<rscale>  2 0.12500000E+03</rscale>
<asrwt>0</asrwt>
<pdfrwt beam="1">  1       21 0.90385568E-02 0.12500000E+03</pdfrwt>
<pdfrwt beam="2">  1       21 0.10229025E-01 0.12500000E+03</pdfrwt>
<totfact> 0.74011269E+06</totfact>
</mgrwt>
</event>
<event>
 3    0  0.1686673E+001  0.1250000E+03  0.7546771E-02  0.1235069E+00
         21   -1    0    0  502  501  0.00000000000E+00  0.00000000000E+00  0.34268132955E+02  0.34268132955E+02  0.00000000000E+00 0. -1.
         21   -1    0    0  501  502 -0.00000000000E+00 -0.00000000000E+00 -0.11399074484E+03  0.11399074484E+03  0.00000000000E+00 0. -1.
         25    1    1    2    0    0  0.00000000000E+00  0.00000000000E+00 -0.79722611889E+02  0.14825887780E+03  0.12500000000E+03 0.  0.
<mgrwt>
<rscale>  2 0.12500000E+03</rscale>
<asrwt>0</asrwt>
<pdfrwt beam="1">  1       21 0.52720205E-02 0.12500000E+03</pdfrwt>
<pdfrwt beam="2">  1       21 0.17537037E-01 0.12500000E+03</pdfrwt>
<totfact> 0.70978608E+06</totfact>
</mgrwt>
</event>
<event>
 3    0  0.1418208E+001  0.1250000E+03  0.7546771E-02  0.1235069E+00
         21   -1    0    0  502  501  0.00000000000E+00  0.00000000000E+00  0.66358626692E+01  0.66358626692E+01  0.00000000000E+00 0.  1.
         21   -1    0    0  501  502 -0.00000000000E+00 -0.00000000000E+00 -0.58865745039E+03  0.58865745039E+03  0.00000000000E+00 0.  1.
         25    1    1    2    0    0  0.00000000000E+00  0.00000000000E+00 -0.58202158772E+03  0.59529331306E+03  0.12500000000E+03 0.  0.
<mgrwt>
<rscale>  2 0.12500000E+03</rscale>
<asrwt>0</asrwt>
<pdfrwt beam="1">  1       21 0.10209019E-02 0.12500000E+03</pdfrwt>
<pdfrwt beam="2">  1       21 0.90562693E-01 0.12500000E+03</pdfrwt>
<totfact> 0.37306351E+06</totfact>
</mgrwt>
</event>
<event>
 3    0  0.1507607E+001  0.1250000E+03  0.7546771E-02  0.1235069E+00
         21   -1    0    0  502  501  0.00000000000E+00  0.00000000000E+00  0.94264972841E+01  0.94264972841E+01  0.00000000000E+00 0. -1.
         21   -1    0    0  501  502 -0.00000000000E+00 -0.00000000000E+00 -0.41439040211E+03  0.41439040211E+03  0.00000000000E+00 0. -1.
         25    1    1    2    0    0  0.00000000000E+00  0.00000000000E+00 -0.40496390482E+03  0.42381689939E+03  0.12500000000E+03 0.  0.
<mgrwt>
<rscale>  2 0.12500000E+03</rscale>
<asrwt>0</asrwt>
<pdfrwt beam="1">  1       21 0.14502301E-02 0.12500000E+03</pdfrwt>
<pdfrwt beam="2">  1       21 0.63752380E-01 0.12500000E+03</pdfrwt>
<totfact> 0.46500704E+06</totfact>
</mgrwt>
</event>
<event>
 3    0  0.1639718E+001  0.1250000E+03  0.7546771E-02  0.1235069E+00
         21   -1    0    0  502  501  0.00000000000E+00  0.00000000000E+00  0.18179020031E+03  0.18179020031E+03  0.00000000000E+00 0. -1.
         21   -1    0    0  501  502 -0.00000000000E+00 -0.00000000000E+00 -0.21487681917E+02  0.21487681917E+02  0.00000000000E+00 0. -1.
         25    1    1    2    0    0  0.00000000000E+00  0.00000000000E+00  0.16030251840E+03  0.20327788223E+03  0.12500000000E+03 0.  0.
<mgrwt>
<rscale>  2 0.12500000E+03</rscale>
<asrwt>0</asrwt>
<pdfrwt beam="1">  1       21 0.27967722E-01 0.12500000E+03</pdfrwt>
<pdfrwt beam="2">  1       21 0.33057973E-02 0.12500000E+03</pdfrwt>
<totfact> 0.64573794E+06</totfact>
</mgrwt>
</event>
<event>
 3    0  0.1658485E+001  0.1250000E+03  0.7546771E-02  0.1235069E+00
         21   -1    0    0  502  501  0.00000000000E+00  0.00000000000E+00  0.25630876643E+02  0.25630876643E+02  0.00000000000E+00 0. -1.
         21   -1    0    0  501  502 -0.00000000000E+00 -0.00000000000E+00 -0.15240407320E+03  0.15240407320E+03  0.00000000000E+00 0. -1.
         25    1    1    2    0    0  0.00000000000E+00  0.00000000000E+00 -0.12677319656E+03  0.17803494984E+03  0.12500000000E+03 0.  0.
<mgrwt>
<rscale>  2 0.12500000E+03</rscale>
<asrwt>0</asrwt>
<pdfrwt beam="1">  1       21 0.39432118E-02 0.12500000E+03</pdfrwt>
<pdfrwt beam="2">  1       21 0.23446781E-01 0.12500000E+03</pdfrwt>
<totfact> 0.67377678E+06</totfact>
</mgrwt>
</event>
<event>
 3    0  0.1690043E+001  0.1250000E+03  0.7546771E-02  0.1235069E+00
         21   -1    0    0  502  501  0.00000000000E+00  0.00000000000E+00  0.13673157994E+03  0.13673157994E+03  0.00000000000E+00 0.  1.
         21   -1    0    0  501  502 -0.00000000000E+00 -0.00000000000E+00 -0.28568747627E+02  0.28568747627E+02  0.00000000000E+00 0.  1.
         25    1    1    2    0    0  0.00000000000E+00  0.00000000000E+00  0.10816283231E+03  0.16530032757E+03  0.12500000000E+03 0.  0.
<mgrwt>
<rscale>  2 0.12500000E+03</rscale>
<asrwt>0</asrwt>
<pdfrwt beam="1">  1       21 0.21035627E-01 0.12500000E+03</pdfrwt>
<pdfrwt beam="2">  1       21 0.43951920E-02 0.12500000E+03</pdfrwt>
<totfact> 0.68877583E+06</totfact>
</mgrwt>
</event>
<event>
 3    0  0.1699028E+001  0.1250000E+03  0.7546771E-02  0.1235069E+00
         21   -1    0    0  502  501  0.00000000000E+00  0.00000000000E+00  0.46906557351E+02  0.46906557351E+02  0.00000000000E+00 0. -1.
         21   -1    0    0  501  502 -0.00000000000E+00 -0.00000000000E+00 -0.83277269119E+02  0.83277269119E+02  0.00000000000E+00 0. -1.
         25    1    1    2    0    0  0.00000000000E+00  0.00000000000E+00 -0.36370711768E+02  0.13018382647E+03  0.12500000000E+03 0.  0.
<mgrwt>
<rscale>  2 0.12500000E+03</rscale>
<asrwt>0</asrwt>
<pdfrwt beam="1">  1       21 0.72163934E-02 0.12500000E+03</pdfrwt>
<pdfrwt beam="2">  1       21 0.12811888E-01 0.12500000E+03</pdfrwt>
<totfact> 0.73340357E+06</totfact>
</mgrwt>
</event>
<event>
 3    0  0.1704311E+001  0.1250000E+03  0.7546771E-02  0.1235069E+00
         21   -1    0    0  502  501  0.00000000000E+00  0.00000000000E+00  0.56483883341E+02  0.56483883341E+02  0.00000000000E+00 0. -1.
         21   -1    0    0  501  502 -0.00000000000E+00 -0.00000000000E+00 -0.69156895187E+02  0.69156895187E+02  0.00000000000E+00 0. -1.
         25    1    1    2    0    0  0.00000000000E+00  0.00000000000E+00 -0.12673011846E+02  0.12564077853E+03  0.12500000000E+03 0.  0.
<mgrwt>
<rscale>  2 0.12500000E+03</rscale>
<asrwt>0</asrwt>
<pdfrwt beam="1">  1       21 0.86898283E-02 0.12500000E+03</pdfrwt>
<pdfrwt beam="2">  1       21 0.10639522E-01 0.12500000E+03</pdfrwt>
<totfact> 0.73955767E+06</totfact>
</mgrwt>
</event>
<event>
 3    0  0.1727198E+001  0.1250000E+03  0.7546771E-02  0.1235069E+00
         21   -1    0    0  502  501  0.00000000000E+00  0.00000000000E+00  0.77794787320E+02  0.77794787320E+02  0.00000000000E+00 0.  1.
         21   -1    0    0  501  502 -0.00000000000E+00 -0.00000000000E+00 -0.50212233166E+02  0.50212233166E+02  0.00000000000E+00 0.  1.
         25    1    1    2    0    0  0.00000000000E+00  0.00000000000E+00  0.27582554154E+02  0.12800702049E+03  0.12500000000E+03 0.  0.
<mgrwt>
<rscale>  2 0.12500000E+03</rscale>
<asrwt>0</asrwt>
<pdfrwt beam="1">  1       21 0.11968429E-01 0.12500000E+03</pdfrwt>
<pdfrwt beam="2">  1       21 0.77249589E-02 0.12500000E+03</pdfrwt>
<totfact> 0.73632611E+06</totfact>
</mgrwt>
</event>
<event>
 3    0  0.1715442E+001  0.1250000E+03  0.7546771E-02  0.1235069E+00
         21   -1    0    0  502  501  0.00000000000E+00  0.00000000000E+00  0.10216692982E+03  0.10216692982E+03  0.00000000000E+00 0.  1.
         21   -1    0    0  501  502 -0.00000000000E+00 -0.00000000000E+00 -0.38233996137E+02  0.38233996137E+02  0.00000000000E+00 0.  1.
         25    1    1    2    0    0  0.00000000000E+00  0.00000000000E+00  0.63932933681E+02  0.14040092595E+03  0.12500000000E+03 0.  0.
<mgrwt>
<rscale>  2 0.12500000E+03</rscale>
<asrwt>0</asrwt>
<pdfrwt beam="1">  1       21 0.15717989E-01 0.12500000E+03</pdfrwt>
<pdfrwt beam="2">  1       21 0.58821533E-02 0.12500000E+03</pdfrwt>
<totfact> 0.71987011E+06</totfact>
</mgrwt>
</event>
<event>
 3    0  0.1368989E+001  0.1250000E+03  0.7546771E-02  0.1235069E+00
         21   -1    0    0  502  501  0.00000000000E+00  0.00000000000E+00  0.39297958249E+01  0.39297958249E+01  0.00000000000E+00 0. -1.
         21   -1    0    0  501  502 -0.00000000000E+00 -0.00000000000E+00 -0.99400838468E+03  0.99400838468E+03  0.00000000000E+00 0. -1.
         25    1    1    2    0    0  0.00000000000E+00  0.00000000000E+00 -0.99007858886E+03  0.99793818051E+03  0.12500000000E+03 0.  0.
<mgrwt>
<rscale>  2 0.12500000E+03</rscale>
<asrwt>0</asrwt>
<pdfrwt beam="1">  1       21 0.60458422E-03 0.12500000E+03</pdfrwt>
<pdfrwt beam="2">  1       21 0.15292430E+00 0.12500000E+03</pdfrwt>
<totfact> 0.23670270E+06</totfact>
</mgrwt>
</event>
<event>
 3    0  0.1653235E+001  0.1250000E+03  0.7546771E-02  0.1235069E+00
         21   -1    0    0  502  501  0.00000000000E+00  0.00000000000E+00  0.22912247169E+02  0.22912247169E+02  0.00000000000E+00 0. -1.
         21   -1    0    0  501  502 -0.00000000000E+00 -0.00000000000E+00 -0.17048742410E+03  0.17048742410E+03  0.00000000000E+00 0. -1.
         25    1    1    2    0    0  0.00000000000E+00  0.00000000000E+00 -0.14757517693E+03  0.19339967126E+03  0.12500000000E+03 0.  0.
<mgrwt>
<rscale>  2 0.12500000E+03</rscale>
<asrwt>0</asrwt>
<pdfrwt beam="1">  1       21 0.35249611E-02 0.12500000E+03</pdfrwt>
<pdfrwt beam="2">  1       21 0.26228835E-01 0.12500000E+03</pdfrwt>
<totfact> 0.65646600E+06</totfact>
</mgrwt>
</event>
<event>
 3    0  0.1729905E+001  0.1250000E+03  0.7546771E-02  0.1235069E+00
         21   -1    0    0  502  501  0.00000000000E+00  0.00000000000E+00  0.64249153809E+02  0.64249153809E+02  0.00000000000E+00 0.  1.
         21   -1    0    0  501  502 -0.00000000000E+00 -0.00000000000E+00 -0.60798466103E+02  0.60798466103E+02  0.00000000000E+00 0.  1.
         25    1    1    2    0    0  0.00000000000E+00  0.00000000000E+00  0.34506877067E+01  0.12504761991E+03  0.12500000000E+03 0.  0.
<mgrwt>
<rscale>  2 0.12500000E+03</rscale>
<asrwt>0</asrwt>
<pdfrwt beam="1">  1       21 0.98844851E-02 0.12500000E+03</pdfrwt>
<pdfrwt beam="2">  1       21 0.93536102E-02 0.12500000E+03</pdfrwt>
<totfact> 0.74037150E+06</totfact>
</mgrwt>
</event>
<event>
 3    0  0.1496987E+001  0.1250000E+03  0.7546771E-02  0.1235069E+00
         21   -1    0    0  502  501  0.00000000000E+00  0.00000000000E+00  0.90712754381E+01  0.90712754381E+01  0.00000000000E+00 0.  1.
         21   -1    0    0  501  502 -0.00000000000E+00 -0.00000000000E+00 -0.43061750540E+03  0.43061750540E+03  0.00000000000E+00 0.  1.
         25    1    1    2    0    0  0.00000000000E+00  0.00000000000E+00 -0.42154622997E+03  0.43968878084E+03  0.12500000000E+03 0.  0.
<mgrwt>
<rscale>  2 0.12500000E+03</rscale>
<asrwt>0</asrwt>
<pdfrwt beam="1">  1       21 0.13955808E-02 0.12500000E+03</pdfrwt>
<pdfrwt beam="2">  1       21 0.66248851E-01 0.12500000E+03</pdfrwt>
<totfact> 0.45515620E+06</totfact>
</mgrwt>
</event>
<event>
 3    0  0.1693671E+001  0.1250000E+03  0.7546771E-02  0.1235069E+00
         21   -1    0    0  502  501  0.00000000000E+00  0.00000000000E+00  0.38827972110E+02  0.38827972110E+02  0.00000000000E+00 0. -1.
         21   -1    0    0  501  502 -0.00000000000E+00 -0.00000000000E+00 -0.10060401787E+03  0.10060401787E+03  0.00000000000E+00 0. -1.
         25    1    1    2    0    0  0.00000000000E+00  0.00000000000E+00 -0.61776045760E+02  0.13943198998E+03  0.12500000000E+03 0.  0.
<mgrwt>
<rscale>  2 0.12500000E+03</rscale>
<asrwt>0</asrwt>
<pdfrwt beam="1">  1       21 0.59735342E-02 0.12500000E+03</pdfrwt>
<pdfrwt beam="2">  1       21 0.15477541E-01 0.12500000E+03</pdfrwt>
<totfact> 0.72113548E+06</totfact>
</mgrwt>
</event>
<event>
 3    0  0.1368989E+001  0.1250000E+03  0.7546771E-02  0.1235069E+00
         21   -1    0    0  502  501  0.00000000000E+00  0.00000000000E+00  0.17119679053E+04  0.17119679053E+04  0.00000000000E+00 0. -1.
         21   -1    0    0  501  502 -0.00000000000E+00 -0.00000000000E+00 -0.22817308595E+01  0.22817308595E+01  0.00000000000E+00 0. -1.
         25    1    1    2    0    0  0.00000000000E+00  0.00000000000E+00  0.17096861745E+04  0.17142496362E+04  0.12500000000E+03 0.  0.
<mgrwt>
<rscale>  2 0.12500000E+03</rscale>
<asrwt>0</asrwt>
<pdfrwt beam="1">  1       21 0.26337865E+00 0.12500000E+03</pdfrwt>
<pdfrwt beam="2">  1       21 0.35103689E-03 0.12500000E+03</pdfrwt>
<totfact> 0.11092870E+06</totfact>
</mgrwt>
</event>
<event>
 3    0  0.1398902E+001  0.1250000E+03  0.7546771E-02  0.1235069E+00
         21   -1    0    0  502  501  0.00000000000E+00  0.00000000000E+00  0.64014288651E+03  0.64014288651E+03  0.00000000000E+00 0.  1.
         21   -1    0    0  501  502 -0.00000000000E+00 -0.00000000000E+00 -0.61021532573E+01  0.61021532573E+01  0.00000000000E+00 0.  1.
         25    1    1    2    0    0  0.00000000000E+00  0.00000000000E+00  0.63404073325E+03  0.64624503976E+03  0.12500000000E+03 0.  0.
<mgrwt>
<rscale>  2 0.12500000E+03</rscale>
<asrwt>0</asrwt>
<pdfrwt beam="1">  1       21 0.98483468E-01 0.12500000E+03</pdfrwt>
<pdfrwt beam="2">  1       21 0.93879331E-03 0.12500000E+03</pdfrwt>
<totfact> 0.35081196E+06</totfact>
</mgrwt>
</event>
<event>
 3    0  0.1368989E+001  0.1250000E+03  0.7546771E-02  0.1235069E+00
         21   -1    0    0  502  501  0.00000000000E+00  0.00000000000E+00  0.25172315474E+04  0.25172315474E+04  0.00000000000E+00 0. -1.
         21   -1    0    0  501  502 -0.00000000000E+00 -0.00000000000E+00 -0.15518040063E+01  0.15518040063E+01  0.00000000000E+00 0. -1.
         25    1    1    2    0    0  0.00000000000E+00  0.00000000000E+00  0.25156797434E+04  0.25187833514E+04  0.12500000000E+03 0.  0.
<mgrwt>
<rscale>  2 0.12500000E+03</rscale>
<asrwt>0</asrwt>
<pdfrwt beam="1">  1       21 0.38726313E+00 0.12500000E+03</pdfrwt>
<pdfrwt beam="2">  1       21 0.23874109E-03 0.12500000E+03</pdfrwt>
<totfact> 0.39091691E+05</totfact>
</mgrwt>
</event>
<event>
 3    0  0.1562899E+001  0.1250000E+03  0.7546771E-02  0.1235069E+00
         21   -1    0    0  502  501  0.00000000000E+00  0.00000000000E+00  0.36115584191E+03  0.36115584191E+03  0.00000000000E+00 0.  1.
         21   -1    0    0  501  502 -0.00000000000E+00 -0.00000000000E+00 -0.10815967919E+02  0.10815967919E+02  0.00000000000E+00 0.  1.
         25    1    1    2    0    0  0.00000000000E+00  0.00000000000E+00  0.35033987399E+03  0.37197180983E+03  0.12500000000E+03 0.  0.
<mgrwt>
<rscale>  2 0.12500000E+03</rscale>
<asrwt>0</asrwt>
<pdfrwt beam="1">  1       21 0.55562428E-01 0.12500000E+03</pdfrwt>
<pdfrwt beam="2">  1       21 0.16639953E-02 0.12500000E+03</pdfrwt>
<totfact> 0.49955574E+06</totfact>
</mgrwt>
</event>
<event>
 3    0  0.1726001E+001  0.1250000E+03  0.7546771E-02  0.1235069E+00
         21   -1    0    0  502  501  0.00000000000E+00  0.00000000000E+00  0.84294635219E+02  0.84294635219E+02  0.00000000000E+00 0.  1.
         21   -1    0    0  501  502 -0.00000000000E+00 -0.00000000000E+00 -0.46340434238E+02  0.46340434238E+02  0.00000000000E+00 0.  1.
         25    1    1    2    0    0  0.00000000000E+00  0.00000000000E+00  0.37954200981E+02  0.13063506946E+03  0.12500000000E+03 0.  0.
<mgrwt>
<rscale>  2 0.12500000E+03</rscale>
<asrwt>0</asrwt>
<pdfrwt beam="1">  1       21 0.12968405E-01 0.12500000E+03</pdfrwt>
<pdfrwt beam="2">  1       21 0.71292976E-02 0.12500000E+03</pdfrwt>
<totfact> 0.73279892E+06</totfact>
</mgrwt>
</event>
<event>
 3    0  0.1545113E+001  0.1250000E+03  0.7546771E-02  0.1235069E+00
         21   -1    0    0  502  501  0.00000000000E+00  0.00000000000E+00  0.11309256160E+02  0.11309256160E+02  0.00000000000E+00 0.  1.
         21   -1    0    0  501  502 -0.00000000000E+00 -0.00000000000E+00 -0.34540291108E+03  0.34540291108E+03  0.00000000000E+00 0.  1.
         25    1    1    2    0    0  0.00000000000E+00  0.00000000000E+00 -0.33409365492E+03  0.35671216724E+03  0.12500000000E+03 0.  0.
<mgrwt>
<rscale>  2 0.12500000E+03</rscale>
<asrwt>0</asrwt>
<pdfrwt beam="1">  1       21 0.17398857E-02 0.12500000E+03</pdfrwt>
<pdfrwt beam="2">  1       21 0.53138907E-01 0.12500000E+03</pdfrwt>
<totfact> 0.51046509E+06</totfact>
</mgrwt>
</event>
<event>
 3    0  0.1368989E+001  0.1250000E+03  0.7546771E-02  0.1235069E+00
         21   -1    0    0  502  501  0.00000000000E+00  0.00000000000E+00  0.40092750796E+01  0.40092750796E+01  0.00000000000E+00 0.  1.
         21   -1    0    0  501  502 -0.00000000000E+00 -0.00000000000E+00 -0.97430331480E+03  0.97430331480E+03  0.00000000000E+00 0.  1.
         25    1    1    2    0    0  0.00000000000E+00  0.00000000000E+00 -0.97029403972E+03  0.97831258988E+03  0.12500000000E+03 0.  0.
<mgrwt>
<rscale>  2 0.12500000E+03</rscale>
<asrwt>0</asrwt>
<pdfrwt beam="1">  1       21 0.61681149E-03 0.12500000E+03</pdfrwt>
<pdfrwt beam="2">  1       21 0.14989283E+00 0.12500000E+03</pdfrwt>
<totfact> 0.24168384E+06</totfact>
</mgrwt>
</event>
<event>
 3    0  0.1368989E+001  0.1250000E+03  0.7546771E-02  0.1235069E+00
         21   -1    0    0  502  501  0.00000000000E+00  0.00000000000E+00  0.17931301522E+04  0.17931301522E+04  0.00000000000E+00 0.  1.
         21   -1    0    0  501  502 -0.00000000000E+00 -0.00000000000E+00 -0.21784531342E+01  0.21784531342E+01  0.00000000000E+00 0.  1.
         25    1    1    2    0    0  0.00000000000E+00  0.00000000000E+00  0.17909516990E+04  0.17953086053E+04  0.12500000000E+03 0.  0.
<mgrwt>
<rscale>  2 0.12500000E+03</rscale>
<asrwt>0</asrwt>
<pdfrwt beam="1">  1       21 0.27586500E+00 0.12500000E+03</pdfrwt>
<pdfrwt beam="2">  1       21 0.33514807E-03 0.12500000E+03</pdfrwt>
<totfact> 0.10124086E+06</totfact>
</mgrwt>
</event>
<event>
 3    0  0.1663140E+001  0.1250000E+03  0.7546771E-02  0.1235069E+00
         21   -1    0    0  502  501  0.00000000000E+00  0.00000000000E+00  0.23480354129E+02  0.23480354129E+02  0.00000000000E+00 0. -1.
         21   -1    0    0  501  502 -0.00000000000E+00 -0.00000000000E+00 -0.16636248238E+03  0.16636248238E+03  0.00000000000E+00 0. -1.
         25    1    1    2    0    0  0.00000000000E+00  0.00000000000E+00 -0.14288212825E+03  0.18984283651E+03  0.12500000000E+03 0.  0.
<mgrwt>
<rscale>  2 0.12500000E+03</rscale>
<asrwt>0</asrwt>
<pdfrwt beam="1">  1       21 0.36123620E-02 0.12500000E+03</pdfrwt>
<pdfrwt beam="2">  1       21 0.25594229E-01 0.12500000E+03</pdfrwt>
<totfact> 0.66039934E+06</totfact>
</mgrwt>
</event>
<event>
 3    0  0.1539688E+001  0.1250000E+03  0.7546771E-02  0.1235069E+00
         21   -1    0    0  502  501  0.00000000000E+00  0.00000000000E+00  0.37215637225E+03  0.37215637225E+03  0.00000000000E+00 0.  1.
         21   -1    0    0  501  502 -0.00000000000E+00 -0.00000000000E+00 -0.10496259882E+02  0.10496259882E+02  0.00000000000E+00 0.  1.
         25    1    1    2    0    0  0.00000000000E+00  0.00000000000E+00  0.36166011237E+03  0.38265263213E+03  0.12500000000E+03 0.  0.
<mgrwt>
<rscale>  2 0.12500000E+03</rscale>
<asrwt>0</asrwt>
<pdfrwt beam="1">  1       21 0.57254816E-01 0.12500000E+03</pdfrwt>
<pdfrwt beam="2">  1       21 0.16148095E-02 0.12500000E+03</pdfrwt>
<totfact> 0.49213679E+06</totfact>
</mgrwt>
</event>
<event>
 3    0  0.1387168E+001  0.1250000E+03  0.7546771E-02  0.1235069E+00
         21   -1    0    0  502  501  0.00000000000E+00  0.00000000000E+00  0.56676313030E+01  0.56676313030E+01  0.00000000000E+00 0.  1.
         21   -1    0    0  501  502 -0.00000000000E+00 -0.00000000000E+00 -0.68922090926E+03  0.68922090926E+03  0.00000000000E+00 0.  1.
         25    1    1    2    0    0  0.00000000000E+00  0.00000000000E+00 -0.68355327796E+03  0.69488854057E+03  0.12500000000E+03 0.  0.
<mgrwt>
<rscale>  2 0.12500000E+03</rscale>
<asrwt>0</asrwt>
<pdfrwt beam="1">  1       21 0.87194373E-03 0.12500000E+03</pdfrwt>
<pdfrwt beam="2">  1       21 0.10603393E+00 0.12500000E+03</pdfrwt>
<totfact> 0.33108150E+06</totfact>
</mgrwt>
</event>
<event>
 3    0  0.1569362E+001  0.1250000E+03  0.7546771E-02  0.1235069E+00
         21   -1    0    0  502  501  0.00000000000E+00  0.00000000000E+00  0.13917804861E+02  0.13917804861E+02  0.00000000000E+00 0. -1.
         21   -1    0    0  501  502 -0.00000000000E+00 -0.00000000000E+00 -0.28066566812E+03  0.28066566812E+03  0.00000000000E+00 0. -1.
         25    1    1    2    0    0  0.00000000000E+00  0.00000000000E+00 -0.26674786326E+03  0.29458347298E+03  0.12500000000E+03 0.  0.
<mgrwt>
<rscale>  2 0.12500000E+03</rscale>
<asrwt>0</asrwt>
<pdfrwt beam="1">  1       21 0.21412008E-02 0.12500000E+03</pdfrwt>
<pdfrwt beam="2">  1       21 0.43179332E-01 0.12500000E+03</pdfrwt>
<totfact> 0.55909334E+06</totfact>
</mgrwt>
</event>
<event>
 3    0  0.1687933E+001  0.1250000E+03  0.7546771E-02  0.1235069E+00
         21   -1    0    0  502  501  0.00000000000E+00  0.00000000000E+00  0.11811018039E+03  0.11811018039E+03  0.00000000000E+00 0. -1.
         21   -1    0    0  501  502 -0.00000000000E+00 -0.00000000000E+00 -0.33072932300E+02  0.33072932300E+02  0.00000000000E+00 0. -1.
         25    1    1    2    0    0  0.00000000000E+00  0.00000000000E+00  0.85037248091E+02  0.15118311269E+03  0.12500000000E+03 0.  0.
<mgrwt>
<rscale>  2 0.12500000E+03</rscale>
<asrwt>0</asrwt>
<pdfrwt beam="1">  1       21 0.18170797E-01 0.12500000E+03</pdfrwt>
<pdfrwt beam="2">  1       21 0.50881435E-02 0.12500000E+03</pdfrwt>
<totfact> 0.70610895E+06</totfact>
</mgrwt>
</event>
<event>
 3    0  0.1464511E+001  0.1250000E+03  0.7546771E-02  0.1235069E+00
         21   -1    0    0  502  501  0.00000000000E+00  0.00000000000E+00  0.46435510133E+03  0.46435510133E+03  0.00000000000E+00 0. -1.
         21   -1    0    0  501  502 -0.00000000000E+00 -0.00000000000E+00 -0.84122043427E+01  0.84122043427E+01  0.00000000000E+00 0. -1.
         25    1    1    2    0    0  0.00000000000E+00  0.00000000000E+00  0.45594289699E+03  0.47276730568E+03  0.12500000000E+03 0.  0.
<mgrwt>
<rscale>  2 0.12500000E+03</rscale>
<asrwt>0</asrwt>
<pdfrwt beam="1">  1       21 0.71439226E-01 0.12500000E+03</pdfrwt>
<pdfrwt beam="2">  1       21 0.12941856E-02 0.12500000E+03</pdfrwt>
<totfact> 0.43560547E+06</totfact>
</mgrwt>
</event>
<event>
 3    0  0.1368989E+001  0.1250000E+03  0.7546771E-02  0.1235069E+00
         21   -1    0    0  502  501  0.00000000000E+00  0.00000000000E+00  0.55873361274E+01  0.55873361274E+01  0.00000000000E+00 0. -1.
         21   -1    0    0  501  502 -0.00000000000E+00 -0.00000000000E+00 -0.69912564967E+03  0.69912564967E+03  0.00000000000E+00 0. -1.
         25    1    1    2    0    0  0.00000000000E+00  0.00000000000E+00 -0.69353831354E+03  0.70471298580E+03  0.12500000000E+03 0.  0.
<mgrwt>
<rscale>  2 0.12500000E+03</rscale>
<asrwt>0</asrwt>
<pdfrwt beam="1">  1       21 0.85959048E-03 0.12500000E+03</pdfrwt>
<pdfrwt beam="2">  1       21 0.10755775E+00 0.12500000E+03</pdfrwt>
<totfact> 0.32729238E+06</totfact>
</mgrwt>
</event>
<event>
 3    0  0.1407455E+001  0.1250000E+03  0.7546771E-02  0.1235069E+00
         21   -1    0    0  502  501  0.00000000000E+00  0.00000000000E+00  0.62747199869E+01  0.62747199869E+01  0.00000000000E+00 0. -1.
         21   -1    0    0  501  502 -0.00000000000E+00 -0.00000000000E+00 -0.62253774003E+03  0.62253774003E+03  0.00000000000E+00 0. -1.
         25    1    1    2    0    0  0.00000000000E+00  0.00000000000E+00 -0.61626302004E+03  0.62881246002E+03  0.12500000000E+03 0.  0.
<mgrwt>
<rscale>  2 0.12500000E+03</rscale>
<asrwt>0</asrwt>
<pdfrwt beam="1">  1       21 0.96534134E-03 0.12500000E+03</pdfrwt>
<pdfrwt beam="2">  1       21 0.95775056E-01 0.12500000E+03</pdfrwt>
<totfact> 0.35821205E+06</totfact>
</mgrwt>
</event>
<event>
 3    0  0.1540551E+001  0.1250000E+03  0.7546771E-02  0.1235069E+00
         21   -1    0    0  502  501  0.00000000000E+00  0.00000000000E+00  0.34796226172E+03  0.34796226172E+03  0.00000000000E+00 0.  1.
         21   -1    0    0  501  502 -0.00000000000E+00 -0.00000000000E+00 -0.11226073715E+02  0.11226073715E+02  0.00000000000E+00 0.  1.
         25    1    1    2    0    0  0.00000000000E+00  0.00000000000E+00  0.33673618801E+03  0.35918833544E+03  0.12500000000E+03 0.  0.
<mgrwt>
<rscale>  2 0.12500000E+03</rscale>
<asrwt>0</asrwt>
<pdfrwt beam="1">  1       21 0.53532647E-01 0.12500000E+03</pdfrwt>
<pdfrwt beam="2">  1       21 0.17270885E-02 0.12500000E+03</pdfrwt>
<totfact> 0.50866928E+06</totfact>
</mgrwt>
</event>
<event>
 3    0  0.1683298E+001  0.1250000E+03  0.7546771E-02  0.1235069E+00
         21   -1    0    0  502  501  0.00000000000E+00  0.00000000000E+00  0.25690894539E+02  0.25690894539E+02  0.00000000000E+00 0.  1.
         21   -1    0    0  501  502 -0.00000000000E+00 -0.00000000000E+00 -0.15204803375E+03  0.15204803375E+03  0.00000000000E+00 0.  1.
         25    1    1    2    0    0  0.00000000000E+00  0.00000000000E+00 -0.12635713921E+03  0.17773892829E+03  0.12500000000E+03 0.  0.
<mgrwt>
<rscale>  2 0.12500000E+03</rscale>
<asrwt>0</asrwt>
<pdfrwt beam="1">  1       21 0.39524454E-02 0.12500000E+03</pdfrwt>
<pdfrwt beam="2">  1       21 0.23392005E-01 0.12500000E+03</pdfrwt>
<totfact> 0.67411871E+06</totfact>
</mgrwt>
</event>
<event>
 3    0  0.1649689E+001  0.1250000E+03  0.7546771E-02  0.1235069E+00
         21   -1    0    0  502  501  0.00000000000E+00  0.00000000000E+00  0.20029891037E+02  0.20029891037E+02  0.00000000000E+00 0.  1.
         21   -1    0    0  501  502 -0.00000000000E+00 -0.00000000000E+00 -0.19502103096E+03  0.19502103096E+03  0.00000000000E+00 0.  1.
         25    1    1    2    0    0  0.00000000000E+00  0.00000000000E+00 -0.17499113992E+03  0.21505092199E+03  0.12500000000E+03 0.  0.
<mgrwt>
<rscale>  2 0.12500000E+03</rscale>
<asrwt>0</asrwt>
<pdfrwt beam="1">  1       21 0.30815218E-02 0.12500000E+03</pdfrwt>
<pdfrwt beam="2">  1       21 0.30003234E-01 0.12500000E+03</pdfrwt>
<totfact> 0.63332009E+06</totfact>
</mgrwt>
</event>
<event>
 3    0  0.1368989E+001  0.1250000E+03  0.7546771E-02  0.1235069E+00
         21   -1    0    0  502  501  0.00000000000E+00  0.00000000000E+00  0.54980801515E+01  0.54980801515E+01  0.00000000000E+00 0.  1.
         21   -1    0    0  501  502 -0.00000000000E+00 -0.00000000000E+00 -0.71047527362E+03  0.71047527362E+03  0.00000000000E+00 0.  1.
         25    1    1    2    0    0  0.00000000000E+00  0.00000000000E+00 -0.70497719347E+03  0.71597335377E+03  0.12500000000E+03 0.  0.
<mgrwt>
<rscale>  2 0.12500000E+03</rscale>
<asrwt>0</asrwt>
<pdfrwt beam="1">  1       21 0.84585905E-03 0.12500000E+03</pdfrwt>
<pdfrwt beam="2">  1       21 0.10930381E+00 0.12500000E+03</pdfrwt>
<totfact> 0.32303360E+06</totfact>
</mgrwt>
</event>
<event>
 3    0  0.1556858E+001  0.1250000E+03  0.7546771E-02  0.1235069E+00
         21   -1    0    0  502  501  0.00000000000E+00  0.00000000000E+00  0.12242055650E+02  0.12242055650E+02  0.00000000000E+00 0. -1.
         21   -1    0    0  501  502 -0.00000000000E+00 -0.00000000000E+00 -0.31908448317E+03  0.31908448317E+03  0.00000000000E+00 0. -1.
         25    1    1    2    0    0  0.00000000000E+00  0.00000000000E+00 -0.30684242752E+03  0.33132653882E+03  0.12500000000E+03 0.  0.
<mgrwt>
<rscale>  2 0.12500000E+03</rscale>
<asrwt>0</asrwt>
<pdfrwt beam="1">  1       21 0.18833931E-02 0.12500000E+03</pdfrwt>
<pdfrwt beam="2">  1       21 0.49089921E-01 0.12500000E+03</pdfrwt>
<totfact> 0.52947803E+06</totfact>
</mgrwt>
</event>
<event>
 3    0  0.1644606E+001  0.1250000E+03  0.7546771E-02  0.1235069E+00
         21   -1    0    0  502  501  0.00000000000E+00  0.00000000000E+00  0.19710559847E+03  0.19710559847E+03  0.00000000000E+00 0. -1.
         21   -1    0    0  501  502 -0.00000000000E+00 -0.00000000000E+00 -0.19818057074E+02  0.19818057074E+02  0.00000000000E+00 0. -1.
         25    1    1    2    0    0  0.00000000000E+00  0.00000000000E+00  0.17728754140E+03  0.21692365554E+03  0.12500000000E+03 0.  0.
<mgrwt>
<rscale>  2 0.12500000E+03</rscale>
<asrwt>0</asrwt>
<pdfrwt beam="1">  1       21 0.30323937E-01 0.12500000E+03</pdfrwt>
<pdfrwt beam="2">  1       21 0.30489320E-02 0.12500000E+03</pdfrwt>
<totfact> 0.63138370E+06</totfact>
</mgrwt>
</event>
<event>
 3    0  0.1368989E+001  0.1250000E+03  0.7546771E-02  0.1235069E+00
         21   -1    0    0  502  501  0.00000000000E+00  0.00000000000E+00  0.26963248445E+01  0.26963248445E+01  0.00000000000E+00 0. -1.
         21   -1    0    0  501  502 -0.00000000000E+00 -0.00000000000E+00 -0.14487312269E+04  0.14487312269E+04  0.00000000000E+00 0. -1.
         25    1    1    2    0    0  0.00000000000E+00  0.00000000000E+00 -0.14460349020E+04  0.14514275517E+04  0.12500000000E+03 0.  0.
<mgrwt>
<rscale>  2 0.12500000E+03</rscale>
<asrwt>0</asrwt>
<pdfrwt beam="1">  1       21 0.41481763E-03 0.12500000E+03</pdfrwt>
<pdfrwt beam="2">  1       21 0.22288257E+00 0.12500000E+03</pdfrwt>
<totfact> 0.14728467E+06</totfact>
</mgrwt>
</event>
<event>
 3    0  0.1719937E+001  0.1250000E+03  0.7546771E-02  0.1235069E+00
         21   -1    0    0  502  501  0.00000000000E+00  0.00000000000E+00  0.44430021213E+02  0.44430021213E+02  0.00000000000E+00 0.  1.
         21   -1    0    0  501  502 -0.00000000000E+00 -0.00000000000E+00 -0.87919156762E+02  0.87919156762E+02  0.00000000000E+00 0.  1.
         25    1    1    2    0    0  0.00000000000E+00  0.00000000000E+00 -0.43489135549E+02  0.13234917798E+03  0.12500000000E+03 0.  0.
<mgrwt>
<rscale>  2 0.12500000E+03</rscale>
<asrwt>0</asrwt>
<pdfrwt beam="1">  1       21 0.68353879E-02 0.12500000E+03</pdfrwt>
<pdfrwt beam="2">  1       21 0.13526024E-01 0.12500000E+03</pdfrwt>
<totfact> 0.73049430E+06</totfact>
</mgrwt>
</event>
<event>
 3    0  0.1694435E+001  0.1250000E+03  0.7546771E-02  0.1235069E+00
         21   -1    0    0  502  501  0.00000000000E+00  0.00000000000E+00  0.42197891184E+02  0.42197891184E+02  0.00000000000E+00 0. -1.
         21   -1    0    0  501  502 -0.00000000000E+00 -0.00000000000E+00 -0.92569791768E+02  0.92569791768E+02  0.00000000000E+00 0. -1.
         25    1    1    2    0    0  0.00000000000E+00  0.00000000000E+00 -0.50371900584E+02  0.13476768295E+03  0.12500000000E+03 0.  0.
<mgrwt>
<rscale>  2 0.12500000E+03</rscale>
<asrwt>0</asrwt>
<pdfrwt beam="1">  1       21 0.64919833E-02 0.12500000E+03</pdfrwt>
<pdfrwt beam="2">  1       21 0.14241506E-01 0.12500000E+03</pdfrwt>
<totfact> 0.72727247E+06</totfact>
</mgrwt>
</event>
<event>
 3    0  0.1686761E+001  0.1250000E+03  0.7546771E-02  0.1235069E+00
         21   -1    0    0  502  501  0.00000000000E+00  0.00000000000E+00  0.11865395682E+03  0.11865395682E+03  0.00000000000E+00 0. -1.
         21   -1    0    0  501  502 -0.00000000000E+00 -0.00000000000E+00 -0.32921363137E+02  0.32921363137E+02  0.00000000000E+00 0. -1.
         25    1    1    2    0    0  0.00000000000E+00  0.00000000000E+00  0.85732593678E+02  0.15157531995E+03  0.12500000000E+03 0.  0.
<mgrwt>
<rscale>  2 0.12500000E+03</rscale>
<asrwt>0</asrwt>
<pdfrwt beam="1">  1       21 0.18254455E-01 0.12500000E+03</pdfrwt>
<pdfrwt beam="2">  1       21 0.50648252E-02 0.12500000E+03</pdfrwt>
<totfact> 0.70561869E+06</totfact>
</mgrwt>
</event>
<event>
 3    0  0.1538337E+001  0.1250000E+03  0.7546771E-02  0.1235069E+00
         21   -1    0    0  502  501  0.00000000000E+00  0.00000000000E+00  0.11922019141E+02  0.11922019141E+02  0.00000000000E+00 0. -1.
         21   -1    0    0  501  502 -0.00000000000E+00 -0.00000000000E+00 -0.32765003594E+03  0.32765003594E+03  0.00000000000E+00 0. -1.
         25    1    1    2    0    0  0.00000000000E+00  0.00000000000E+00 -0.31572801680E+03  0.33957205508E+03  0.12500000000E+03 0.  0.
<mgrwt>
<rscale>  2 0.12500000E+03</rscale>
<asrwt>0</asrwt>
<pdfrwt beam="1">  1       21 0.18341570E-02 0.12500000E+03</pdfrwt>
<pdfrwt beam="2">  1       21 0.50407692E-01 0.12500000E+03</pdfrwt>
<totfact> 0.52317910E+06</totfact>
</mgrwt>
</event>
<event>
 3    0  0.1721569E+001  0.1250000E+03  0.7546771E-02  0.1235069E+00
         21   -1    0    0  502  501  0.00000000000E+00  0.00000000000E+00  0.44971213877E+02  0.44971213877E+02  0.00000000000E+00 0.  1.
         21   -1    0    0  501  502 -0.00000000000E+00 -0.00000000000E+00 -0.86861119885E+02  0.86861119885E+02  0.00000000000E+00 0.  1.
         25    1    1    2    0    0  0.00000000000E+00  0.00000000000E+00 -0.41889906008E+02  0.13183233376E+03  0.12500000000E+03 0.  0.
<mgrwt>
<rscale>  2 0.12500000E+03</rscale>
<asrwt>0</asrwt>
<pdfrwt beam="1">  1       21 0.69186484E-02 0.12500000E+03</pdfrwt>
<pdfrwt beam="2">  1       21 0.13363249E-01 0.12500000E+03</pdfrwt>
<totfact> 0.73118727E+06</totfact>
</mgrwt>
</event>
<event>
 3    0  0.1697622E+001  0.1250000E+03  0.7546771E-02  0.1235069E+00
         21   -1    0    0  502  501  0.00000000000E+00  0.00000000000E+00  0.13347135645E+03  0.13347135645E+03  0.00000000000E+00 0.  1.
         21   -1    0    0  501  502 -0.00000000000E+00 -0.00000000000E+00 -0.29266579018E+02  0.29266579018E+02  0.00000000000E+00 0.  1.
         25    1    1    2    0    0  0.00000000000E+00  0.00000000000E+00  0.10420477743E+03  0.16273793546E+03  0.12500000000E+03 0.  0.
<mgrwt>
<rscale>  2 0.12500000E+03</rscale>
<asrwt>0</asrwt>
<pdfrwt beam="1">  1       21 0.20534054E-01 0.12500000E+03</pdfrwt>
<pdfrwt beam="2">  1       21 0.45025507E-02 0.12500000E+03</pdfrwt>
<totfact> 0.69186488E+06</totfact>
</mgrwt>
</event>
<event>
 3    0  0.1602362E+001  0.1250000E+03  0.7546771E-02  0.1235069E+00
         21   -1    0    0  502  501  0.00000000000E+00  0.00000000000E+00  0.16818108263E+02  0.16818108263E+02  0.00000000000E+00 0. -1.
         21   -1    0    0  501  502 -0.00000000000E+00 -0.00000000000E+00 -0.23226452934E+03  0.23226452934E+03  0.00000000000E+00 0. -1.
         25    1    1    2    0    0  0.00000000000E+00  0.00000000000E+00 -0.21544642108E+03  0.24908263760E+03  0.12500000000E+03 0.  0.
<mgrwt>
<rscale>  2 0.12500000E+03</rscale>
<asrwt>0</asrwt>
<pdfrwt beam="1">  1       21 0.25874014E-02 0.12500000E+03</pdfrwt>
<pdfrwt beam="2">  1       21 0.35733003E-01 0.12500000E+03</pdfrwt>
<totfact> 0.59964666E+06</totfact>
</mgrwt>
</event>
<event>
 3    0  0.1442883E+001  0.1250000E+03  0.7546771E-02  0.1235069E+00
         21   -1    0    0  502  501  0.00000000000E+00  0.00000000000E+00  0.68002094768E+01  0.68002094768E+01  0.00000000000E+00 0.  1.
         21   -1    0    0  501  502 -0.00000000000E+00 -0.00000000000E+00 -0.57443083383E+03  0.57443083383E+03  0.00000000000E+00 0.  1.
         25    1    1    2    0    0  0.00000000000E+00  0.00000000000E+00 -0.56763062436E+03  0.58123104331E+03  0.12500000000E+03 0.  0.
<mgrwt>
<rscale>  2 0.12500000E+03</rscale>
<asrwt>0</asrwt>
<pdfrwt beam="1">  1       21 0.10461857E-02 0.12500000E+03</pdfrwt>
<pdfrwt beam="2">  1       21 0.88374002E-01 0.12500000E+03</pdfrwt>
<totfact> 0.37955417E+06</totfact>
</mgrwt>
</event>
<event>
 3    0  0.1462970E+001  0.1250000E+03  0.7546771E-02  0.1235069E+00
         21   -1    0    0  502  501  0.00000000000E+00  0.00000000000E+00  0.49764664717E+03  0.49764664717E+03  0.00000000000E+00 0.  1.
         21   -1    0    0  501  502 -0.00000000000E+00 -0.00000000000E+00 -0.78494450273E+01  0.78494450273E+01  0.00000000000E+00 0.  1.
         25    1    1    2    0    0  0.00000000000E+00  0.00000000000E+00  0.48979720214E+03  0.50549609220E+03  0.12500000000E+03 0.  0.
<mgrwt>
<rscale>  2 0.12500000E+03</rscale>
<asrwt>0</asrwt>
<pdfrwt beam="1">  1       21 0.76560998E-01 0.12500000E+03</pdfrwt>
<pdfrwt beam="2">  1       21 0.12076073E-02 0.12500000E+03</pdfrwt>
<totfact> 0.41747574E+06</totfact>
</mgrwt>
</event>
<event>
 3    0  0.1697029E+001  0.1250000E+03  0.7546771E-02  0.1235069E+00
         21   -1    0    0  502  501  0.00000000000E+00  0.00000000000E+00  0.40776084786E+02  0.40776084786E+02  0.00000000000E+00 0. -1.
         21   -1    0    0  501  502 -0.00000000000E+00 -0.00000000000E+00 -0.95797574006E+02  0.95797574006E+02  0.00000000000E+00 0. -1.
         25    1    1    2    0    0  0.00000000000E+00  0.00000000000E+00 -0.55021489219E+02  0.13657365879E+03  0.12500000000E+03 0.  0.
<mgrwt>
<rscale>  2 0.12500000E+03</rscale>
<asrwt>0</asrwt>
<pdfrwt beam="1">  1       21 0.62732439E-02 0.12500000E+03</pdfrwt>
<pdfrwt beam="2">  1       21 0.14738088E-01 0.12500000E+03</pdfrwt>
<totfact> 0.72488773E+06</totfact>
</mgrwt>
</event>
<event>
 3    0  0.1623808E+001  0.1250000E+03  0.7546771E-02  0.1235069E+00
         21   -1    0    0  502  501  0.00000000000E+00  0.00000000000E+00  0.18966688205E+02  0.18966688205E+02  0.00000000000E+00 0. -1.
         21   -1    0    0  501  502 -0.00000000000E+00 -0.00000000000E+00 -0.20595319319E+03  0.20595319319E+03  0.00000000000E+00 0. -1.
         25    1    1    2    0    0  0.00000000000E+00  0.00000000000E+00 -0.18698650498E+03  0.22491988139E+03  0.12500000000E+03 0.  0.
<mgrwt>
<rscale>  2 0.12500000E+03</rscale>
<asrwt>0</asrwt>
<pdfrwt beam="1">  1       21 0.29179521E-02 0.12500000E+03</pdfrwt>
<pdfrwt beam="2">  1       21 0.31685106E-01 0.12500000E+03</pdfrwt>
<totfact> 0.62323169E+06</totfact>
</mgrwt>
</event>
<event>
 3    0  0.1464427E+001  0.1250000E+03  0.7546771E-02  0.1235069E+00
         21   -1    0    0  502  501  0.00000000000E+00  0.00000000000E+00  0.82275176295E+01  0.82275176295E+01  0.00000000000E+00 0.  1.
         21   -1    0    0  501  502 -0.00000000000E+00 -0.00000000000E+00 -0.47477868488E+03  0.47477868488E+03  0.00000000000E+00 0.  1.
         25    1    1    2    0    0  0.00000000000E+00  0.00000000000E+00 -0.46655116725E+03  0.48300620251E+03  0.12500000000E+03 0.  0.
<mgrwt>
<rscale>  2 0.12500000E+03</rscale>
<asrwt>0</asrwt>
<pdfrwt beam="1">  1       21 0.12657720E-02 0.12500000E+03</pdfrwt>
<pdfrwt beam="2">  1       21 0.73042873E-01 0.12500000E+03</pdfrwt>
<totfact> 0.42980935E+06</totfact>
</mgrwt>
</event>
<event>
 3    0  0.1368989E+001  0.1250000E+03  0.7546771E-02  0.1235069E+00
         21   -1    0    0  502  501  0.00000000000E+00  0.00000000000E+00  0.10554386308E+04  0.10554386308E+04  0.00000000000E+00 0.  1.
         21   -1    0    0  501  502 -0.00000000000E+00 -0.00000000000E+00 -0.37010678652E+01  0.37010678652E+01  0.00000000000E+00 0.  1.
         25    1    1    2    0    0  0.00000000000E+00  0.00000000000E+00  0.10517375629E+04  0.10591396986E+04  0.12500000000E+03 0.  0.
<mgrwt>
<rscale>  2 0.12500000E+03</rscale>
<asrwt>0</asrwt>
<pdfrwt beam="1">  1       21 0.16237493E+00 0.12500000E+03</pdfrwt>
<pdfrwt beam="2">  1       21 0.56939590E-03 0.12500000E+03</pdfrwt>
<totfact> 0.22183807E+06</totfact>
</mgrwt>
</event>
<event>
 3    0  0.1559914E+001  0.1250000E+03  0.7546771E-02  0.1235069E+00
         21   -1    0    0  502  501  0.00000000000E+00  0.00000000000E+00  0.11087596226E+02  0.11087596226E+02  0.00000000000E+00 0. -1.
         21   -1    0    0  501  502 -0.00000000000E+00 -0.00000000000E+00 -0.35230810361E+03  0.35230810361E+03  0.00000000000E+00 0. -1.
         25    1    1    2    0    0  0.00000000000E+00  0.00000000000E+00 -0.34122050738E+03  0.36339569983E+03  0.12500000000E+03 0.  0.
<mgrwt>
<rscale>  2 0.12500000E+03</rscale>
<asrwt>0</asrwt>
<pdfrwt beam="1">  1       21 0.17057845E-02 0.12500000E+03</pdfrwt>
<pdfrwt beam="2">  1       21 0.54201232E-01 0.12500000E+03</pdfrwt>
<totfact> 0.50564090E+06</totfact>
</mgrwt>
</event>
<event>
 3    0  0.1368989E+001  0.1250000E+03  0.7546771E-02  0.1235069E+00
         21   -1    0    0  502  501  0.00000000000E+00  0.00000000000E+00  0.44241478940E+01  0.44241478940E+01  0.00000000000E+00 0.  1.
         21   -1    0    0  501  502 -0.00000000000E+00 -0.00000000000E+00 -0.88293838578E+03  0.88293838578E+03  0.00000000000E+00 0.  1.
         25    1    1    2    0    0  0.00000000000E+00  0.00000000000E+00 -0.87851423788E+03  0.88736253367E+03  0.12500000000E+03 0.  0.
<mgrwt>
<rscale>  2 0.12500000E+03</rscale>
<asrwt>0</asrwt>
<pdfrwt beam="1">  1       21 0.68063887E-03 0.12500000E+03</pdfrwt>
<pdfrwt beam="2">  1       21 0.13583653E+00 0.12500000E+03</pdfrwt>
<totfact> 0.26663190E+06</totfact>
</mgrwt>
</event>
<event>
 3    0  0.1383672E+001  0.1250000E+03  0.7546771E-02  0.1235069E+00
         21   -1    0    0  502  501  0.00000000000E+00  0.00000000000E+00  0.61332140781E+01  0.61332140781E+01  0.00000000000E+00 0. -1.
         21   -1    0    0  501  502 -0.00000000000E+00 -0.00000000000E+00 -0.63690097072E+03  0.63690097072E+03  0.00000000000E+00 0. -1.
         25    1    1    2    0    0  0.00000000000E+00  0.00000000000E+00 -0.63076775665E+03  0.64303418480E+03  0.12500000000E+03 0.  0.
<mgrwt>
<rscale>  2 0.12500000E+03</rscale>
<asrwt>0</asrwt>
<pdfrwt beam="1">  1       21 0.94357181E-03 0.12500000E+03</pdfrwt>
<pdfrwt beam="2">  1       21 0.97984721E-01 0.12500000E+03</pdfrwt>
<totfact> 0.35215917E+06</totfact>
</mgrwt>
</event>
<event>
 3    0  0.1493613E+001  0.1250000E+03  0.7546771E-02  0.1235069E+00
         21   -1    0    0  502  501  0.00000000000E+00  0.00000000000E+00  0.81450929947E+01  0.81450929947E+01  0.00000000000E+00 0.  1.
         21   -1    0    0  501  502 -0.00000000000E+00 -0.00000000000E+00 -0.47958322914E+03  0.47958322914E+03  0.00000000000E+00 0.  1.
         25    1    1    2    0    0  0.00000000000E+00  0.00000000000E+00 -0.47143813614E+03  0.48772832213E+03  0.12500000000E+03 0.  0.
<mgrwt>
<rscale>  2 0.12500000E+03</rscale>
<asrwt>0</asrwt>
<pdfrwt beam="1">  1       21 0.12530912E-02 0.12500000E+03</pdfrwt>
<pdfrwt beam="2">  1       21 0.73782040E-01 0.12500000E+03</pdfrwt>
<totfact> 0.42717505E+06</totfact>
</mgrwt>
</event>
<event>
 3    0  0.1728734E+001  0.1250000E+03  0.7546771E-02  0.1235069E+00
         21   -1    0    0  502  501  0.00000000000E+00  0.00000000000E+00  0.53610473912E+02  0.53610473912E+02  0.00000000000E+00 0.  1.
         21   -1    0    0  501  502 -0.00000000000E+00 -0.00000000000E+00 -0.72863560326E+02  0.72863560326E+02  0.00000000000E+00 0.  1.
         25    1    1    2    0    0  0.00000000000E+00  0.00000000000E+00 -0.19253086414E+02  0.12647403424E+03  0.12500000000E+03 0.  0.
<mgrwt>
<rscale>  2 0.12500000E+03</rscale>
<asrwt>0</asrwt>
<pdfrwt beam="1">  1       21 0.82477652E-02 0.12500000E+03</pdfrwt>
<pdfrwt beam="2">  1       21 0.11209779E-01 0.12500000E+03</pdfrwt>
<totfact> 0.73840927E+06</totfact>
</mgrwt>
</event>
<event>
 3    0  0.1690052E+001  0.1250000E+03  0.7546771E-02  0.1235069E+00
         21   -1    0    0  502  501  0.00000000000E+00  0.00000000000E+00  0.23648398010E+02  0.23648398010E+02  0.00000000000E+00 0.  1.
         21   -1    0    0  501  502 -0.00000000000E+00 -0.00000000000E+00 -0.16518032208E+03  0.16518032208E+03  0.00000000000E+00 0.  1.
         25    1    1    2    0    0  0.00000000000E+00  0.00000000000E+00 -0.14153192407E+03  0.18882872009E+03  0.12500000000E+03 0.  0.
<mgrwt>
<rscale>  2 0.12500000E+03</rscale>
<asrwt>0</asrwt>
<pdfrwt beam="1">  1       21 0.36382151E-02 0.12500000E+03</pdfrwt>
<pdfrwt beam="2">  1       21 0.25412357E-01 0.12500000E+03</pdfrwt>
<totfact> 0.66152878E+06</totfact>
</mgrwt>
</event>
<event>
 3    0  0.1520955E+001  0.1250000E+03  0.7546771E-02  0.1235069E+00
         21   -1    0    0  502  501  0.00000000000E+00  0.00000000000E+00  0.87689417040E+01  0.87689417040E+01  0.00000000000E+00 0.  1.
         21   -1    0    0  501  502 -0.00000000000E+00 -0.00000000000E+00 -0.44546424550E+03  0.44546424550E+03  0.00000000000E+00 0.  1.
         25    1    1    2    0    0  0.00000000000E+00  0.00000000000E+00 -0.43669530379E+03  0.45423318720E+03  0.12500000000E+03 0.  0.
<mgrwt>
<rscale>  2 0.12500000E+03</rscale>
<asrwt>0</asrwt>
<pdfrwt beam="1">  1       21 0.13490681E-02 0.12500000E+03</pdfrwt>
<pdfrwt beam="2">  1       21 0.68532951E-01 0.12500000E+03</pdfrwt>
<totfact> 0.44640047E+06</totfact>
</mgrwt>
</event>
<event>
 3    0  0.1696578E+001  0.1250000E+03  0.7546771E-02  0.1235069E+00
         21   -1    0    0  502  501  0.00000000000E+00  0.00000000000E+00  0.14307714355E+03  0.14307714355E+03  0.00000000000E+00 0.  1.
         21   -1    0    0  501  502 -0.00000000000E+00 -0.00000000000E+00 -0.27301705242E+02  0.27301705242E+02  0.00000000000E+00 0.  1.
         25    1    1    2    0    0  0.00000000000E+00  0.00000000000E+00  0.11577543830E+03  0.17037884879E+03  0.12500000000E+03 0.  0.
<mgrwt>
<rscale>  2 0.12500000E+03</rscale>
<asrwt>0</asrwt>
<pdfrwt beam="1">  1       21 0.22011868E-01 0.12500000E+03</pdfrwt>
<pdfrwt beam="2">  1       21 0.42002624E-02 0.12500000E+03</pdfrwt>
<totfact> 0.68272754E+06</totfact>
</mgrwt>
</event>
<event>
 3    0  0.1514573E+001  0.1250000E+03  0.7546771E-02  0.1235069E+00
         21   -1    0    0  502  501  0.00000000000E+00  0.00000000000E+00  0.99873300079E+01  0.99873300079E+01  0.00000000000E+00 0. -1.
         21   -1    0    0  501  502 -0.00000000000E+00 -0.00000000000E+00 -0.39112054943E+03  0.39112054943E+03  0.00000000000E+00 0. -1.
         25    1    1    2    0    0  0.00000000000E+00  0.00000000000E+00 -0.38113321942E+03  0.40110787944E+03  0.12500000000E+03 0.  0.
<mgrwt>
<rscale>  2 0.12500000E+03</rscale>
<asrwt>0</asrwt>
<pdfrwt beam="1">  1       21 0.15365126E-02 0.12500000E+03</pdfrwt>
<pdfrwt beam="2">  1       21 0.60172383E-01 0.12500000E+03</pdfrwt>
<totfact> 0.47967957E+06</totfact>
</mgrwt>
</event>
<event>
 3    0  0.1701066E+001  0.1250000E+03  0.7546771E-02  0.1235069E+00
         21   -1    0    0  502  501  0.00000000000E+00  0.00000000000E+00  0.49336598522E+02  0.49336598522E+02  0.00000000000E+00 0. -1.
         21   -1    0    0  501  502 -0.00000000000E+00 -0.00000000000E+00 -0.79175502913E+02  0.79175502913E+02  0.00000000000E+00 0. -1.
         25    1    1    2    0    0  0.00000000000E+00  0.00000000000E+00 -0.29838904392E+02  0.12851210144E+03  0.12500000000E+03 0.  0.
<mgrwt>
<rscale>  2 0.12500000E+03</rscale>
<asrwt>0</asrwt>
<pdfrwt beam="1">  1       21 0.75902459E-02 0.12500000E+03</pdfrwt>
<pdfrwt beam="2">  1       21 0.12180847E-01 0.12500000E+03</pdfrwt>
<totfact> 0.73564492E+06</totfact>
</mgrwt>
</event>
<event>
 3    0  0.1709363E+001  0.1250000E+03  0.7546771E-02  0.1235069E+00
         21   -1    0    0  502  501  0.00000000000E+00  0.00000000000E+00  0.11502325682E+03  0.11502325682E+03  0.00000000000E+00 0.  1.
         21   -1    0    0  501  502 -0.00000000000E+00 -0.00000000000E+00 -0.33960523359E+02  0.33960523359E+02  0.00000000000E+00 0.  1.
         25    1    1    2    0    0  0.00000000000E+00  0.00000000000E+00  0.81062733459E+02  0.14898378018E+03  0.12500000000E+03 0.  0.
<mgrwt>
<rscale>  2 0.12500000E+03</rscale>
<asrwt>0</asrwt>
<pdfrwt beam="1">  1       21 0.17695885E-01 0.12500000E+03</pdfrwt>
<pdfrwt beam="2">  1       21 0.52246960E-02 0.12500000E+03</pdfrwt>
<totfact> 0.70887091E+06</totfact>
</mgrwt>
</event>
<event>
 3    0  0.1368989E+001  0.1250000E+03  0.7546771E-02  0.1235069E+00
         21   -1    0    0  502  501  0.00000000000E+00  0.00000000000E+00  0.73431051168E+03  0.73431051168E+03  0.00000000000E+00 0. -1.
         21   -1    0    0  501  502 -0.00000000000E+00 -0.00000000000E+00 -0.53196160723E+01  0.53196160723E+01  0.00000000000E+00 0. -1.
         25    1    1    2    0    0  0.00000000000E+00  0.00000000000E+00  0.72899089561E+03  0.73963012776E+03  0.12500000000E+03 0.  0.
<mgrwt>
<rscale>  2 0.12500000E+03</rscale>
<asrwt>0</asrwt>
<pdfrwt beam="1">  1       21 0.11297077E+00 0.12500000E+03</pdfrwt>
<pdfrwt beam="2">  1       21 0.81840306E-03 0.12500000E+03</pdfrwt>
<totfact> 0.31437007E+06</totfact>
</mgrwt>
</event>
<event>
 3    0  0.1704685E+001  0.1250000E+03  0.7546771E-02  0.1235069E+00
         21   -1    0    0  502  501  0.00000000000E+00  0.00000000000E+00  0.67887430151E+02  0.67887430151E+02  0.00000000000E+00 0. -1.
         21   -1    0    0  501  502 -0.00000000000E+00 -0.00000000000E+00 -0.57540107076E+02  0.57540107076E+02  0.00000000000E+00 0. -1.
         25    1    1    2    0    0  0.00000000000E+00  0.00000000000E+00  0.10347323074E+02  0.12542753723E+03  0.12500000000E+03 0.  0.
<mgrwt>
<rscale>  2 0.12500000E+03</rscale>
<asrwt>0</asrwt>
<pdfrwt beam="1">  1       21 0.10444220E-01 0.12500000E+03</pdfrwt>
<pdfrwt beam="2">  1       21 0.88523241E-02 0.12500000E+03</pdfrwt>
<totfact> 0.73985545E+06</totfact>
</mgrwt>
</event>
<event>
 3    0  0.1368989E+001  0.1250000E+03  0.7546771E-02  0.1235069E+00
         21   -1    0    0  502  501  0.00000000000E+00  0.00000000000E+00  0.10748603676E+04  0.10748603676E+04  0.00000000000E+00 0.  1.
         21   -1    0    0  501  502 -0.00000000000E+00 -0.00000000000E+00 -0.36341929779E+01  0.36341929779E+01  0.00000000000E+00 0.  1.
         25    1    1    2    0    0  0.00000000000E+00  0.00000000000E+00  0.10712261746E+04  0.10784945605E+04  0.12500000000E+03 0.  0.
<mgrwt>
<rscale>  2 0.12500000E+03</rscale>
<asrwt>0</asrwt>
<pdfrwt beam="1">  1       21 0.16536288E+00 0.12500000E+03</pdfrwt>
<pdfrwt beam="2">  1       21 0.55910747E-03 0.12500000E+03</pdfrwt>
<totfact> 0.21736171E+06</totfact>
</mgrwt>
</event>
<event>
 3    0  0.1561268E+001  0.1250000E+03  0.7546771E-02  0.1235069E+00
         21   -1    0    0  502  501  0.00000000000E+00  0.00000000000E+00  0.10786017744E+02  0.10786017744E+02  0.00000000000E+00 0.  1.
         21   -1    0    0  501  502 -0.00000000000E+00 -0.00000000000E+00 -0.36215868475E+03  0.36215868475E+03  0.00000000000E+00 0.  1.
         25    1    1    2    0    0  0.00000000000E+00  0.00000000000E+00 -0.35137266700E+03  0.37294470249E+03  0.12500000000E+03 0.  0.
<mgrwt>
<rscale>  2 0.12500000E+03</rscale>
<asrwt>0</asrwt>
<pdfrwt beam="1">  1       21 0.16593877E-02 0.12500000E+03</pdfrwt>
<pdfrwt beam="2">  1       21 0.55716710E-01 0.12500000E+03</pdfrwt>
<totfact> 0.49887275E+06</totfact>
</mgrwt>
</event>
<event>
 3    0  0.1651386E+001  0.1250000E+03  0.7546771E-02  0.1235069E+00
         21   -1    0    0  502  501  0.00000000000E+00  0.00000000000E+00  0.17694689347E+03  0.17694689347E+03  0.00000000000E+00 0. -1.
         21   -1    0    0  501  502 -0.00000000000E+00 -0.00000000000E+00 -0.22075832604E+02  0.22075832604E+02  0.00000000000E+00 0. -1.
         25    1    1    2    0    0  0.00000000000E+00  0.00000000000E+00  0.15487106086E+03  0.19902272607E+03  0.12500000000E+03 0.  0.
<mgrwt>
<rscale>  2 0.12500000E+03</rscale>
<asrwt>0</asrwt>
<pdfrwt beam="1">  1       21 0.27222598E-01 0.12500000E+03</pdfrwt>
<pdfrwt beam="2">  1       21 0.33962821E-02 0.12500000E+03</pdfrwt>
<totfact> 0.65033300E+06</totfact>
</mgrwt>
</event>
<event>
 3    0  0.1368989E+001  0.1250000E+03  0.7546771E-02  0.1235069E+00
         21   -1    0    0  502  501  0.00000000000E+00  0.00000000000E+00  0.24904032816E+01  0.24904032816E+01  0.00000000000E+00 0. -1.
         21   -1    0    0  501  502 -0.00000000000E+00 -0.00000000000E+00 -0.15685210620E+04  0.15685210620E+04  0.00000000000E+00 0. -1.
         25    1    1    2    0    0  0.00000000000E+00  0.00000000000E+00 -0.15660306587E+04  0.15710114653E+04  0.12500000000E+03 0.  0.
<mgrwt>
<rscale>  2 0.12500000E+03</rscale>
<asrwt>0</asrwt>
<pdfrwt beam="1">  1       21 0.38313815E-03 0.12500000E+03</pdfrwt>
<pdfrwt beam="2">  1       21 0.24131144E+00 0.12500000E+03</pdfrwt>
<totfact> 0.12972123E+06</totfact>
</mgrwt>
</event>
<event>
 3    0  0.1649248E+001  0.1250000E+03  0.7546771E-02  0.1235069E+00
         21   -1    0    0  502  501  0.00000000000E+00  0.00000000000E+00  0.17201987188E+03  0.17201987188E+03  0.00000000000E+00 0. -1.
         21   -1    0    0  501  502 -0.00000000000E+00 -0.00000000000E+00 -0.22708132249E+02  0.22708132249E+02  0.00000000000E+00 0. -1.
         25    1    1    2    0    0  0.00000000000E+00  0.00000000000E+00  0.14931173963E+03  0.19472800413E+03  0.12500000000E+03 0.  0.
<mgrwt>
<rscale>  2 0.12500000E+03</rscale>
<asrwt>0</asrwt>
<pdfrwt beam="1">  1       21 0.26464595E-01 0.12500000E+03</pdfrwt>
<pdfrwt beam="2">  1       21 0.34935589E-02 0.12500000E+03</pdfrwt>
<totfact> 0.65500804E+06</totfact>
</mgrwt>
</event>
<event>
 3    0  0.1394810E+001  0.1250000E+03  0.7546771E-02  0.1235069E+00
         21   -1    0    0  502  501  0.00000000000E+00  0.00000000000E+00  0.64262378241E+03  0.64262378241E+03  0.00000000000E+00 0.  1.
         21   -1    0    0  501  502 -0.00000000000E+00 -0.00000000000E+00 -0.60785954503E+01  0.60785954503E+01  0.00000000000E+00 0.  1.
         25    1    1    2    0    0  0.00000000000E+00  0.00000000000E+00  0.63654518696E+03  0.64870237786E+03  0.12500000000E+03 0.  0.
<mgrwt>
<rscale>  2 0.12500000E+03</rscale>
<asrwt>0</asrwt>
<pdfrwt beam="1">  1       21 0.98865144E-01 0.12500000E+03</pdfrwt>
<pdfrwt beam="2">  1       21 0.93516904E-03 0.12500000E+03</pdfrwt>
<totfact> 0.34978571E+06</totfact>
</mgrwt>
</event>
<event>
 3    0  0.1368989E+001  0.1250000E+03  0.7546771E-02  0.1235069E+00
         21   -1    0    0  502  501  0.00000000000E+00  0.00000000000E+00  0.44793046062E+01  0.44793046062E+01  0.00000000000E+00 0. -1.
         21   -1    0    0  501  502 -0.00000000000E+00 -0.00000000000E+00 -0.87206616729E+03  0.87206616729E+03  0.00000000000E+00 0. -1.
         25    1    1    2    0    0  0.00000000000E+00  0.00000000000E+00 -0.86758686268E+03  0.87654547189E+03  0.12500000000E+03 0.  0.
<mgrwt>
<rscale>  2 0.12500000E+03</rscale>
<asrwt>0</asrwt>
<pdfrwt beam="1">  1       21 0.68912386E-03 0.12500000E+03</pdfrwt>
<pdfrwt beam="2">  1       21 0.13416401E+00 0.12500000E+03</pdfrwt>
<totfact> 0.26977561E+06</totfact>
</mgrwt>
</event>
<event>
 3    0  0.1382988E+001  0.1250000E+03  0.7546771E-02  0.1235069E+00
         21   -1    0    0  502  501  0.00000000000E+00  0.00000000000E+00  0.57484054435E+01  0.57484054435E+01  0.00000000000E+00 0. -1.
         21   -1    0    0  501  502 -0.00000000000E+00 -0.00000000000E+00 -0.67953627113E+03  0.67953627113E+03  0.00000000000E+00 0. -1.
         25    1    1    2    0    0  0.00000000000E+00  0.00000000000E+00 -0.67378786569E+03  0.68528467657E+03  0.12500000000E+03 0.  0.
<mgrwt>
<rscale>  2 0.12500000E+03</rscale>
<asrwt>0</asrwt>
<pdfrwt beam="1">  1       21 0.88437074E-03 0.12500000E+03</pdfrwt>
<pdfrwt beam="2">  1       21 0.10454396E+00 0.12500000E+03</pdfrwt>
<totfact> 0.33485248E+06</totfact>
</mgrwt>
</event>
<event>
 3    0  0.1704428E+001  0.1250000E+03  0.7546771E-02  0.1235069E+00
         21   -1    0    0  502  501  0.00000000000E+00  0.00000000000E+00  0.53891218144E+02  0.53891218144E+02  0.00000000000E+00 0. -1.
         21   -1    0    0  501  502 -0.00000000000E+00 -0.00000000000E+00 -0.72483980406E+02  0.72483980406E+02  0.00000000000E+00 0. -1.
         25    1    1    2    0    0  0.00000000000E+00  0.00000000000E+00 -0.18592762262E+02  0.12637519855E+03  0.12500000000E+03 0.  0.
<mgrwt>
<rscale>  2 0.12500000E+03</rscale>
<asrwt>0</asrwt>
<pdfrwt beam="1">  1       21 0.82909566E-02 0.12500000E+03</pdfrwt>
<pdfrwt beam="2">  1       21 0.11151382E-01 0.12500000E+03</pdfrwt>
<totfact> 0.73854466E+06</totfact>
</mgrwt>
</event>
<event>
 3    0  0.1437312E+001  0.1250000E+03  0.7546771E-02  0.1235069E+00
         21   -1    0    0  502  501  0.00000000000E+00  0.00000000000E+00  0.72973384971E+01  0.72973384971E+01  0.00000000000E+00 0. -1.
         21   -1    0    0  501  502 -0.00000000000E+00 -0.00000000000E+00 -0.53529790369E+03  0.53529790369E+03  0.00000000000E+00 0. -1.
         25    1    1    2    0    0  0.00000000000E+00  0.00000000000E+00 -0.52800056519E+03  0.54259524218E+03  0.12500000000E+03 0.  0.
<mgrwt>
<rscale>  2 0.12500000E+03</rscale>
<asrwt>0</asrwt>
<pdfrwt beam="1">  1       21 0.11226669E-02 0.12500000E+03</pdfrwt>
<pdfrwt beam="2">  1       21 0.82353567E-01 0.12500000E+03</pdfrwt>
<totfact> 0.39824389E+06</totfact>
</mgrwt>
</event>
<event>
 3    0  0.1368989E+001  0.1250000E+03  0.7546771E-02  0.1235069E+00
         21   -1    0    0  502  501  0.00000000000E+00  0.00000000000E+00  0.84296110092E+03  0.84296110092E+03  0.00000000000E+00 0.  1.
         21   -1    0    0  501  502 -0.00000000000E+00 -0.00000000000E+00 -0.46339623450E+01  0.46339623450E+01  0.00000000000E+00 0.  1.
         25    1    1    2    0    0  0.00000000000E+00  0.00000000000E+00  0.83832713857E+03  0.84759506326E+03  0.12500000000E+03 0.  0.
<mgrwt>
<rscale>  2 0.12500000E+03</rscale>
<asrwt>0</asrwt>
<pdfrwt beam="1">  1       21 0.12968620E+00 0.12500000E+03</pdfrwt>
<pdfrwt beam="2">  1       21 0.71291796E-03 0.12500000E+03</pdfrwt>
<totfact> 0.27845355E+06</totfact>
</mgrwt>
</event>
<event>
 3    0  0.1640506E+001  0.1250000E+03  0.7546771E-02  0.1235069E+00
         21   -1    0    0  502  501  0.00000000000E+00  0.00000000000E+00  0.20661967605E+02  0.20661967605E+02  0.00000000000E+00 0. -1.
         21   -1    0    0  501  502 -0.00000000000E+00 -0.00000000000E+00 -0.18905508297E+03  0.18905508297E+03  0.00000000000E+00 0. -1.
         25    1    1    2    0    0  0.00000000000E+00  0.00000000000E+00 -0.16839311537E+03  0.20971705058E+03  0.12500000000E+03 0.  0.
<mgrwt>
<rscale>  2 0.12500000E+03</rscale>
<asrwt>0</asrwt>
<pdfrwt beam="1">  1       21 0.31787644E-02 0.12500000E+03</pdfrwt>
<pdfrwt beam="2">  1       21 0.29085396E-01 0.12500000E+03</pdfrwt>
<totfact> 0.63889318E+06</totfact>
</mgrwt>
</event>
<event>
 3    0  0.1640114E+001  0.1250000E+03  0.7546771E-02  0.1235069E+00
         21   -1    0    0  502  501  0.00000000000E+00  0.00000000000E+00  0.17933165935E+02  0.17933165935E+02  0.00000000000E+00 0.  1.
         21   -1    0    0  501  502 -0.00000000000E+00 -0.00000000000E+00 -0.21782266523E+03  0.21782266523E+03  0.00000000000E+00 0.  1.
         25    1    1    2    0    0  0.00000000000E+00  0.00000000000E+00 -0.19988949929E+03  0.23575583116E+03  0.12500000000E+03 0.  0.
<mgrwt>
<rscale>  2 0.12500000E+03</rscale>
<asrwt>0</asrwt>
<pdfrwt beam="1">  1       21 0.27589485E-02 0.12500000E+03</pdfrwt>
<pdfrwt beam="2">  1       21 0.33511180E-01 0.12500000E+03</pdfrwt>
<totfact> 0.61245795E+06</totfact>
</mgrwt>
</event>
<event>
 3    0  0.1498538E+001  0.1250000E+03  0.7546771E-02  0.1235069E+00
         21   -1    0    0  502  501  0.00000000000E+00  0.00000000000E+00  0.93239594930E+01  0.93239594930E+01  0.00000000000E+00 0. -1.
         21   -1    0    0  501  502 -0.00000000000E+00 -0.00000000000E+00 -0.41894755151E+03  0.41894755151E+03  0.00000000000E+00 0. -1.
         25    1    1    2    0    0  0.00000000000E+00  0.00000000000E+00 -0.40962359202E+03  0.42827151101E+03  0.12500000000E+03 0.  0.
<mgrwt>
<rscale>  2 0.12500000E+03</rscale>
<asrwt>0</asrwt>
<pdfrwt beam="1">  1       21 0.14344554E-02 0.12500000E+03</pdfrwt>
<pdfrwt beam="2">  1       21 0.64453466E-01 0.12500000E+03</pdfrwt>
<totfact> 0.46220975E+06</totfact>
</mgrwt>
</event>
<event>
 3    0  0.1460466E+001  0.1250000E+03  0.7546771E-02  0.1235069E+00
         21   -1    0    0  502  501  0.00000000000E+00  0.00000000000E+00  0.56555302252E+03  0.56555302252E+03  0.00000000000E+00 0.  1.
         21   -1    0    0  501  502 -0.00000000000E+00 -0.00000000000E+00 -0.69069562790E+01  0.69069562790E+01  0.00000000000E+00 0.  1.
         25    1    1    2    0    0  0.00000000000E+00  0.00000000000E+00  0.55864606624E+03  0.57245997880E+03  0.12500000000E+03 0.  0.
<mgrwt>
<rscale>  2 0.12500000E+03</rscale>
<asrwt>0</asrwt>
<pdfrwt beam="1">  1       21 0.87008121E-01 0.12500000E+03</pdfrwt>
<pdfrwt beam="2">  1       21 0.10626091E-02 0.12500000E+03</pdfrwt>
<totfact> 0.38368477E+06</totfact>
</mgrwt>
</event>
<event>
 3    0  0.1587321E+001  0.1250000E+03  0.7546771E-02  0.1235069E+00
         21   -1    0    0  502  501  0.00000000000E+00  0.00000000000E+00  0.14820367754E+02  0.14820367754E+02  0.00000000000E+00 0. -1.
         21   -1    0    0  501  502 -0.00000000000E+00 -0.00000000000E+00 -0.26357308164E+03  0.26357308164E+03  0.00000000000E+00 0. -1.
         25    1    1    2    0    0  0.00000000000E+00  0.00000000000E+00 -0.24875271389E+03  0.27839344940E+03  0.12500000000E+03 0.  0.
<mgrwt>
<rscale>  2 0.12500000E+03</rscale>
<asrwt>0</asrwt>
<pdfrwt beam="1">  1       21 0.22800566E-02 0.12500000E+03</pdfrwt>
<pdfrwt beam="2">  1       21 0.40549704E-01 0.12500000E+03</pdfrwt>
<totfact> 0.57300962E+06</totfact>
</mgrwt>
</event>
<event>
 3    0  0.1696008E+001  0.1250000E+03  0.7546771E-02  0.1235069E+00
         21   -1    0    0  502  501  0.00000000000E+00  0.00000000000E+00  0.14331660525E+03  0.14331660525E+03  0.00000000000E+00 0.  1.
         21   -1    0    0  501  502 -0.00000000000E+00 -0.00000000000E+00 -0.27256087969E+02  0.27256087969E+02  0.00000000000E+00 0.  1.
         25    1    1    2    0    0  0.00000000000E+00  0.00000000000E+00  0.11606051728E+03  0.17057269322E+03  0.12500000000E+03 0.  0.
<mgrwt>
<rscale>  2 0.12500000E+03</rscale>
<asrwt>0</asrwt>
<pdfrwt beam="1">  1       21 0.22048708E-01 0.12500000E+03</pdfrwt>
<pdfrwt beam="2">  1       21 0.41932444E-02 0.12500000E+03</pdfrwt>
<totfact> 0.68249811E+06</totfact>
</mgrwt>
</event>
<event>
 3    0  0.1704237E+001  0.1250000E+03  0.7546771E-02  0.1235069E+00
         21   -1    0    0  502  501  0.00000000000E+00  0.00000000000E+00  0.68740982491E+02  0.68740982491E+02  0.00000000000E+00 0. -1.
         21   -1    0    0  501  502 -0.00000000000E+00 -0.00000000000E+00 -0.56825635282E+02  0.56825635282E+02  0.00000000000E+00 0. -1.
         25    1    1    2    0    0  0.00000000000E+00  0.00000000000E+00  0.11915347209E+02  0.12556661777E+03  0.12500000000E+03 0.  0.
<mgrwt>
<rscale>  2 0.12500000E+03</rscale>
<asrwt>0</asrwt>
<pdfrwt beam="1">  1       21 0.10575536E-01 0.12500000E+03</pdfrwt>
<pdfrwt beam="2">  1       21 0.87424054E-02 0.12500000E+03</pdfrwt>
<totfact> 0.73966095E+06</totfact>
</mgrwt>
</event>
<event>
 3    0  0.1729250E+001  0.1250000E+03  0.7546771E-02  0.1235069E+00
         21   -1    0    0  502  501  0.00000000000E+00  0.00000000000E+00  0.68009117151E+02  0.68009117151E+02  0.00000000000E+00 0.  1.
         21   -1    0    0  501  502 -0.00000000000E+00 -0.00000000000E+00 -0.57437152012E+02  0.57437152012E+02  0.00000000000E+00 0.  1.
         25    1    1    2    0    0  0.00000000000E+00  0.00000000000E+00  0.10571965140E+02  0.12544626916E+03  0.12500000000E+03 0.  0.
<mgrwt>
<rscale>  2 0.12500000E+03</rscale>
<asrwt>0</asrwt>
<pdfrwt beam="1">  1       21 0.10462941E-01 0.12500000E+03</pdfrwt>
<pdfrwt beam="2">  1       21 0.88364850E-02 0.12500000E+03</pdfrwt>
<totfact> 0.73982918E+06</totfact>
</mgrwt>
</event>
<event>
 3    0  0.1703078E+001  0.1250000E+03  0.7546771E-02  0.1235069E+00
         21   -1    0    0  502  501  0.00000000000E+00  0.00000000000E+00  0.70599293391E+02  0.70599293391E+02  0.00000000000E+00 0. -1.
         21   -1    0    0  501  502 -0.00000000000E+00 -0.00000000000E+00 -0.55329873889E+02  0.55329873889E+02  0.00000000000E+00 0. -1.
         25    1    1    2    0    0  0.00000000000E+00  0.00000000000E+00  0.15269419502E+02  0.12592916728E+03  0.12500000000E+03 0.  0.
<mgrwt>
<rscale>  2 0.12500000E+03</rscale>
<asrwt>0</asrwt>
<pdfrwt beam="1">  1       21 0.10861430E-01 0.12500000E+03</pdfrwt>
<pdfrwt beam="2">  1       21 0.85122882E-02 0.12500000E+03</pdfrwt>
<totfact> 0.73915812E+06</totfact>
</mgrwt>
</event>
<event>
 3    0  0.1575442E+001  0.1250000E+03  0.7546771E-02  0.1235069E+00
         21   -1    0    0  502  501  0.00000000000E+00  0.00000000000E+00  0.27769372898E+03  0.27769372898E+03  0.00000000000E+00 0. -1.
         21   -1    0    0  501  502 -0.00000000000E+00 -0.00000000000E+00 -0.14066756258E+02  0.14066756258E+02  0.00000000000E+00 0. -1.
         25    1    1    2    0    0  0.00000000000E+00  0.00000000000E+00  0.26362697272E+03  0.29176048524E+03  0.12500000000E+03 0.  0.
<mgrwt>
<rscale>  2 0.12500000E+03</rscale>
<asrwt>0</asrwt>
<pdfrwt beam="1">  1       21 0.42722108E-01 0.12500000E+03</pdfrwt>
<pdfrwt beam="2">  1       21 0.21641165E-02 0.12500000E+03</pdfrwt>
<totfact> 0.56147938E+06</totfact>
</mgrwt>
</event>
<event>
 3    0  0.1616537E+001  0.1250000E+03  0.7546771E-02  0.1235069E+00
         21   -1    0    0  502  501  0.00000000000E+00  0.00000000000E+00  0.22572824967E+03  0.22572824967E+03  0.00000000000E+00 0. -1.
         21   -1    0    0  501  502 -0.00000000000E+00 -0.00000000000E+00 -0.17305100296E+02  0.17305100296E+02  0.00000000000E+00 0. -1.
         25    1    1    2    0    0  0.00000000000E+00  0.00000000000E+00  0.20842314937E+03  0.24303334996E+03  0.12500000000E+03 0.  0.
<mgrwt>
<rscale>  2 0.12500000E+03</rscale>
<asrwt>0</asrwt>
<pdfrwt beam="1">  1       21 0.34727421E-01 0.12500000E+03</pdfrwt>
<pdfrwt beam="2">  1       21 0.26623233E-02 0.12500000E+03</pdfrwt>
<totfact> 0.60540362E+06</totfact>
</mgrwt>
</event>
<event>
 3    0  0.1722274E+001  0.1250000E+03  0.7546771E-02  0.1235069E+00
         21   -1    0    0  502  501  0.00000000000E+00  0.00000000000E+00  0.95752438117E+02  0.95752438117E+02  0.00000000000E+00 0.  1.
         21   -1    0    0  501  502 -0.00000000000E+00 -0.00000000000E+00 -0.40795305862E+02  0.40795305862E+02  0.00000000000E+00 0.  1.
         25    1    1    2    0    0  0.00000000000E+00  0.00000000000E+00  0.54957132255E+02  0.13654774398E+03  0.12500000000E+03 0.  0.
<mgrwt>
<rscale>  2 0.12500000E+03</rscale>
<asrwt>0</asrwt>
<pdfrwt beam="1">  1       21 0.14731144E-01 0.12500000E+03</pdfrwt>
<pdfrwt beam="2">  1       21 0.62762009E-02 0.12500000E+03</pdfrwt>
<totfact> 0.72492183E+06</totfact>
</mgrwt>
</event>
<event>
 3    0  0.1643330E+001  0.1250000E+03  0.7546771E-02  0.1235069E+00
         21   -1    0    0  502  501  0.00000000000E+00  0.00000000000E+00  0.19763417543E+03  0.19763417543E+03  0.00000000000E+00 0. -1.
         21   -1    0    0  501  502 -0.00000000000E+00 -0.00000000000E+00 -0.19765053243E+02  0.19765053243E+02  0.00000000000E+00 0. -1.
         25    1    1    2    0    0  0.00000000000E+00  0.00000000000E+00  0.17786912218E+03  0.21739922867E+03  0.12500000000E+03 0.  0.
<mgrwt>
<rscale>  2 0.12500000E+03</rscale>
<asrwt>0</asrwt>
<pdfrwt beam="1">  1       21 0.30405256E-01 0.12500000E+03</pdfrwt>
<pdfrwt beam="2">  1       21 0.30407776E-02 0.12500000E+03</pdfrwt>
<totfact> 0.63089363E+06</totfact>
</mgrwt>
</event>
<event>
 3    0  0.1661355E+001  0.1250000E+03  0.7546771E-02  0.1235069E+00
         21   -1    0    0  502  501  0.00000000000E+00  0.00000000000E+00  0.20535165109E+02  0.20535165109E+02  0.00000000000E+00 0.  1.
         21   -1    0    0  501  502 -0.00000000000E+00 -0.00000000000E+00 -0.19022247833E+03  0.19022247833E+03  0.00000000000E+00 0.  1.
         25    1    1    2    0    0  0.00000000000E+00  0.00000000000E+00 -0.16968731322E+03  0.21075764344E+03  0.12500000000E+03 0.  0.
<mgrwt>
<rscale>  2 0.12500000E+03</rscale>
<asrwt>0</asrwt>
<pdfrwt beam="1">  1       21 0.31592560E-02 0.12500000E+03</pdfrwt>
<pdfrwt beam="2">  1       21 0.29264998E-01 0.12500000E+03</pdfrwt>
<totfact> 0.63779910E+06</totfact>
</mgrwt>
</event>
<event>
 3    0  0.1583310E+001  0.1250000E+03  0.7546771E-02  0.1235069E+00
         21   -1    0    0  502  501  0.00000000000E+00  0.00000000000E+00  0.12310992972E+02  0.12310992972E+02  0.00000000000E+00 0.  1.
         21   -1    0    0  501  502 -0.00000000000E+00 -0.00000000000E+00 -0.31729771991E+03  0.31729771991E+03  0.00000000000E+00 0.  1.
         25    1    1    2    0    0  0.00000000000E+00  0.00000000000E+00 -0.30498672694E+03  0.32960871289E+03  0.12500000000E+03 0.  0.
<mgrwt>
<rscale>  2 0.12500000E+03</rscale>
<asrwt>0</asrwt>
<pdfrwt beam="1">  1       21 0.18939990E-02 0.12500000E+03</pdfrwt>
<pdfrwt beam="2">  1       21 0.48815031E-01 0.12500000E+03</pdfrwt>
<totfact> 0.53080580E+06</totfact>
</mgrwt>
</event>
<event>
 3    0  0.1368989E+001  0.1250000E+03  0.7546771E-02  0.1235069E+00
         21   -1    0    0  502  501  0.00000000000E+00  0.00000000000E+00  0.35665635528E+01  0.35665635528E+01  0.00000000000E+00 0. -1.
         21   -1    0    0  501  502 -0.00000000000E+00 -0.00000000000E+00 -0.10952419443E+04  0.10952419443E+04  0.00000000000E+00 0. -1.
         25    1    1    2    0    0  0.00000000000E+00  0.00000000000E+00 -0.10916753807E+04  0.10988085078E+04  0.12500000000E+03 0.  0.
<mgrwt>
<rscale>  2 0.12500000E+03</rscale>
<asrwt>0</asrwt>
<pdfrwt beam="1">  1       21 0.54870190E-03 0.12500000E+03</pdfrwt>
<pdfrwt beam="2">  1       21 0.16849882E+00 0.12500000E+03</pdfrwt>
<totfact> 0.21277913E+06</totfact>
</mgrwt>
</event>
<event>
 3    0  0.1683031E+001  0.1250000E+03  0.7546771E-02  0.1235069E+00
         21   -1    0    0  502  501  0.00000000000E+00  0.00000000000E+00  0.35750683589E+02  0.35750683589E+02  0.00000000000E+00 0. -1.
         21   -1    0    0  501  502 -0.00000000000E+00 -0.00000000000E+00 -0.10926364499E+03  0.10926364499E+03  0.00000000000E+00 0. -1.
         25    1    1    2    0    0  0.00000000000E+00  0.00000000000E+00 -0.73512961405E+02  0.14501432858E+03  0.12500000000E+03 0.  0.
<mgrwt>
<rscale>  2 0.12500000E+03</rscale>
<asrwt>0</asrwt>
<pdfrwt beam="1">  1       21 0.55001052E-02 0.12500000E+03</pdfrwt>
<pdfrwt beam="2">  1       21 0.16809792E-01 0.12500000E+03</pdfrwt>
<totfact> 0.71391265E+06</totfact>
</mgrwt>
</event>
<event>
 3    0  0.1703775E+001  0.1250000E+03  0.7546771E-02  0.1235069E+00
         21   -1    0    0  502  501  0.00000000000E+00  0.00000000000E+00  0.53316152430E+02  0.53316152430E+02  0.00000000000E+00 0. -1.
         21   -1    0    0  501  502 -0.00000000000E+00 -0.00000000000E+00 -0.73265789483E+02  0.73265789483E+02  0.00000000000E+00 0. -1.
         25    1    1    2    0    0  0.00000000000E+00  0.00000000000E+00 -0.19949637053E+02  0.12658194191E+03  0.12500000000E+03 0.  0.
<mgrwt>
<rscale>  2 0.12500000E+03</rscale>
<asrwt>0</asrwt>
<pdfrwt beam="1">  1       21 0.82024850E-02 0.12500000E+03</pdfrwt>
<pdfrwt beam="2">  1       21 0.11271660E-01 0.12500000E+03</pdfrwt>
<totfact> 0.73826165E+06</totfact>
</mgrwt>
</event>
<event>
 3    0  0.1518623E+001  0.1250000E+03  0.7546771E-02  0.1235069E+00
         21   -1    0    0  502  501  0.00000000000E+00  0.00000000000E+00  0.93066750595E+01  0.93066750595E+01  0.00000000000E+00 0.  1.
         21   -1    0    0  501  502 -0.00000000000E+00 -0.00000000000E+00 -0.41972562435E+03  0.41972562435E+03  0.00000000000E+00 0.  1.
         25    1    1    2    0    0  0.00000000000E+00  0.00000000000E+00 -0.41041894929E+03  0.42903229941E+03  0.12500000000E+03 0.  0.
<mgrwt>
<rscale>  2 0.12500000E+03</rscale>
<asrwt>0</asrwt>
<pdfrwt beam="1">  1       21 0.14317961E-02 0.12500000E+03</pdfrwt>
<pdfrwt beam="2">  1       21 0.64573177E-01 0.12500000E+03</pdfrwt>
<totfact> 0.46173455E+06</totfact>
</mgrwt>
</event>
<event>
 3    0  0.1700747E+001  0.1250000E+03  0.7546771E-02  0.1235069E+00
         21   -1    0    0  502  501  0.00000000000E+00  0.00000000000E+00  0.12334639378E+03  0.12334639378E+03  0.00000000000E+00 0.  1.
         21   -1    0    0  501  502 -0.00000000000E+00 -0.00000000000E+00 -0.31668943699E+02  0.31668943699E+02  0.00000000000E+00 0.  1.
         25    1    1    2    0    0  0.00000000000E+00  0.00000000000E+00  0.91677450077E+02  0.15501533748E+03  0.12500000000E+03 0.  0.
<mgrwt>
<rscale>  2 0.12500000E+03</rscale>
<asrwt>0</asrwt>
<pdfrwt beam="1">  1       21 0.18976368E-01 0.12500000E+03</pdfrwt>
<pdfrwt beam="2">  1       21 0.48721453E-02 0.12500000E+03</pdfrwt>
<totfact> 0.70133753E+06</totfact>
</mgrwt>
</event>
<event>
 3    0  0.1436880E+001  0.1250000E+03  0.7546771E-02  0.1235069E+00
         21   -1    0    0  502  501  0.00000000000E+00  0.00000000000E+00  0.78318634864E+01  0.78318634864E+01  0.00000000000E+00 0. -1.
         21   -1    0    0  501  502 -0.00000000000E+00 -0.00000000000E+00 -0.49876380082E+03  0.49876380082E+03  0.00000000000E+00 0. -1.
         25    1    1    2    0    0  0.00000000000E+00  0.00000000000E+00 -0.49093193734E+03  0.50659566431E+03  0.12500000000E+03 0.  0.
<mgrwt>
<rscale>  2 0.12500000E+03</rscale>
<asrwt>0</asrwt>
<pdfrwt beam="1">  1       21 0.12049020E-02 0.12500000E+03</pdfrwt>
<pdfrwt beam="2">  1       21 0.76732896E-01 0.12500000E+03</pdfrwt>
<totfact> 0.41688616E+06</totfact>
</mgrwt>
</event>
