<event>
 7    1  0.5277388E-004  0.6841781E+02  0.7546771E-02  0.1407652E+00
          2   -1    0    0  503    0  0.00000000000E+00  0.00000000000E+00  0.57333181006E+03  0.57333181006E+03  0.00000000000E+00 0. -1.
         -2   -1    0    0    0  501 -0.00000000000E+00 -0.00000000000E+00 -0.61063183262E+03  0.61063183262E+03  0.00000000000E+00 0.  1.
         25    2    1    2    0    0  0.51316397661E+02 -0.38539928255E+02  0.23126067930E+03  0.27060143568E+03  0.12499974586E+03 0.  0.
          4    1    3    3  502    0 -0.15773209244E+01 -0.59509741619E+02  0.41732516124E+02  0.72712537371E+02  0.12700000000E+01 0. -1.
         -4    1    3    3    0  502  0.52893718585E+02  0.20969813365E+02  0.18952816318E+03  0.19788889831E+03  0.12700000000E+01 0. -1.
          1    1    1    2  503    0  0.16899003709E+02  0.45670593816E+02  0.31855414373E+03  0.32225474698E+03  0.00000000000E+00 0. -1.
         -1    1    1    2    0  501 -0.68215401370E+02 -0.71306655618E+01 -0.58711484559E+03  0.59110746001E+03  0.00000000000E+00 0.  1.
<mgrwt>
<rscale>  0 0.57721134E+02</rscale>
<asrwt>0</asrwt>
<pdfrwt beam="1">  1        2 0.88204894E-01 0.48696812E+02</pdfrwt>
<pdfrwt beam="2">  1       -2 0.93943359E-01 0.68417813E+02</pdfrwt>
<totfact> 0.57302660E+01</totfact>
</mgrwt>
</event>
<event>
 7    1  0.5277388E-004  0.3239789E+02  0.7546771E-02  0.1608268E+00
          2   -1    0    0  503    0  0.00000000000E+00  0.00000000000E+00  0.44901498196E+03  0.44901498196E+03  0.00000000000E+00 0. -1.
          1   -1    0    0  502    0 -0.00000000000E+00 -0.00000000000E+00 -0.13510936459E+04  0.13510936459E+04  0.00000000000E+00 0. -1.
         25    2    1    2    0    0 -0.50433388011E+02 -0.12465257054E+02 -0.10782110902E+02  0.13579497283E+03  0.12500044589E+03 0.  0.
          4    1    3    3  501    0 -0.53390075438E+02  0.48987960585E+02  0.37420887687E+01  0.72566773153E+02  0.12700000000E+01 0. -1.
         -4    1    3    3    0  501  0.29566874265E+01 -0.61453217639E+02 -0.14524199671E+02  0.63228199680E+02  0.12700000000E+01 0. -1.
          2    1    1    2  502    0  0.31811260420E+02 -0.58731293731E+01 -0.12771582359E+04  0.12775678493E+04  0.00000000000E+00 0. -1.
          1    1    1    2  503    0  0.18622127591E+02  0.18338386427E+02  0.38586168281E+03  0.38674580581E+03  0.00000000000E+00 0. -1.
<mgrwt>
<rscale>  0 0.29098878E+02</rscale>
<asrwt>0</asrwt>
<pdfrwt beam="1">  1        2 0.69079229E-01 0.26135800E+02</pdfrwt>
<pdfrwt beam="2">  1        1 0.20786056E+00 0.32397887E+02</pdfrwt>
<totfact> 0.10662666E+02</totfact>
</mgrwt>
</event>
<event>
 7    1  0.5277388E-004  0.1078772E+03  0.7546771E-02  0.1288893E+00
          1   -1    0    0  502    0 -0.00000000000E+00  0.00000000000E+00  0.35272702474E+03  0.35272702474E+03  0.00000000000E+00 0. -1.
          2   -1    0    0  503    0  0.00000000000E+00 -0.00000000000E+00 -0.61730320821E+03  0.61730320821E+03  0.00000000000E+00 0. -1.
         25    2    1    2    0    0  0.45822224254E+01  0.45927577992E+02 -0.35535389855E+03  0.37951587922E+03  0.12500228069E+03 0.  0.
          4    1    3    3  501    0  0.33832269471E+02  0.28297364113E+02 -0.33858405211E+03  0.34144712112E+03  0.12700000000E+01 0. -1.
         -4    1    3    3    0  501 -0.29250047046E+02  0.17630213879E+02 -0.16769846441E+02  0.38068758100E+02  0.12700000000E+01 0. -1.
          2    1    1    2  502    0 -0.87641958506E+02 -0.66074267780E+02  0.32402042427E+03  0.34210547657E+03  0.00000000000E+00 0. -1.
          1    1    1    2  503    0  0.83059736081E+02  0.20146689788E+02 -0.23324270918E+03  0.24840887716E+03  0.00000000000E+00 0. -1.
<mgrwt>
<rscale>  0 0.96021200E+02</rscale>
<asrwt>0</asrwt>
<pdfrwt beam="2">  1        2 0.94969724E-01 0.85468175E+02</pdfrwt>
<pdfrwt beam="1">  1        1 0.54265696E-01 0.10787724E+03</pdfrwt>
<totfact> 0.49151136E+02</totfact>
</mgrwt>
</event>
<event>
 7    1  0.5277388E-004  0.1499322E+03  0.7546771E-02  0.1342021E+00
          2   -1    0    0  503    0  0.00000000000E+00  0.00000000000E+00  0.12431890213E+04  0.12431890213E+04  0.00000000000E+00 0. -1.
          1   -1    0    0  502    0 -0.00000000000E+00 -0.00000000000E+00 -0.93706201946E+03  0.93706201946E+03  0.00000000000E+00 0. -1.
         25    2    1    2    0    0 -0.13663387098E+03 -0.39554483533E+02 -0.10635855189E+03  0.21718687134E+03  0.12499849462E+03 0.  0.
          4    1    3    3  501    0 -0.70705089215E+02 -0.75840913385E+02 -0.25631793715E+02  0.10681598913E+03  0.12700000000E+01 0. -1.
         -4    1    3    3    0  501 -0.65928781765E+02  0.36286429852E+02 -0.80726758174E+02  0.11037088222E+03  0.12700000000E+01 0. -1.
          2    1    1    2  502    0  0.13037545394E+03  0.77157546923E+02 -0.76757779249E+03  0.78238527182E+03  0.00000000000E+00 0. -1.
          1    1    1    2  503    0  0.62584170391E+01 -0.37603063390E+02  0.11800633462E+04  0.11806788976E+04  0.00000000000E+00 0. -1.
<mgrwt>
<rscale>  0 0.75600669E+02</rscale>
<asrwt>0</asrwt>
<pdfrwt beam="1">  1        2 0.19125985E+00 0.38120312E+02</pdfrwt>
<pdfrwt beam="2">  1        1 0.14416339E+00 0.14993217E+03</pdfrwt>
<totfact> 0.54743434E+01</totfact>
</mgrwt>
</event>
<event>
 7    1  0.5277388E-004  0.1485634E+03  0.7546771E-02  0.1320087E+00
          1   -1    0    0  502    0 -0.00000000000E+00  0.00000000000E+00  0.90507522230E+03  0.90507522230E+03  0.00000000000E+00 0. -1.
          2   -1    0    0  503    0  0.00000000000E+00 -0.00000000000E+00 -0.10346691991E+04  0.10346691991E+04  0.00000000000E+00 0. -1.
         25    2    1    2    0    0  0.45029548020E+02  0.12669641883E+03  0.10320666142E+03  0.21060254055E+03  0.12498868904E+03 0.  0.
          4    1    3    3  501    0  0.75438310189E+02  0.12392411505E+03  0.10633704562E+03  0.17988136398E+03  0.12700000000E+01 0. -1.
         -4    1    3    3    0  501 -0.30408762169E+02  0.27723037735E+01 -0.31303841987E+01  0.30721176574E+02  0.12700000000E+01 0. -1.
          2    1    1    2  502    0  0.45904314051E+02 -0.82783570034E+01  0.74175273513E+03  0.74321790703E+03  0.00000000000E+00 0. -1.
          1    1    1    2  503    0 -0.90933862071E+02 -0.11841806182E+03 -0.97455337339E+03  0.98592397386E+03  0.00000000000E+00 0. -1.
<mgrwt>
<rscale>  0 0.83244893E+02</rscale>
<asrwt>0</asrwt>
<pdfrwt beam="2">  1        2 0.15917988E+00 0.14856345E+03</pdfrwt>
<pdfrwt beam="1">  1        1 0.13924234E+00 0.46644799E+02</pdfrwt>
<totfact> 0.74221085E+01</totfact>
</mgrwt>
</event>
<event>
 7    1  0.5277388E-004  0.1075691E+03  0.7546771E-02  0.1370707E+00
          1   -1    0    0  502    0 -0.00000000000E+00  0.00000000000E+00  0.74411958687E+03  0.74411958687E+03  0.00000000000E+00 0. -1.
          2   -1    0    0  503    0  0.00000000000E+00 -0.00000000000E+00 -0.15435984436E+04  0.15435984436E+04  0.00000000000E+00 0. -1.
         25    2    1    2    0    0  0.12063908355E+03 -0.15495950716E+02 -0.30006134275E+03  0.34707663554E+03  0.12502587155E+03 0.  0.
          4    1    3    3  501    0  0.28569918999E+02 -0.54429305934E+02 -0.55334671904E+02  0.82718368158E+02  0.12700000000E+01 0. -1.
         -4    1    3    3    0  501  0.92069164554E+02  0.38933355218E+02 -0.24472667084E+03  0.26435826738E+03  0.12700000000E+01 0. -1.
          2    1    1    2  502    0 -0.95706492861E+02  0.48915460719E+02  0.71624467322E+03  0.72426437644E+03  0.00000000000E+00 0. -1.
          1    1    1    2  503    0 -0.24932590691E+02 -0.33419510003E+02 -0.12156621872E+04  0.12163770184E+04  0.00000000000E+00 0. -1.
<mgrwt>
<rscale>  0 0.66971082E+02</rscale>
<asrwt>0</asrwt>
<pdfrwt beam="2">  1        2 0.23747668E+00 0.41695296E+02</pdfrwt>
<pdfrwt beam="1">  1        1 0.11447994E+00 0.10756911E+03</pdfrwt>
<totfact> 0.55812183E+01</totfact>
</mgrwt>
</event>
<event>
 7    1  0.5277388E-004  0.5627913E+03  0.7546771E-02  0.9985758E-01
         -2   -1    0    0    0  501 -0.00000000000E+00  0.00000000000E+00  0.14716113847E+04  0.14716113847E+04  0.00000000000E+00 0.  1.
          2   -1    0    0  503    0  0.00000000000E+00 -0.00000000000E+00 -0.53807355728E+02  0.53807355728E+02  0.00000000000E+00 0. -1.
         25    2    1    2    0    0  0.13168561937E+03 -0.14772164960E+03  0.27076563647E+03  0.35791571891E+03  0.12500737517E+03 0.  0.
          4    1    3    3  502    0  0.24458914424E+02  0.16368488302E+02  0.88287884476E+01  0.30752663454E+02  0.12700000000E+01 0. -1.
         -4    1    3    3    0  502  0.10722670494E+03 -0.16409013790E+03  0.26193684802E+03  0.32716305546E+03  0.12700000000E+01 0. -1.
          1    1    1    2  503    0 -0.98936026172E+02  0.45566519296E+02  0.51087569694E+03  0.52235871074E+03  0.00000000000E+00 0. -1.
         -1    1    1    2    0  501 -0.32749593194E+02  0.10215513030E+03  0.63616269552E+03  0.64514431073E+03  0.00000000000E+00 0.  1.
<mgrwt>
<rscale>  0 0.56279132E+03</rscale>
<asrwt>0</asrwt>
<pdfrwt beam="2">  1        2 0.82780558E-02 0.56279132E+03</pdfrwt>
<pdfrwt beam="1">  1       -2 0.22640172E+00 0.56279132E+03</pdfrwt>
<totfact> 0.78956619E+01</totfact>
</mgrwt>
</event>
<event>
 7    1  0.5277388E-004  0.2682346E+03  0.7546771E-02  0.1166679E+00
          1   -1    0    0  503    0  0.00000000000E+00  0.00000000000E+00  0.77580962101E+03  0.77580962101E+03  0.00000000000E+00 0. -1.
         -1   -1    0    0    0  501 -0.00000000000E+00 -0.00000000000E+00 -0.92250338667E+03  0.92250338667E+03  0.00000000000E+00 0.  1.
         25    2    1    2    0    0 -0.23349126352E+03  0.41006407913E+02  0.43294262776E+03  0.50917952034E+03  0.12499907748E+03 0.  0.
          4    1    3    3  502    0 -0.89562348361E+02  0.69125239026E+02  0.25224490191E+03  0.27645762126E+03  0.12700000000E+01 0.  1.
         -4    1    3    3    0  502 -0.14392891516E+03 -0.28118831113E+02  0.18069772585E+03  0.23272189908E+03  0.12700000000E+01 0.  1.
          2    1    1    2  503    0  0.35480931455E+03 -0.25069519289E+02  0.19449151263E+03  0.40539496664E+03  0.00000000000E+00 0. -1.
         -2    1    1    2    0  501 -0.12131805103E+03 -0.15936888624E+02 -0.77412790604E+03  0.78373852071E+03  0.00000000000E+00 0.  1.
<mgrwt>
<rscale>  0 0.18116643E+03</rscale>
<asrwt>0</asrwt>
<pdfrwt beam="1">  1        1 0.11935533E+00 0.26823459E+03</pdfrwt>
<pdfrwt beam="2">  1       -1 0.14192360E+00 0.12236034E+03</pdfrwt>
<totfact> 0.11279680E+01</totfact>
</mgrwt>
</event>
<event>
 7    1  0.5277388E-004  0.7746107E+02  0.7546771E-02  0.1413674E+00
          2   -1    0    0  503    0  0.00000000000E+00  0.00000000000E+00  0.11030371897E+04  0.11030371897E+04  0.00000000000E+00 0. -1.
          1   -1    0    0  502    0 -0.00000000000E+00 -0.00000000000E+00 -0.87844691731E+02  0.87844691731E+02  0.00000000000E+00 0. -1.
         25    2    1    2    0    0  0.76370454316E+02 -0.78920973674E+02  0.35851935740E+03  0.39524731060E+03  0.12499336193E+03 0.  0.
          4    1    3    3  501    0  0.63784317744E+02 -0.32519789143E+01  0.62208513473E+02  0.89165725508E+02  0.12700000000E+01 0. -1.
         -4    1    3    3    0  501  0.12586136572E+02 -0.75668994760E+02  0.29631084393E+03  0.30608158509E+03  0.12700000000E+01 0. -1.
          2    1    1    2  502    0 -0.37428845884E+02  0.65969270652E+02 -0.48004821552E+02  0.89762609514E+02  0.00000000000E+00 0. -1.
          1    1    1    2  503    0 -0.38941608432E+02  0.12951703022E+02  0.70467796216E+03  0.70587196136E+03  0.00000000000E+00 0. -1.
<mgrwt>
<rscale>  0 0.56381920E+02</rscale>
<asrwt>0</asrwt>
<pdfrwt beam="1">  1        2 0.16969802E+00 0.41038951E+02</pdfrwt>
<pdfrwt beam="2">  1        1 0.13514569E-01 0.77461065E+02</pdfrwt>
<totfact> 0.13902808E+03</totfact>
</mgrwt>
</event>
<event>
 7    1  0.5277388E-004  0.8258375E+02  0.7546771E-02  0.1345931E+00
          1   -1    0    0  503    0  0.00000000000E+00  0.00000000000E+00  0.11113692720E+04  0.11113692720E+04  0.00000000000E+00 0. -1.
         -1   -1    0    0    0  501 -0.00000000000E+00 -0.00000000000E+00 -0.50388250505E+03  0.50388250505E+03  0.00000000000E+00 0.  1.
         25    2    1    2    0    0  0.32347132608E+02 -0.54579800079E+02  0.14448604973E+03  0.20131120779E+03  0.12499876900E+03 0.  0.
          4    1    3    3  502    0  0.25534999384E+02 -0.63122893288E+02  0.12960186173E+02  0.69326150738E+02  0.12700000000E+01 0.  1.
         -4    1    3    3    0  502  0.68121332245E+01  0.85430932089E+01  0.13152586355E+03  0.13198505705E+03  0.12700000000E+01 0.  1.
          2    1    1    2  503    0  0.29475014576E+02  0.80190718869E+02  0.93415710679E+03  0.93805587682E+03  0.00000000000E+00 0. -1.
         -2    1    1    2    0  501 -0.61822147184E+02 -0.25610918790E+02 -0.47115638958E+03  0.47588469243E+03  0.00000000000E+00 0.  1.
<mgrwt>
<rscale>  0 0.74338847E+02</rscale>
<asrwt>0</asrwt>
<pdfrwt beam="1">  1        1 0.17097989E+00 0.82583747E+02</pdfrwt>
<pdfrwt beam="2">  1       -1 0.77520386E-01 0.66917091E+02</pdfrwt>
<totfact> 0.26518905E+01</totfact>
</mgrwt>
</event>
<event>
 7    1  0.5277388E-004  0.1619323E+03  0.7546771E-02  0.1249885E+00
         -1   -1    0    0    0  501 -0.00000000000E+00  0.00000000000E+00  0.88768814932E+02  0.88768814932E+02  0.00000000000E+00 0.  1.
          1   -1    0    0  503    0  0.00000000000E+00 -0.00000000000E+00 -0.19892486116E+04  0.19892486116E+04  0.00000000000E+00 0. -1.
         25    2    1    2    0    0 -0.76671613872E+00 -0.23990247105E+03 -0.18170709454E+03  0.32587716556E+03  0.12499870142E+03 0.  0.
          4    1    3    3  502    0  0.69756104269E+01 -0.18361216105E+03 -0.19455307557E+03  0.26760903748E+03  0.12700000000E+01 0.  1.
         -4    1    3    3    0  502 -0.77423265656E+01 -0.56290309998E+02  0.12845981039E+02  0.58268128073E+02  0.12700000000E+01 0.  1.
          2    1    1    2  503    0  0.10452754266E+02  0.15740527390E+03 -0.15967803065E+04  0.16045538407E+04  0.00000000000E+00 0. -1.
         -2    1    1    2    0  501 -0.96860381268E+01  0.82497197151E+02 -0.12199239564E+03  0.14758642033E+03  0.00000000000E+00 0.  1.
<mgrwt>
<rscale>  0 0.11597726E+03</rscale>
<asrwt>0</asrwt>
<pdfrwt beam="2">  1        1 0.30603821E+00 0.16193231E+03</pdfrwt>
<pdfrwt beam="1">  1       -1 0.13656742E-01 0.83063872E+02</pdfrwt>
<totfact> 0.12895724E+02</totfact>
</mgrwt>
</event>
<event>
 7    1  0.5277388E-004  0.1221939E+03  0.7546771E-02  0.1305411E+00
          1   -1    0    0  502    0 -0.00000000000E+00  0.00000000000E+00  0.52749818768E+02  0.52749818768E+02  0.00000000000E+00 0. -1.
          2   -1    0    0  503    0  0.00000000000E+00 -0.00000000000E+00 -0.16378620455E+04  0.16378620455E+04  0.00000000000E+00 0. -1.
         25    2    1    2    0    0  0.48805364082E+02 -0.93329140585E+02 -0.39258547122E+03  0.42525222770E+03  0.12499525152E+03 0.  0.
          4    1    3    3  501    0  0.27389465105E+02  0.72083851488E+00 -0.25915848555E+03  0.26060590158E+03  0.12700000000E+01 0. -1.
         -4    1    3    3    0  501  0.21415898977E+02 -0.94049979100E+02 -0.13342698567E+03  0.16464632611E+03  0.12700000000E+01 0. -1.
          2    1    1    2  502    0  0.59768042686E+02  0.24912557076E+02  0.11912856885E+01  0.64763211688E+02  0.00000000000E+00 0. -1.
          1    1    1    2  503    0 -0.10857340677E+03  0.68416583509E+02 -0.11937180412E+04  0.12005964249E+04  0.00000000000E+00 0. -1.
<mgrwt>
<rscale>  0 0.88951293E+02</rscale>
<asrwt>0</asrwt>
<pdfrwt beam="2">  1        2 0.25197880E+00 0.12219393E+03</pdfrwt>
<pdfrwt beam="1">  1        1 0.81153558E-02 0.64752254E+02</pdfrwt>
<totfact> 0.12947988E+03</totfact>
</mgrwt>
</event>
<event>
 7    1  0.5277388E-004  0.1907089E+03  0.7546771E-02  0.1231194E+00
          2   -1    0    0  503    0  0.00000000000E+00  0.00000000000E+00  0.20360008765E+04  0.20360008765E+04  0.00000000000E+00 0. -1.
         -2   -1    0    0    0  501 -0.00000000000E+00 -0.00000000000E+00 -0.73812958577E+02  0.73812958577E+02  0.00000000000E+00 0.  1.
         25    2    1    2    0    0 -0.18334130946E+03  0.18468275206E+03  0.11777955567E+04  0.12126618372E+04  0.12499841326E+03 0.  0.
          4    1    3    3  502    0 -0.15422433308E+03  0.18914951006E+03  0.87391646479E+03  0.90735565375E+03  0.12700000000E+01 0. -1.
         -4    1    3    3    0  502 -0.29116976384E+02 -0.44667579929E+01  0.30387909193E+03  0.30530618345E+03  0.12700000000E+01 0. -1.
          1    1    1    2  503    0  0.76799427318E+02 -0.37023284186E+02  0.68386887082E+03  0.68916290388E+03  0.00000000000E+00 0. -1.
         -1    1    1    2    0  501  0.10654188214E+03 -0.14765946788E+03  0.10052349040E+03  0.20798909401E+03  0.00000000000E+00 0.  1.
<mgrwt>
<rscale>  0 0.12751236E+03</rscale>
<asrwt>0</asrwt>
<pdfrwt beam="1">  1        2 0.31323086E+00 0.85257701E+02</pdfrwt>
<pdfrwt beam="2">  1       -2 0.11355841E-01 0.19070889E+03</pdfrwt>
<totfact> 0.42838899E+02</totfact>
</mgrwt>
</event>
<event>
 7    1  0.5277388E-004  0.4078804E+02  0.7546771E-02  0.1581803E+00
          1   -1    0    0  503    0  0.00000000000E+00  0.00000000000E+00  0.53306607435E+03  0.53306607435E+03  0.00000000000E+00 0. -1.
         -1   -1    0    0    0  501 -0.00000000000E+00 -0.00000000000E+00 -0.30923512917E+03  0.30923512917E+03  0.00000000000E+00 0.  1.
         25    2    1    2    0    0 -0.18542454748E+02 -0.28282980179E+02  0.12163312944E+01  0.12949252431E+03  0.12499233895E+03 0.  0.
          4    1    3    3  502    0  0.72897577565E+01 -0.59526684744E+02 -0.39658276961E+02  0.71909377665E+02  0.12700000000E+01 0.  1.
         -4    1    3    3    0  502 -0.25832212504E+02  0.31243704564E+02  0.40874608255E+02  0.57583146647E+02  0.12700000000E+01 0.  1.
          2    1    1    2  503    0  0.20734704705E+02 -0.12801261854E+02  0.46566424289E+03  0.46630139115E+03  0.00000000000E+00 0. -1.
         -2    1    1    2    0  501 -0.21922499576E+01  0.41084242034E+02 -0.24304962901E+03  0.24650728806E+03  0.00000000000E+00 0.  1.
<mgrwt>
<rscale>  0 0.31526556E+02</rscale>
<asrwt>0</asrwt>
<pdfrwt beam="1">  1        1 0.82010165E-01 0.24368018E+02</pdfrwt>
<pdfrwt beam="2">  1       -1 0.47574635E-01 0.40788043E+02</pdfrwt>
<totfact> 0.20197960E+02</totfact>
</mgrwt>
</event>
<event>
 7    1  0.5277388E-004  0.2608700E+03  0.7546771E-02  0.1235546E+00
          2   -1    0    0  503    0  0.00000000000E+00  0.00000000000E+00  0.18464882945E+04  0.18464882945E+04  0.00000000000E+00 0. -1.
          1   -1    0    0  502    0 -0.00000000000E+00 -0.00000000000E+00 -0.11672687763E+04  0.11672687763E+04  0.00000000000E+00 0. -1.
         25    2    1    2    0    0 -0.20563395087E+03 -0.36284305363E+02  0.20665366160E+03  0.31926861685E+03  0.12499936516E+03 0.  0.
          4    1    3    3  501    0 -0.20269526927E+03  0.29990928859E+01  0.16042662699E+03  0.25852017772E+03  0.12700000000E+01 0. -1.
         -4    1    3    3    0  501 -0.29386815935E+01 -0.39283398248E+02  0.46227034613E+02  0.60748439128E+02  0.12700000000E+01 0. -1.
          2    1    1    2  502    0  0.26320673333E+03  0.20854918742E+02 -0.10946993224E+04  0.11260902799E+04  0.00000000000E+00 0. -1.
          1    1    1    2  503    0 -0.57572782466E+02  0.15429386620E+02  0.15672651789E+04  0.15683981740E+04  0.00000000000E+00 0. -1.
<mgrwt>
<rscale>  0 0.12469569E+03</rscale>
<asrwt>0</asrwt>
<pdfrwt beam="1">  1        2 0.28407512E+00 0.59604457E+02</pdfrwt>
<pdfrwt beam="2">  1        1 0.17957981E+00 0.26087002E+03</pdfrwt>
<totfact> 0.17360508E+01</totfact>
</mgrwt>
</event>
<event>
 7    1  0.5277388E-004  0.3783443E+02  0.7546771E-02  0.1528127E+00
          2   -1    0    0  503    0  0.00000000000E+00  0.00000000000E+00  0.28193323392E+03  0.28193323392E+03  0.00000000000E+00 0. -1.
          1   -1    0    0  502    0 -0.00000000000E+00 -0.00000000000E+00 -0.26658831007E+03  0.26658831007E+03  0.00000000000E+00 0. -1.
         25    2    1    2    0    0  0.30945782872E+02  0.50438422947E+02  0.84539469522E+02  0.16208719664E+03  0.12499464556E+03 0.  0.
          4    1    3    3  501    0 -0.22436174172E+02  0.75861198236E+02  0.50167393883E+02  0.93683956034E+02  0.12700000000E+01 0. -1.
         -4    1    3    3    0  501  0.53381957043E+02 -0.25422775289E+02  0.34372075640E+02  0.68403240603E+02  0.12700000000E+01 0. -1.
          2    1    1    2  502    0  0.37210374187E+01 -0.36816835097E+02 -0.22408937338E+03  0.22712413507E+03  0.00000000000E+00 0. -1.
          1    1    1    2  503    0 -0.34666820290E+02 -0.13621587850E+02  0.15489482772E+03  0.15931021229E+03  0.00000000000E+00 0. -1.
<mgrwt>
<rscale>  0 0.37417113E+02</rscale>
<asrwt>0</asrwt>
<pdfrwt beam="1">  1        2 0.43374343E-01 0.37834430E+02</pdfrwt>
<pdfrwt beam="2">  1        1 0.41013586E-01 0.37004398E+02</pdfrwt>
<totfact> 0.15657840E+03</totfact>
</mgrwt>
</event>
<event>
 7    1  0.5277388E-004  0.1455956E+03  0.7546771E-02  0.1266274E+00
          2   -1    0    0  503    0  0.00000000000E+00  0.00000000000E+00  0.34797172241E+04  0.34797172241E+04  0.00000000000E+00 0. -1.
          1   -1    0    0  502    0 -0.00000000000E+00 -0.00000000000E+00 -0.32452610884E+02  0.32452610884E+02  0.00000000000E+00 0. -1.
         25    2    1    2    0    0  0.11119967454E+03  0.37127532432E+02  0.11927132313E+04  0.12049626248E+04  0.12500501460E+03 0.  0.
          4    1    3    3  501    0  0.10276749469E+03 -0.12969109837E+02  0.51312412808E+03  0.52347620719E+03  0.12700000000E+01 0.  1.
         -4    1    3    3    0  501  0.84321798505E+01  0.50096642268E+02  0.67958910322E+03  0.68148641757E+03  0.12700000000E+01 0.  1.
          2    1    1    2  502    0 -0.10182889229E+03 -0.11516771323E+03  0.20544457038E+03  0.25659344686E+03  0.00000000000E+00 0. -1.
          1    1    1    2  503    0 -0.93707822532E+01  0.78040180799E+02  0.20491068115E+04  0.20506137634E+04  0.00000000000E+00 0. -1.
<mgrwt>
<rscale>  0 0.10697630E+03</rscale>
<asrwt>0</asrwt>
<pdfrwt beam="1">  1        2 0.53534082E+00 0.78600772E+02</pdfrwt>
<pdfrwt beam="2">  1        1 0.49927121E-02 0.14559564E+03</pdfrwt>
<totfact> 0.28098761E+02</totfact>
</mgrwt>
</event>
<event>
 7    1  0.5277388E-004  0.1520736E+03  0.7546771E-02  0.1241352E+00
          2   -1    0    0  503    0  0.00000000000E+00  0.00000000000E+00  0.53634778114E+03  0.53634778114E+03  0.00000000000E+00 0. -1.
          1   -1    0    0  502    0 -0.00000000000E+00 -0.00000000000E+00 -0.37976617624E+04  0.37976617624E+04  0.00000000000E+00 0. -1.
         25    2    1    2    0    0 -0.11814162798E+03  0.22940069861E+02 -0.64926058884E+03  0.67204999906E+03  0.12501279117E+03 0.  0.
          4    1    3    3  501    0 -0.12259709768E+03  0.27313976631E+02 -0.65279090652E+03  0.66476588527E+03  0.12700000000E+01 0. -1.
         -4    1    3    3    0  501  0.44554697066E+01 -0.43739067706E+01  0.35303176875E+01  0.72841137909E+01  0.12700000000E+01 0. -1.
          2    1    1    2  502    0  0.19777600002E+02  0.94326872617E+02 -0.31250910387E+04  0.31265768362E+04  0.00000000000E+00 0. -1.
          1    1    1    2  503    0  0.98364027975E+02 -0.11726694248E+03  0.51303764630E+03  0.53538270828E+03  0.00000000000E+00 0. -1.
<mgrwt>
<rscale>  0 0.12106422E+03</rscale>
<asrwt>0</asrwt>
<pdfrwt beam="1">  1        2 0.82515044E-01 0.15207362E+03</pdfrwt>
<pdfrwt beam="2">  1        1 0.58425565E+00 0.96377966E+02</pdfrwt>
<totfact> 0.18004467E+00</totfact>
</mgrwt>
</event>
<event>
 7    1  0.5277388E-004  0.2581455E+03  0.7546771E-02  0.1299124E+00
         -1   -1    0    0    0  501 -0.00000000000E+00  0.00000000000E+00  0.14671088079E+03  0.14671088079E+03  0.00000000000E+00 0.  1.
          1   -1    0    0  503    0  0.00000000000E+00 -0.00000000000E+00 -0.11115240794E+04  0.11115240794E+04  0.00000000000E+00 0. -1.
         25    2    1    2    0    0 -0.13564799417E+03 -0.18998704361E+03 -0.62876525917E+03  0.68225057522E+03  0.12499856474E+03 0.  0.
          4    1    3    3  502    0 -0.74669021675E+02 -0.13143729778E+03 -0.53522262891E+03  0.55616193814E+03  0.12700000000E+01 0.  1.
         -4    1    3    3    0  502 -0.60978972493E+02 -0.58549745836E+02 -0.93542630268E+02  0.12608863708E+03  0.12700000000E+01 0.  1.
          2    1    1    2  503    0 -0.27611969572E+02 -0.17089911470E+02 -0.30922949675E+03  0.31092984353E+03  0.00000000000E+00 0. -1.
         -2    1    1    2    0  501  0.16325996374E+03  0.20707695508E+03 -0.26818442726E+02  0.26505454148E+03  0.00000000000E+00 0.  1.
<mgrwt>
<rscale>  0 0.91557199E+02</rscale>
<asrwt>0</asrwt>
<pdfrwt beam="2">  1        1 0.17100371E+00 0.32472849E+02</pdfrwt>
<pdfrwt beam="1">  1       -1 0.22570904E-01 0.25814552E+03</pdfrwt>
<totfact> 0.25668274E+02</totfact>
</mgrwt>
</event>
<event>
 7    1  0.5277388E-004  0.3284638E+02  0.7546771E-02  0.1578432E+00
          1   -1    0    0  502    0 -0.00000000000E+00  0.00000000000E+00  0.80242866644E+03  0.80242866644E+03  0.00000000000E+00 0. -1.
          2   -1    0    0  503    0  0.00000000000E+00 -0.00000000000E+00 -0.18074529130E+03  0.18074529130E+03  0.00000000000E+00 0. -1.
         25    2    1    2    0    0 -0.15253225281E+01  0.20023211496E+01  0.23323720391E+03  0.26463277788E+03  0.12499831177E+03 0.  0.
          4    1    3    3  501    0 -0.21977854645E+02  0.55284868764E+02  0.16647735532E+03  0.17679300196E+03  0.12700000000E+01 0. -1.
         -4    1    3    3    0  501  0.20452532117E+02 -0.53282547614E+02  0.66759848590E+02  0.87839775922E+02  0.12700000000E+01 0. -1.
          2    1    1    2  502    0 -0.26842157490E+01  0.30779247271E+02  0.55140227573E+03  0.55226717878E+03  0.00000000000E+00 0. -1.
          1    1    1    2  503    0  0.42095382771E+01 -0.32781568420E+02 -0.16295610450E+03  0.16627400108E+03  0.00000000000E+00 0. -1.
<mgrwt>
<rscale>  0 0.31856301E+02</rscale>
<asrwt>0</asrwt>
<pdfrwt beam="2">  1        2 0.27806968E-01 0.32846377E+02</pdfrwt>
<pdfrwt beam="1">  1        1 0.12345056E+00 0.30896069E+02</pdfrwt>
<totfact> 0.62817519E+02</totfact>
</mgrwt>
</event>
<event>
 7    1  0.5277388E-004  0.1115900E+03  0.7546771E-02  0.1337397E+00
          2   -1    0    0  503    0  0.00000000000E+00  0.00000000000E+00  0.18550930395E+04  0.18550930395E+04  0.00000000000E+00 0. -1.
          1   -1    0    0  502    0 -0.00000000000E+00 -0.00000000000E+00 -0.31650124535E+02  0.31650124535E+02  0.00000000000E+00 0. -1.
         25    2    1    2    0    0 -0.88090259860E+02 -0.65822613963E+02  0.47929018981E+03  0.50738191282E+03  0.12499923609E+03 0.  0.
          4    1    3    3  501    0 -0.24214283474E+02 -0.61692020977E+02  0.84313830025E+02  0.10725050960E+03  0.12700000000E+01 0.  1.
         -4    1    3    3    0  501 -0.63875976386E+02 -0.41305929860E+01  0.39497635978E+03  0.40013140322E+03  0.12700000000E+01 0.  1.
          2    1    1    2  502    0  0.50889726346E+02  0.10401072606E+03  0.18025087431E+03  0.21423905590E+03  0.00000000000E+00 0. -1.
          1    1    1    2  503    0  0.37200533514E+02 -0.38188112100E+02  0.11639018509E+04  0.11651221953E+04  0.00000000000E+00 0. -1.
<mgrwt>
<rscale>  0 0.77130614E+02</rscale>
<asrwt>0</asrwt>
<pdfrwt beam="1">  1        2 0.28539884E+00 0.53312396E+02</pdfrwt>
<pdfrwt beam="2">  1        1 0.48692514E-02 0.11159003E+03</pdfrwt>
<totfact> 0.22646774E+03</totfact>
</mgrwt>
</event>
<event>
 7    1  0.5277388E-004  0.6837608E+02  0.7546771E-02  0.1411331E+00
          2   -1    0    0  503    0  0.00000000000E+00  0.00000000000E+00  0.20536128716E+04  0.20536128716E+04  0.00000000000E+00 0. -1.
         -2   -1    0    0    0  501 -0.00000000000E+00 -0.00000000000E+00 -0.48438241987E+03  0.48438241987E+03  0.00000000000E+00 0.  1.
         25    2    1    2    0    0 -0.37393073853E+02  0.55294716816E+02  0.47595621498E+03  0.49660687937E+03  0.12501330485E+03 0.  0.
          4    1    3    3  502    0 -0.20234937530E+01  0.50710558111E+02  0.57794820422E+02  0.76925349518E+02  0.12700000000E+01 0. -1.
         -4    1    3    3    0  502 -0.35369580100E+02  0.45841587046E+01  0.41816139455E+03  0.41968152986E+03  0.12700000000E+01 0. -1.
          1    1    1    2  503    0  0.67136891961E+02 -0.18457486506E+02  0.15653733349E+04  0.15669210952E+04  0.00000000000E+00 0. -1.
         -1    1    1    2    0  501 -0.29743818108E+02 -0.36837230310E+02 -0.47209909817E+03  0.47446731684E+03  0.00000000000E+00 0.  1.
<mgrwt>
<rscale>  0 0.56897780E+02</rscale>
<asrwt>0</asrwt>
<pdfrwt beam="1">  1        2 0.31594044E+00 0.68376079E+02</pdfrwt>
<pdfrwt beam="2">  1       -2 0.74520374E-01 0.47346344E+02</pdfrwt>
<totfact> 0.14055430E+01</totfact>
</mgrwt>
</event>
<event>
 7    1  0.5277388E-004  0.1607521E+03  0.7546771E-02  0.1225769E+00
          2   -1    0    0  503    0  0.00000000000E+00  0.00000000000E+00  0.11375583074E+04  0.11375583074E+04  0.00000000000E+00 0. -1.
          1   -1    0    0  502    0 -0.00000000000E+00 -0.00000000000E+00 -0.13425092171E+04  0.13425092171E+04  0.00000000000E+00 0. -1.
         25    2    1    2    0    0 -0.60533214898E+02 -0.24459293547E+03 -0.40746785496E+03  0.49512069992E+03  0.12499792187E+03 0.  0.
          4    1    3    3  501    0  0.38396616313E+02 -0.57233953499E+02 -0.11259590791E+03  0.13202074441E+03  0.12700000000E+01 0. -1.
         -4    1    3    3    0  501 -0.98929831211E+02 -0.18735898197E+03 -0.29487194706E+03  0.36309995551E+03  0.12700000000E+01 0. -1.
          2    1    1    2  502    0  0.65014275272E+02  0.84968891561E+02 -0.88213686917E+03  0.88860116164E+03  0.00000000000E+00 0. -1.
          1    1    1    2  503    0 -0.44810603741E+01  0.15962404391E+03  0.10846538145E+04  0.10963456629E+04  0.00000000000E+00 0. -1.
<mgrwt>
<rscale>  0 0.13114360E+03</rscale>
<asrwt>0</asrwt>
<pdfrwt beam="1">  1        2 0.17500897E+00 0.16075206E+03</pdfrwt>
<pdfrwt beam="2">  1        1 0.20653988E+00 0.10698864E+03</pdfrwt>
<totfact> 0.30391678E+01</totfact>
</mgrwt>
</event>
<event>
 7    1  0.5277388E-004  0.8862883E+02  0.7546771E-02  0.1366154E+00
         -1   -1    0    0    0  501 -0.00000000000E+00  0.00000000000E+00  0.13216857987E+03  0.13216857987E+03  0.00000000000E+00 0.  1.
          1   -1    0    0  503    0  0.00000000000E+00 -0.00000000000E+00 -0.14212296515E+04  0.14212296515E+04  0.00000000000E+00 0. -1.
         25    2    1    2    0    0  0.10148196585E+03  0.81070333239E+02 -0.32062387342E+03  0.36782534135E+03  0.12499930084E+03 0.  0.
          4    1    3    3  502    0  0.16062857174E+02 -0.33508749752E+02 -0.60020285052E+02  0.70603818652E+02  0.12700000000E+01 0.  1.
         -4    1    3    3    0  502  0.85419108677E+02  0.11457908299E+03 -0.26060358837E+03  0.29722152270E+03  0.12700000000E+01 0.  1.
          2    1    1    2  503    0 -0.21212909363E+02 -0.48082339779E+02 -0.10589062083E+04  0.10602095344E+04  0.00000000000E+00 0. -1.
         -2    1    1    2    0  501 -0.80269056488E+02 -0.32987993459E+02  0.90469010081E+02  0.12536335560E+03  0.00000000000E+00 0.  1.
<mgrwt>
<rscale>  0 0.68247926E+02</rscale>
<asrwt>0</asrwt>
<pdfrwt beam="2">  1        1 0.21865071E+00 0.52553772E+02</pdfrwt>
<pdfrwt beam="1">  1       -1 0.20333628E-01 0.88628832E+02</pdfrwt>
<totfact> 0.17895896E+02</totfact>
</mgrwt>
</event>
<event>
 7    1  0.5277388E-004  0.8373515E+02  0.7546771E-02  0.1388565E+00
          2   -1    0    0  503    0  0.00000000000E+00  0.00000000000E+00  0.62705405777E+03  0.62705405777E+03  0.00000000000E+00 0. -1.
         -2   -1    0    0    0  501 -0.00000000000E+00 -0.00000000000E+00 -0.47422506898E+02  0.47422506898E+02  0.00000000000E+00 0.  1.
         25    2    1    2    0    0 -0.50324962520E+02 -0.47573887168E+02  0.20131481455E+03  0.24687765925E+03  0.12500018995E+03 0.  0.
          4    1    3    3  502    0 -0.71485398338E+02 -0.38240808710E+02  0.20760503501E+03  0.22287661404E+03  0.12700000000E+01 0.  1.
         -4    1    3    3    0  502  0.21160435818E+02 -0.93330784584E+01 -0.62902204617E+01  0.24001045206E+02  0.12700000000E+01 0.  1.
          1    1    1    2  503    0  0.86940772329E+02  0.19237254104E+02  0.36999271890E+03  0.38055667368E+03  0.00000000000E+00 0. -1.
         -1    1    1    2    0  501 -0.36615809810E+02  0.28336633064E+02  0.83240174235E+01  0.47042231744E+02  0.00000000000E+00 0.  1.
<mgrwt>
<rscale>  0 0.62265001E+02</rscale>
<asrwt>0</asrwt>
<pdfrwt beam="1">  1        2 0.96469849E-01 0.83735148E+02</pdfrwt>
<pdfrwt beam="2">  1       -2 0.72957707E-02 0.46299917E+02</pdfrwt>
<totfact> 0.46745803E+03</totfact>
</mgrwt>
</event>
<event>
 7    1  0.5277388E-004  0.1139695E+03  0.7546771E-02  0.1273270E+00
          2   -1    0    0  503    0  0.00000000000E+00  0.00000000000E+00  0.28081971967E+04  0.28081971967E+04  0.00000000000E+00 0. -1.
          1   -1    0    0  502    0 -0.00000000000E+00 -0.00000000000E+00 -0.10729724519E+04  0.10729724519E+04  0.00000000000E+00 0. -1.
         25    2    1    2    0    0 -0.67411289818E+02 -0.19306785282E+03  0.94029868911E+03  0.97036313461E+03  0.12499404179E+03 0.  0.
          4    1    3    3  501    0 -0.69809317568E+02 -0.20685463101E+03  0.79648007137E+03  0.82585973154E+03  0.12700000000E+01 0. -1.
         -4    1    3    3    0  501  0.23980277499E+01  0.13786778196E+02  0.14381861774E+03  0.14450340307E+03  0.12700000000E+01 0. -1.
          2    1    1    2  502    0  0.20420576755E+02  0.11183853122E+03 -0.10536923713E+04  0.10598077516E+04  0.00000000000E+00 0. -1.
          1    1    1    2  503    0  0.46990713063E+02  0.81229321598E+02  0.18486184270E+04  0.18509987624E+04  0.00000000000E+00 0. -1.
<mgrwt>
<rscale>  0 0.10341725E+03</rscale>
<asrwt>0</asrwt>
<pdfrwt beam="1">  1        2 0.43203034E+00 0.93842047E+02</pdfrwt>
<pdfrwt beam="2">  1        1 0.16507269E+00 0.11396946E+03</pdfrwt>
<totfact> 0.64752383E+00</totfact>
</mgrwt>
</event>
<event>
 7    1  0.5277388E-004  0.8959395E+02  0.7546771E-02  0.1420530E+00
         -2   -1    0    0    0  501 -0.00000000000E+00  0.00000000000E+00  0.45139623947E+03  0.45139623947E+03  0.00000000000E+00 0.  1.
          2   -1    0    0  503    0  0.00000000000E+00 -0.00000000000E+00 -0.81245381351E+02  0.81245381351E+02  0.00000000000E+00 0. -1.
         25    2    1    2    0    0  0.46805715455E+02  0.93572532578E+02  0.13581608615E+03  0.21217497347E+03  0.12500246501E+03 0.  0.
          4    1    3    3  502    0 -0.12624170546E+02  0.91224310419E+02  0.42326220013E+02  0.10136254877E+03  0.12700000000E+01 0. -1.
         -4    1    3    3    0  502  0.59429886001E+02  0.23482221586E+01  0.93489866136E+02  0.11081242470E+03  0.12700000000E+01 0. -1.
          1    1    1    2  503    0  0.13992448800E+02 -0.30604646405E+02 -0.28086703052E+02  0.43832589398E+02  0.00000000000E+00 0. -1.
         -1    1    1    2    0  501 -0.60798164255E+02 -0.62967886173E+02  0.26242147503E+03  0.27663405795E+03  0.00000000000E+00 0.  1.
<mgrwt>
<rscale>  0 0.54908864E+02</rscale>
<asrwt>0</asrwt>
<pdfrwt beam="2">  1        2 0.12499290E-01 0.33651642E+02</pdfrwt>
<pdfrwt beam="1">  1       -2 0.69445574E-01 0.89593945E+02</pdfrwt>
<totfact> 0.85368629E+02</totfact>
</mgrwt>
</event>
<event>
 7    1  0.5277388E-004  0.6751712E+02  0.7546771E-02  0.1400820E+00
         -1   -1    0    0    0  501 -0.00000000000E+00  0.00000000000E+00  0.10582292347E+03  0.10582292347E+03  0.00000000000E+00 0.  1.
          1   -1    0    0  503    0  0.00000000000E+00 -0.00000000000E+00 -0.57583149702E+03  0.57583149702E+03  0.00000000000E+00 0. -1.
         25    2    1    2    0    0  0.11981867771E+02 -0.53910673391E+02 -0.80358148175E+02  0.15859286954E+03  0.12507733780E+03 0.  0.
          4    1    3    3  502    0  0.67685469676E+02 -0.40606621895E+02 -0.39826235139E+02  0.88419242546E+02  0.12700000000E+01 0. -1.
         -4    1    3    3    0  502 -0.55703601905E+02 -0.13304051496E+02 -0.40531913035E+02  0.70173626995E+02  0.12700000000E+01 0. -1.
          2    1    1    2  503    0 -0.60344099357E+02  0.34608357261E+02 -0.44304888851E+03  0.44847682920E+03  0.00000000000E+00 0. -1.
         -2    1    1    2    0  501  0.48362231586E+02  0.19302316130E+02  0.53398463141E+02  0.74584721745E+02  0.00000000000E+00 0.  1.
<mgrwt>
<rscale>  0 0.59293726E+02</rscale>
<asrwt>0</asrwt>
<pdfrwt beam="2">  1        1 0.88589460E-01 0.67517118E+02</pdfrwt>
<pdfrwt beam="1">  1       -1 0.16280450E-01 0.52071920E+02</pdfrwt>
<totfact> 0.10219984E+03</totfact>
</mgrwt>
</event>
<event>
 7    1  0.5277388E-004  0.1084859E+03  0.7546771E-02  0.1455007E+00
         -1   -1    0    0    0  501 -0.00000000000E+00  0.00000000000E+00  0.86933222387E+02  0.86933222387E+02  0.00000000000E+00 0.  1.
          1   -1    0    0  503    0  0.00000000000E+00 -0.00000000000E+00 -0.34819526153E+03  0.34819526153E+03  0.00000000000E+00 0. -1.
         25    2    1    2    0    0  0.67288597050E+02  0.69583303530E+02 -0.25711217814E+03  0.30183164591E+03  0.12500431555E+03 0.  0.
          4    1    3    3  502    0 -0.37588720690E+01  0.62504858093E+02 -0.42599572352E+02  0.75745117790E+02  0.12700000000E+01 0. -1.
         -4    1    3    3    0  502  0.71047469119E+02  0.70784454373E+01 -0.21451260579E+03  0.22608652812E+03  0.12700000000E+01 0. -1.
          2    1    1    2  503    0  0.21324342295E+02 -0.24171772839E+01  0.39078650266E+01  0.21813796767E+02  0.00000000000E+00 0. -1.
         -2    1    1    2    0  501 -0.88612939345E+02 -0.67166126246E+02 -0.80577260313E+01  0.11148304124E+03  0.00000000000E+00 0.  1.
<mgrwt>
<rscale>  0 0.48251483E+02</rscale>
<asrwt>0</asrwt>
<pdfrwt beam="2">  1        1 0.53568503E-01 0.21460902E+02</pdfrwt>
<pdfrwt beam="1">  1       -1 0.13374342E-01 0.10848592E+03</pdfrwt>
<totfact> 0.27026189E+03</totfact>
</mgrwt>
</event>
<event>
 7    1  0.5277388E-004  0.8455499E+02  0.7546771E-02  0.1434827E+00
          1   -1    0    0  502    0 -0.00000000000E+00  0.00000000000E+00  0.85253323761E+03  0.85253323761E+03  0.00000000000E+00 0. -1.
          2   -1    0    0  503    0  0.00000000000E+00 -0.00000000000E+00 -0.21454088506E+04  0.21454088506E+04  0.00000000000E+00 0. -1.
         25    2    1    2    0    0 -0.65762824257E+02  0.39755897245E+02 -0.78309274997E+03  0.79671828463E+03  0.12498195707E+03 0.  0.
          4    1    3    3  501    0 -0.10188595451E+03  0.19301485282E+02 -0.60690571456E+03  0.61570240728E+03  0.12700000000E+01 0. -1.
         -4    1    3    3    0  501  0.36123130255E+02  0.20454411962E+02 -0.17618703541E+03  0.18101587736E+03  0.12700000000E+01 0. -1.
          2    1    1    2  502    0  0.83557723073E+02 -0.13180208912E+02  0.84341579990E+03  0.84764722763E+03  0.00000000000E+00 0. -1.
          1    1    1    2  503    0 -0.17794898816E+02 -0.26575688333E+02 -0.13531986630E+04  0.13535765760E+04  0.00000000000E+00 0. -1.
<mgrwt>
<rscale>  0 0.52003267E+02</rscale>
<asrwt>0</asrwt>
<pdfrwt beam="2">  1        2 0.33006290E+00 0.31983209E+02</pdfrwt>
<pdfrwt beam="1">  1        1 0.13115896E+00 0.84554987E+02</pdfrwt>
<totfact> 0.24478776E+01</totfact>
</mgrwt>
</event>
<event>
 7    1  0.5277388E-004  0.1070386E+03  0.7546771E-02  0.1274852E+00
          1   -1    0    0  502    0 -0.00000000000E+00  0.00000000000E+00  0.14742244206E+03  0.14742244206E+03  0.00000000000E+00 0. -1.
          2   -1    0    0  503    0  0.00000000000E+00 -0.00000000000E+00 -0.35933721082E+04  0.35933721082E+04  0.00000000000E+00 0. -1.
         25    2    1    2    0    0 -0.42188597065E+02  0.22138391004E+02 -0.16203324008E+04  0.16258446335E+04  0.12499478804E+03 0.  0.
          4    1    3    3  501    0 -0.32803743879E+02 -0.12810929001E+02 -0.14942555923E+04  0.14946710653E+04  0.12700000000E+01 0.  1.
         -4    1    3    3    0  501 -0.93848531860E+01  0.34949320004E+02 -0.12607680848E+03  0.13117356812E+03  0.12700000000E+01 0.  1.
          2    1    1    2  502    0  0.85463108390E+02  0.66248010338E+02  0.12304328056E+03  0.16380595429E+03  0.00000000000E+00 0. -1.
          1    1    1    2  503    0 -0.43274511325E+02 -0.88386401341E+02 -0.19486605459E+04  0.19511439625E+04  0.00000000000E+00 0. -1.
<mgrwt>
<rscale>  0 0.10263451E+03</rscale>
<asrwt>0</asrwt>
<pdfrwt beam="2">  1        2 0.55282641E+00 0.98411581E+02</pdfrwt>
<pdfrwt beam="1">  1        1 0.22680379E-01 0.10703864E+03</pdfrwt>
<totfact> 0.30527211E+01</totfact>
</mgrwt>
</event>
<event>
 7    1  0.5277388E-004  0.1624334E+03  0.7546771E-02  0.1336580E+00
          1   -1    0    0  502    0 -0.00000000000E+00  0.00000000000E+00  0.11120788001E+04  0.11120788001E+04  0.00000000000E+00 0. -1.
          2   -1    0    0  503    0  0.00000000000E+00 -0.00000000000E+00 -0.19886508290E+04  0.19886508290E+04  0.00000000000E+00 0. -1.
         25    2    1    2    0    0 -0.39473332654E+02 -0.12978425643E+03  0.82360329990E+02  0.20201563124E+03  0.12499997640E+03 0.  0.
          4    1    3    3  501    0 -0.93676506024E+01 -0.14690675058E+03  0.79332181114E+02  0.16722605689E+03  0.12700000000E+01 0. -1.
         -4    1    3    3    0  501 -0.30105682052E+02  0.17122494146E+02  0.30281488756E+01  0.34789574347E+02  0.12700000000E+01 0. -1.
          2    1    1    2  502    0  0.70238817223E+02  0.15013391209E+03  0.96263087951E+03  0.97679675121E+03  0.00000000000E+00 0. -1.
          1    1    1    2  503    0 -0.30765484569E+02 -0.20349655658E+02 -0.19215632384E+04  0.19219172466E+04  0.00000000000E+00 0. -1.
<mgrwt>
<rscale>  0 0.77405561E+02</rscale>
<asrwt>0</asrwt>
<pdfrwt beam="2">  1        2 0.30594628E+00 0.36886631E+02</pdfrwt>
<pdfrwt beam="1">  1        1 0.17108905E+00 0.16243340E+03</pdfrwt>
<totfact> 0.17681416E+01</totfact>
</mgrwt>
</event>
<event>
 7    1  0.5277388E-004  0.3696858E+03  0.7546771E-02  0.1256287E+00
         -1   -1    0    0    0  501 -0.00000000000E+00  0.00000000000E+00  0.11288409938E+04  0.11288409938E+04  0.00000000000E+00 0.  1.
          1   -1    0    0  503    0  0.00000000000E+00 -0.00000000000E+00 -0.13741147026E+04  0.13741147026E+04  0.00000000000E+00 0. -1.
         25    2    1    2    0    0 -0.57234052074E+02 -0.35013734403E+03  0.32043874401E+03  0.49414340299E+03  0.12499927062E+03 0.  0.
          4    1    3    3  502    0 -0.33529651241E+02 -0.14989680562E+02  0.13771501895E+02  0.39245320742E+02  0.12700000000E+01 0. -1.
         -4    1    3    3    0  502 -0.23704400833E+02 -0.33514766347E+03  0.30666724211E+03  0.45489808225E+03  0.12700000000E+01 0. -1.
          2    1    1    2  503    0  0.29175882665E+02  0.36958876482E+03 -0.12601406129E+04  0.13135453747E+04  0.00000000000E+00 0. -1.
         -2    1    1    2    0  501  0.28058169409E+02 -0.19451420788E+02  0.69442816015E+03  0.69526691871E+03  0.00000000000E+00 0.  1.
<mgrwt>
<rscale>  0 0.11234546E+03</rscale>
<asrwt>0</asrwt>
<pdfrwt beam="2">  1        1 0.21140226E+00 0.36968580E+03</pdfrwt>
<pdfrwt beam="1">  1       -1 0.17366784E+00 0.34141158E+02</pdfrwt>
<totfact> 0.25699638E+00</totfact>
</mgrwt>
</event>
<event>
 7    1  0.5277388E-004  0.1870344E+03  0.7546771E-02  0.1255043E+00
          2   -1    0    0  503    0  0.00000000000E+00  0.00000000000E+00  0.32560512213E+03  0.32560512213E+03  0.00000000000E+00 0. -1.
         -2   -1    0    0    0  501 -0.00000000000E+00 -0.00000000000E+00 -0.30972321761E+03  0.30972321761E+03  0.00000000000E+00 0.  1.
         25    2    1    2    0    0  0.69744763358E+02 -0.11621178509E+03  0.87780266662E+02  0.20420286654E+03  0.12499569784E+03 0.  0.
          4    1    3    3  502    0  0.52481548886E+02  0.32405726856E+01 -0.37384467482E+01  0.52729528434E+02  0.12700000000E+01 0.  1.
         -4    1    3    3    0  502  0.17263214472E+02 -0.11945235777E+03  0.91518713410E+02  0.15147333810E+03  0.12700000000E+01 0.  1.
          1    1    1    2  503    0  0.50288394303E+02 -0.46243444170E+02  0.12916735840E+03  0.14612181633E+03  0.00000000000E+00 0. -1.
         -1    1    1    2    0  501 -0.12003315766E+03  0.16245522926E+03 -0.20106572055E+03  0.28500365687E+03  0.00000000000E+00 0.  1.
<mgrwt>
<rscale>  0 0.11303918E+03</rscale>
<asrwt>0</asrwt>
<pdfrwt beam="1">  1        2 0.50093096E-01 0.68318217E+02</pdfrwt>
<pdfrwt beam="2">  1       -2 0.47649726E-01 0.18703438E+03</pdfrwt>
<totfact> 0.42446390E+02</totfact>
</mgrwt>
</event>
<event>
 7    1  0.5277388E-004  0.1128349E+03  0.7546771E-02  0.1305894E+00
          1   -1    0    0  502    0 -0.00000000000E+00  0.00000000000E+00  0.26947968252E+03  0.26947968252E+03  0.00000000000E+00 0. -1.
          2   -1    0    0  503    0  0.00000000000E+00 -0.00000000000E+00 -0.12029035248E+04  0.12029035248E+04  0.00000000000E+00 0. -1.
         25    2    1    2    0    0 -0.65063479800E+02  0.16708134459E+03 -0.65305293318E+02  0.22812201580E+03  0.12500176257E+03 0.  0.
          4    1    3    3  501    0 -0.20221789793E+02  0.68902869445E+02  0.35778964073E+02  0.80238852000E+02  0.12700000000E+01 0.  1.
         -4    1    3    3    0  501 -0.44841690008E+02  0.98178475144E+02 -0.10108425739E+03  0.14788316380E+03  0.12700000000E+01 0.  1.
          2    1    1    2  502    0  0.16532708968E+02 -0.67828786496E+02  0.17858322102E+03  0.19174473024E+03  0.00000000000E+00 0. -1.
          1    1    1    2  503    0  0.48530770832E+02 -0.99252558093E+02 -0.10467017700E+04  0.10525164613E+04  0.00000000000E+00 0. -1.
<mgrwt>
<rscale>  0 0.88755384E+02</rscale>
<asrwt>0</asrwt>
<pdfrwt beam="2">  1        2 0.18506208E+00 0.11283487E+03</pdfrwt>
<pdfrwt beam="1">  1        1 0.41458412E-01 0.69814574E+02</pdfrwt>
<totfact> 0.28690652E+02</totfact>
</mgrwt>
</event>
<event>
 7    1  0.5277388E-004  0.9655807E+02  0.7546771E-02  0.1420688E+00
         -1   -1    0    0    0  502 -0.00000000000E+00  0.00000000000E+00  0.12916554726E+04  0.12916554726E+04  0.00000000000E+00 0.  1.
         -2   -1    0    0    0  501  0.00000000000E+00 -0.00000000000E+00 -0.65709762527E+02  0.65709762527E+02  0.00000000000E+00 0.  1.
         25    2    1    2    0    0  0.44254560744E+02  0.55889759627E+02  0.85257698895E+02  0.16726159117E+03  0.12500173312E+03 0.  0.
          4    1    3    3  503    0 -0.13945428029E+00  0.42891300143E+02 -0.23603102814E+02  0.48973487091E+02  0.12700000000E+01 0. -1.
         -4    1    3    3    0  503  0.44394015024E+02  0.12998459485E+02  0.10886080171E+03  0.11828810408E+03  0.12700000000E+01 0. -1.
         -2    1    1    2    0  502 -0.44759338429E+02 -0.87072335756E+02  0.11525770518E+04  0.11567276475E+04  0.00000000000E+00 0.  1.
         -1    1    1    2    0  501  0.50477768498E+00  0.31182576128E+02 -0.11889040637E+02  0.33375996491E+02  0.00000000000E+00 0.  1.
<mgrwt>
<rscale>  0 0.54875530E+02</rscale>
<asrwt>0</asrwt>
<pdfrwt beam="2">  1       -2 0.10109195E-01 0.31186661E+02</pdfrwt>
<pdfrwt beam="1">  1       -1 0.19871621E+00 0.96558067E+02</pdfrwt>
<totfact> 0.77197271E+01</totfact>
</mgrwt>
</event>
<event>
 7    1  0.5277388E-004  0.5175944E+02  0.7546771E-02  0.1495530E+00
          1   -1    0    0  502    0 -0.00000000000E+00  0.00000000000E+00  0.12567923926E+03  0.12567923926E+03  0.00000000000E+00 0. -1.
          2   -1    0    0  503    0  0.00000000000E+00 -0.00000000000E+00 -0.59719972904E+03  0.59719972904E+03  0.00000000000E+00 0. -1.
         25    2    1    2    0    0 -0.60966980611E+02 -0.40573878176E+02 -0.11602382881E+02  0.14533543848E+03  0.12499824829E+03 0.  0.
          4    1    3    3  501    0  0.20674863287E+02 -0.23950116686E+02  0.37134722712E+02  0.48802239622E+02  0.12700000000E+01 0. -1.
         -4    1    3    3    0  501 -0.81641843899E+02 -0.16623761490E+02 -0.48737105592E+02  0.96533198863E+02  0.12700000000E+01 0. -1.
          2    1    1    2  502    0  0.48674470210E+02  0.91752273105E+01  0.47724443716E+02  0.68782347840E+02  0.00000000000E+00 0. -1.
          1    1    1    2  503    0  0.12292510402E+02  0.31398650865E+02 -0.50764255062E+03  0.50876118198E+03  0.00000000000E+00 0. -1.
<mgrwt>
<rscale>  0 0.41776600E+02</rscale>
<asrwt>0</asrwt>
<pdfrwt beam="2">  1        2 0.91876881E-01 0.33719150E+02</pdfrwt>
<pdfrwt beam="1">  1        1 0.19335268E-01 0.51759440E+02</pdfrwt>
<totfact> 0.18137572E+03</totfact>
</mgrwt>
</event>
<event>
 7    1  0.5277388E-004  0.2528211E+02  0.7546771E-02  0.1665174E+00
          2   -1    0    0  503    0  0.00000000000E+00  0.00000000000E+00  0.26444315974E+04  0.26444315974E+04  0.00000000000E+00 0. -1.
          1   -1    0    0  502    0 -0.00000000000E+00 -0.00000000000E+00 -0.64462927176E+01  0.64462927176E+01  0.00000000000E+00 0. -1.
         25    2    1    2    0    0  0.10625904631E+02  0.24227250179E+01  0.21545047648E+04  0.21581551559E+04  0.12499646402E+03 0.  0.
          4    1    3    3  501    0  0.44434595592E+02  0.32918180241E+01  0.29555804683E+03  0.29890038692E+03  0.12700000000E+01 0.  1.
         -4    1    3    3    0  501 -0.33808690961E+02 -0.86909300619E+00  0.18589467180E+04  0.18592547690E+04  0.12700000000E+01 0.  1.
          2    1    1    2  502    0  0.42551352253E+01  0.23776945943E+02  0.31286073581E+02  0.39525532688E+02  0.00000000000E+00 0. -1.
          1    1    1    2  503    0 -0.14881039856E+02 -0.26199670961E+02  0.45219446632E+03  0.45319720153E+03  0.00000000000E+00 0. -1.
<mgrwt>
<rscale>  0 0.24711973E+02</rscale>
<asrwt>0</asrwt>
<pdfrwt beam="1">  1        2 0.40683476E+00 0.25282107E+02</pdfrwt>
<pdfrwt beam="2">  1        1 0.99173945E-03 0.24154696E+02</pdfrwt>
<totfact> 0.70035766E+03</totfact>
</mgrwt>
</event>
<event>
 7    1  0.5277388E-004  0.9085840E+02  0.7546771E-02  0.1351505E+00
         -2   -1    0    0    0  501  0.00000000000E+00  0.00000000000E+00  0.25044289289E+03  0.25044289289E+03  0.00000000000E+00 0.  1.
         -1   -1    0    0    0  502 -0.00000000000E+00 -0.00000000000E+00 -0.49394126582E+03  0.49394126582E+03  0.00000000000E+00 0.  1.
         25    2    1    2    0    0 -0.25622748034E+02 -0.74812520405E+02 -0.48178698428E+02  0.15549106702E+03  0.12491135462E+03 0.  0.
          4    1    3    3  503    0 -0.65009211277E+02 -0.55560641953E+02 -0.66120276099E+02  0.10810497813E+03  0.12700000000E+01 0. -1.
         -4    1    3    3    0  503  0.39386463242E+02 -0.19251878453E+02  0.17941577671E+02  0.47386088887E+02  0.12700000000E+01 0. -1.
         -2    1    1    2    0  502 -0.53010600133E+02  0.23516783344E+02 -0.37857325999E+03  0.38298939411E+03  0.00000000000E+00 0.  1.
         -1    1    1    2    0  501  0.78633348167E+02  0.51295737061E+02  0.18325358549E+03  0.20590369759E+03  0.00000000000E+00 0.  1.
<mgrwt>
<rscale>  0 0.72588784E+02</rscale>
<asrwt>0</asrwt>
<pdfrwt beam="1">  1       -2 0.38529676E-01 0.90858402E+02</pdfrwt>
<pdfrwt beam="2">  1       -1 0.75990964E-01 0.57992783E+02</pdfrwt>
<totfact> 0.89723205E+01</totfact>
</mgrwt>
</event>
<event>
 7    1  0.5277388E-004  0.9424386E+02  0.7546771E-02  0.1447984E+00
         -2   -1    0    0    0  501 -0.00000000000E+00  0.00000000000E+00  0.32682673599E+02  0.32682673599E+02  0.00000000000E+00 0.  1.
          2   -1    0    0  503    0  0.00000000000E+00 -0.00000000000E+00 -0.85699960907E+03  0.85699960907E+03  0.00000000000E+00 0. -1.
         25    2    1    2    0    0  0.65544257867E+02 -0.96154257920E+02 -0.27794315743E+03  0.32622012819E+03  0.12500192885E+03 0.  0.
          4    1    3    3  502    0  0.21180077744E+02 -0.30283972441E+02 -0.23103525376E+03  0.23397567408E+03  0.12700000000E+01 0. -1.
         -4    1    3    3    0  502  0.44364180123E+02 -0.65870285479E+02 -0.46907903671E+02  0.92244454109E+02  0.12700000000E+01 0. -1.
          1    1    1    2  503    0 -0.48305387361E+02  0.76673333867E+02 -0.51402281761E+03  0.52194987077E+03  0.00000000000E+00 0. -1.
         -1    1    1    2    0  501 -0.17238870506E+02  0.19480924053E+02 -0.32350960436E+02  0.41512283717E+02  0.00000000000E+00 0.  1.
<mgrwt>
<rscale>  0 0.49513449E+02</rscale>
<asrwt>0</asrwt>
<pdfrwt beam="2">  1        2 0.13184608E+00 0.94243859E+02</pdfrwt>
<pdfrwt beam="1">  1       -2 0.50281040E-02 0.26013171E+02</pdfrwt>
<totfact> 0.51679087E+03</totfact>
</mgrwt>
</event>
<event>
 7    1  0.5277388E-004  0.1245891E+03  0.7546771E-02  0.1244394E+00
          2   -1    0    0  503    0  0.00000000000E+00  0.00000000000E+00  0.27140560812E+03  0.27140560812E+03  0.00000000000E+00 0. -1.
          1   -1    0    0  502    0 -0.00000000000E+00 -0.00000000000E+00 -0.41030924408E+03  0.41030924408E+03  0.00000000000E+00 0. -1.
         25    2    1    2    0    0  0.11690916738E+02  0.17246215178E+02  0.10655261574E+03  0.16557029764E+03  0.12500381622E+03 0.  0.
          4    1    3    3  501    0 -0.49602820652E+02  0.18050433357E+02  0.85981096209E+02  0.10089905731E+03  0.12700000000E+01 0. -1.
         -4    1    3    3    0  501  0.61293737390E+02 -0.80421817922E+00  0.20571519527E+02  0.64671240329E+02  0.12700000000E+01 0. -1.
          2    1    1    2  502    0 -0.97372564530E+02 -0.92560112614E+02 -0.34152867221E+03  0.36700221349E+03  0.00000000000E+00 0. -1.
          1    1    1    2  503    0  0.85681647792E+02  0.75313897436E+02  0.96072420506E+02  0.14914234106E+03  0.00000000000E+00 0. -1.
<mgrwt>
<rscale>  0 0.11921715E+03</rscale>
<asrwt>0</asrwt>
<pdfrwt beam="1">  1        2 0.41754709E-01 0.11407685E+03</pdfrwt>
<pdfrwt beam="2">  1        1 0.63124499E-01 0.12458908E+03</pdfrwt>
<totfact> 0.97632412E+02</totfact>
</mgrwt>
</event>
<event>
 7    1  0.5277388E-004  0.5481085E+02  0.7546771E-02  0.1503170E+00
         -2   -1    0    0    0  501 -0.00000000000E+00  0.00000000000E+00  0.10868885490E+04  0.10868885490E+04  0.00000000000E+00 0.  1.
          2   -1    0    0  503    0  0.00000000000E+00 -0.00000000000E+00 -0.16808705253E+03  0.16808705253E+03  0.00000000000E+00 0. -1.
         25    2    1    2    0    0  0.79105165477E+02 -0.30144207380E+02  0.38451909187E+03  0.41309273164E+03  0.12499748988E+03 0.  0.
          4    1    3    3  502    0  0.11252883743E+03 -0.22499902890E+02  0.26584876396E+03  0.28956201941E+03  0.12700000000E+01 0.  1.
         -4    1    3    3    0  502 -0.33423671958E+02 -0.76443044907E+01  0.11867032791E+03  0.12353071223E+03  0.12700000000E+01 0.  1.
          1    1    1    2  503    0 -0.51071630419E+02  0.18879496986E+02 -0.14863661237E+03  0.15829589185E+03  0.00000000000E+00 0. -1.
         -1    1    1    2    0  501 -0.28033535058E+02  0.11264710394E+02  0.68291901696E+03  0.68358697802E+03  0.00000000000E+00 0.  1.
<mgrwt>
<rscale>  0 0.40693395E+02</rscale>
<asrwt>0</asrwt>
<pdfrwt beam="2">  1        2 0.25859547E-01 0.54810847E+02</pdfrwt>
<pdfrwt beam="1">  1       -2 0.16721362E+00 0.30212130E+02</pdfrwt>
<totfact> 0.53484971E+01</totfact>
</mgrwt>
</event>
<event>
 7    1  0.5277388E-004  0.9011328E+02  0.7546771E-02  0.1348193E+00
         -2   -1    0    0    0  501 -0.00000000000E+00  0.00000000000E+00  0.11065767609E+03  0.11065767609E+03  0.00000000000E+00 0.  1.
          2   -1    0    0  503    0  0.00000000000E+00 -0.00000000000E+00 -0.32467929269E+03  0.32467929269E+03  0.00000000000E+00 0. -1.
         25    2    1    2    0    0  0.88997793713E+02  0.90139956266E+02 -0.74733806583E+02  0.19301938024E+03  0.12500208118E+03 0.  0.
          4    1    3    3  502    0  0.28103204974E+02 -0.34315487930E+01 -0.76264875588E+02  0.81360369993E+02  0.12700000000E+01 0.  1.
         -4    1    3    3    0  502  0.60894588740E+02  0.93571505059E+02  0.15310690047E+01  0.11165901025E+03  0.12700000000E+01 0.  1.
          1    1    1    2  503    0 -0.58485019736E+02 -0.14046486255E+02 -0.14811360116E+03  0.15986068984E+03  0.00000000000E+00 0. -1.
         -3    1    1    2    0  501 -0.30512773978E+02 -0.76093470011E+02  0.88257911457E+01  0.82456898701E+02  0.00000000000E+00 0.  1.
<mgrwt>
<rscale>  0 0.73621655E+02</rscale>
<asrwt>0</asrwt>
<pdfrwt beam="2">  1        2 0.49950659E-01 0.60148161E+02</pdfrwt>
<pdfrwt beam="1">  1       -2 0.17024258E-01 0.90113279E+02</pdfrwt>
<totfact> 0.26412041E+03</totfact>
</mgrwt>
</event>
<event>
 7    1  0.5277388E-004  0.7333229E+02  0.7546771E-02  0.1440931E+00
          1   -1    0    0  502    0 -0.00000000000E+00  0.00000000000E+00  0.11879836970E+03  0.11879836970E+03  0.00000000000E+00 0. -1.
          2   -1    0    0  503    0  0.00000000000E+00 -0.00000000000E+00 -0.15656565573E+04  0.15656565573E+04  0.00000000000E+00 0. -1.
         25    2    1    2    0    0 -0.93921161479E+01 -0.55339636400E+02 -0.36416682365E+03  0.38909231892E+03  0.12499867996E+03 0.  0.
          4    1    3    3  501    0  0.31931583935E+02  0.28146934588E+02 -0.14011224831E+03  0.14644087887E+03  0.12700000000E+01 0.  1.
         -4    1    3    3    0  501 -0.41323700083E+02 -0.83486570988E+02 -0.22405457534E+03  0.24265144004E+03  0.12700000000E+01 0.  1.
          2    1    1    2  502    0  0.44389072719E+02  0.59372377357E+02  0.93119573013E+02  0.11902404735E+03  0.00000000000E+00 0. -1.
          1    1    1    2  503    0 -0.34996956571E+02 -0.40327409569E+01 -0.11758109370E+04  0.11763385607E+04  0.00000000000E+00 0. -1.
<mgrwt>
<rscale>  0 0.50827053E+02</rscale>
<asrwt>0</asrwt>
<pdfrwt beam="2">  1        2 0.24087022E+00 0.35228539E+02</pdfrwt>
<pdfrwt beam="1">  1        1 0.18276674E-01 0.73332287E+02</pdfrwt>
<totfact> 0.55988793E+02</totfact>
</mgrwt>
</event>
<event>
 7    1  0.5277388E-004  0.8506655E+02  0.7546771E-02  0.1369414E+00
         -2   -1    0    0    0  501 -0.00000000000E+00  0.00000000000E+00  0.22439812863E+03  0.22439812863E+03  0.00000000000E+00 0.  1.
          2   -1    0    0  503    0  0.00000000000E+00 -0.00000000000E+00 -0.20328851328E+04  0.20328851328E+04  0.00000000000E+00 0. -1.
         25    2    1    2    0    0  0.11576583243E+03 -0.71249591850E+02 -0.22117207670E+03  0.28813453003E+03  0.12500475025E+03 0.  0.
          4    1    3    3  502    0  0.14142884887E+03 -0.71424690729E+02 -0.19745099923E+03  0.25316420706E+03  0.12700000000E+01 0.  1.
         -4    1    3    3    0  502 -0.25663016439E+02  0.17509887952E+00 -0.23721077467E+02  0.34970322969E+02  0.12700000000E+01 0.  1.
          1    1    1    2  503    0 -0.48386080675E+02  0.22334976462E+02 -0.17687332448E+04  0.17695359152E+04  0.00000000000E+00 0. -1.
         -1    1    1    2    0  501 -0.67379751753E+02  0.48914615388E+02  0.18141831730E+03  0.19961281621E+03  0.00000000000E+00 0.  1.
<mgrwt>
<rscale>  0 0.67330439E+02</rscale>
<asrwt>0</asrwt>
<pdfrwt beam="2">  1        2 0.31275155E+00 0.53292251E+02</pdfrwt>
<pdfrwt beam="1">  1       -2 0.34522790E-01 0.85066552E+02</pdfrwt>
<totfact> 0.66988231E+01</totfact>
</mgrwt>
</event>
<event>
 7    1  0.5277388E-004  0.6518659E+02  0.7546771E-02  0.1450113E+00
          1   -1    0    0  502    0 -0.00000000000E+00  0.00000000000E+00  0.15892682245E+04  0.15892682245E+04  0.00000000000E+00 0. -1.
          2   -1    0    0  503    0  0.00000000000E+00 -0.00000000000E+00 -0.30148793139E+03  0.30148793139E+03  0.00000000000E+00 0. -1.
         25    2    1    2    0    0  0.86158106704E+02 -0.28415118896E+02 -0.20660421453E+03  0.25795512351E+03  0.12499962380E+03 0.  0.
          4    1    3    3  501    0 -0.17749460947E+02 -0.10157771022E+02  0.53640413654E+01  0.21180404053E+02  0.12700000000E+01 0.  1.
         -4    1    3    3    0  501  0.10390756765E+03 -0.18257347873E+02 -0.21196825589E+03  0.23677471946E+03  0.12700000000E+01 0.  1.
          2    1    1    2  502    0 -0.32693775864E+02  0.17372091814E+02  0.15525716583E+04  0.15530130156E+04  0.00000000000E+00 0. -1.
          1    1    1    2  503    0 -0.53464330840E+02  0.11043027082E+02 -0.58187150647E+02  0.79788016768E+02  0.00000000000E+00 0. -1.
<mgrwt>
<rscale>  0 0.49126131E+02</rscale>
<asrwt>0</asrwt>
<pdfrwt beam="2">  1        2 0.46382760E-01 0.65186591E+02</pdfrwt>
<pdfrwt beam="1">  1        1 0.24450280E+00 0.37022595E+02</pdfrwt>
<totfact> 0.11292902E+02</totfact>
</mgrwt>
</event>
<event>
 7    1  0.5277388E-004  0.5851146E+02  0.7546771E-02  0.1504705E+00
          2   -1    0    0  503    0  0.00000000000E+00  0.00000000000E+00  0.18939985975E+04  0.18939985975E+04  0.00000000000E+00 0. -1.
          1   -1    0    0  502    0 -0.00000000000E+00 -0.00000000000E+00 -0.50681047667E+03  0.50681047667E+03  0.00000000000E+00 0. -1.
         25    2    1    2    0    0 -0.80317651051E+02 -0.30158135019E+02  0.72652242584E+01  0.15178307697E+03  0.12499952317E+03 0.  0.
          4    1    3    3  501    0  0.12261547661E+02 -0.46890269341E+01  0.46287739672E+02  0.48130034994E+02  0.12700000000E+01 0. -1.
         -4    1    3    3    0  501 -0.92579198712E+02 -0.25469108085E+02 -0.39022515413E+02  0.10365304197E+03  0.12700000000E+01 0. -1.
          2    1    1    2  502    0  0.54687670714E+02  0.18869380763E+02 -0.43251745978E+03  0.43636927925E+03  0.00000000000E+00 0. -1.
          1    1    1    2  503    0  0.25629980337E+02  0.11288754256E+02  0.18124403564E+04  0.18126567180E+04  0.00000000000E+00 0. -1.
<mgrwt>
<rscale>  0 0.40480461E+02</rscale>
<asrwt>0</asrwt>
<pdfrwt beam="1">  1        2 0.29138440E+00 0.28005926E+02</pdfrwt>
<pdfrwt beam="2">  1        1 0.77970843E-01 0.58511464E+02</pdfrwt>
<totfact> 0.67830691E+01</totfact>
</mgrwt>
</event>
<event>
 7    1  0.5277388E-004  0.6759347E+02  0.7546771E-02  0.1395983E+00
          1   -1    0    0  502    0 -0.00000000000E+00  0.00000000000E+00  0.13866054176E+02  0.13866054176E+02  0.00000000000E+00 0. -1.
          2   -1    0    0  503    0  0.00000000000E+00 -0.00000000000E+00 -0.16684134896E+04  0.16684134896E+04  0.00000000000E+00 0. -1.
         25    2    1    2    0    0 -0.10974806985E+02  0.17400361546E+01 -0.85872760852E+03  0.86784996079E+03  0.12500789850E+03 0.  0.
          4    1    3    3  501    0 -0.20307842105E+02  0.48447630043E+02 -0.70384678508E+03  0.70580556180E+03  0.12700000000E+01 0.  1.
         -4    1    3    3    0  501  0.93330351207E+01 -0.46707593889E+02 -0.15488082345E+03  0.16204439899E+03  0.12700000000E+01 0.  1.
          2    1    1    2  502    0 -0.57409668795E+02 -0.35679224428E+02 -0.15524927838E+03  0.16932576757E+03  0.00000000000E+00 0. -1.
          1    1    1    2  503    0  0.68384475780E+02  0.33939188273E+02 -0.64057054855E+03  0.64510381544E+03  0.00000000000E+00 0. -1.
<mgrwt>
<rscale>  0 0.60442772E+02</rscale>
<asrwt>0</asrwt>
<pdfrwt beam="2">  1        2 0.25667901E+00 0.54048545E+02</pdfrwt>
<pdfrwt beam="1">  1        1 0.21332390E-02 0.67593470E+02</pdfrwt>
<totfact> 0.81282466E+03</totfact>
</mgrwt>
</event>
<event>
 7    1  0.5277388E-004  0.7471134E+02  0.7546771E-02  0.1425662E+00
         -2   -1    0    0    0  501 -0.00000000000E+00  0.00000000000E+00  0.42770853222E+03  0.42770853222E+03  0.00000000000E+00 0.  1.
          2   -1    0    0  503    0  0.00000000000E+00 -0.00000000000E+00 -0.35973788233E+03  0.35973788233E+03  0.00000000000E+00 0. -1.
         25    2    1    2    0    0 -0.27725856409E+02 -0.81832335346E+02 -0.48349800807E+02  0.15946317236E+03  0.12500218349E+03 0.  0.
          4    1    3    3  502    0 -0.82828353098E+01 -0.15981992994E+01 -0.72842923050E+02  0.73340738613E+02  0.12700000000E+01 0. -1.
         -4    1    3    3    0  502 -0.19443021099E+02 -0.80234136047E+02  0.24493122242E+02  0.86122433743E+02  0.12700000000E+01 0. -1.
          1    1    1    2  503    0 -0.25336311656E+02  0.29385831358E+02 -0.25058406368E+03  0.25357016532E+03  0.00000000000E+00 0. -1.
         -1    1    1    2    0  501  0.53062168065E+02  0.52446503988E+02  0.36690451438E+03  0.37441307687E+03  0.00000000000E+00 0.  1.
<mgrwt>
<rscale>  0 0.53840646E+02</rscale>
<asrwt>0</asrwt>
<pdfrwt beam="2">  1        2 0.55344289E-01 0.38800203E+02</pdfrwt>
<pdfrwt beam="1">  1       -2 0.65801313E-01 0.74711341E+02</pdfrwt>
<totfact> 0.19995572E+02</totfact>
</mgrwt>
</event>
<event>
 7    1  0.5277388E-004  0.1044371E+03  0.7546771E-02  0.1297720E+00
         -2   -1    0    0    0  501 -0.00000000000E+00  0.00000000000E+00  0.97539342212E+02  0.97539342212E+02  0.00000000000E+00 0.  1.
          2   -1    0    0  503    0  0.00000000000E+00 -0.00000000000E+00 -0.30171878718E+04  0.30171878718E+04  0.00000000000E+00 0. -1.
         25    2    1    2    0    0  0.15655119446E+03 -0.90449648052E+02 -0.69729803190E+03  0.73112114015E+03  0.12499664382E+03 0.  0.
          4    1    3    3  502    0 -0.17953029251E+02 -0.28840097953E+01 -0.24319477302E+02  0.30392081995E+02  0.12700000000E+01 0.  1.
         -4    1    3    3    0  502  0.17450422371E+03 -0.87565638257E+02 -0.67297855460E+03  0.70072905816E+03  0.12700000000E+01 0.  1.
          1    1    1    2  503    0 -0.87227762785E+02  0.47950294038E+02 -0.22811117885E+04  0.22832824847E+04  0.00000000000E+00 0. -1.
         -1    1    1    2    0  501 -0.69323431671E+02  0.42499354014E+02  0.58761290730E+02  0.10032358924E+03  0.00000000000E+00 0.  1.
<mgrwt>
<rscale>  0 0.92153007E+02</rscale>
<asrwt>0</asrwt>
<pdfrwt beam="2">  1        2 0.46418277E+00 0.10443710E+03</pdfrwt>
<pdfrwt beam="1">  1       -2 0.15006052E-01 0.81313795E+02</pdfrwt>
<totfact> 0.76717038E+01</totfact>
</mgrwt>
</event>
<event>
 7    1  0.5277388E-004  0.1706219E+03  0.7546771E-02  0.1224505E+00
          1   -1    0    0  502    0 -0.00000000000E+00  0.00000000000E+00  0.21853691838E+04  0.21853691838E+04  0.00000000000E+00 0. -1.
          2   -1    0    0  503    0  0.00000000000E+00 -0.00000000000E+00 -0.79625727265E+03  0.79625727265E+03  0.00000000000E+00 0. -1.
         25    2    1    2    0    0  0.15094988825E+03 -0.14789262417E+02  0.11054613664E+03  0.22549992071E+03  0.12500069948E+03 0.  0.
          4    1    3    3  501    0  0.17315611167E+03 -0.16925302210E+02  0.10121627109E+03  0.20128549699E+03  0.12700000000E+01 0. -1.
         -4    1    3    3    0  501 -0.22206223428E+02  0.21360397930E+01  0.93298655473E+01  0.24214423719E+02  0.12700000000E+01 0. -1.
          2    1    1    2  502    0 -0.20912970285E+02 -0.99969925524E+02  0.20058502581E+04  0.20084488035E+04  0.00000000000E+00 0. -1.
          1    1    1    2  503    0 -0.13003691796E+03  0.11475918794E+03 -0.72728448358E+03  0.74767773226E+03  0.00000000000E+00 0. -1.
<mgrwt>
<rscale>  0 0.13200865E+03</rscale>
<asrwt>0</asrwt>
<pdfrwt beam="2">  1        2 0.12250112E+00 0.17062190E+03</pdfrwt>
<pdfrwt beam="1">  1        1 0.33621064E+00 0.10213392E+03</pdfrwt>
<totfact> 0.14418463E+01</totfact>
</mgrwt>
</event>
<event>
 7    1  0.5277388E-004  0.1044274E+03  0.7546771E-02  0.1296843E+00
         -2   -1    0    0    0  501 -0.00000000000E+00  0.00000000000E+00  0.10655314036E+03  0.10655314036E+03  0.00000000000E+00 0.  1.
          2   -1    0    0  503    0  0.00000000000E+00 -0.00000000000E+00 -0.55134010984E+03  0.55134010984E+03  0.00000000000E+00 0. -1.
         25    2    1    2    0    0  0.32177747079E+02 -0.26655702720E+02 -0.21914992129E+03  0.25573423663E+03  0.12500951119E+03 0.  0.
          4    1    3    3  502    0 -0.41169432642E+01  0.46225183061E+02 -0.11131828951E+03  0.12061132306E+03  0.12700000000E+01 0.  1.
         -4    1    3    3    0  502  0.36294690343E+02 -0.72880885781E+02 -0.10783163178E+03  0.13512291357E+03  0.12700000000E+01 0.  1.
          1    1    1    2  503    0  0.10518529212E+02 -0.81306883483E+02 -0.26669673292E+03  0.27901361277E+03  0.00000000000E+00 0. -1.
         -1    1    1    2    0  501 -0.42696276291E+02  0.10796258620E+03  0.41059684731E+02  0.12314540080E+03  0.00000000000E+00 0.  1.
<mgrwt>
<rscale>  0 0.92527975E+02</rscale>
<asrwt>0</asrwt>
<pdfrwt beam="2">  1        2 0.84821558E-01 0.81984442E+02</pdfrwt>
<pdfrwt beam="1">  1       -2 0.16392790E-01 0.10442745E+03</pdfrwt>
<totfact> 0.16179810E+03</totfact>
</mgrwt>
</event>
<event>
 7    1  0.5277388E-004  0.5118852E+02  0.7546771E-02  0.1459497E+00
         -1   -1    0    0    0  501 -0.00000000000E+00  0.00000000000E+00  0.19161821639E+04  0.19161821639E+04  0.00000000000E+00 0.  1.
          1   -1    0    0  503    0  0.00000000000E+00 -0.00000000000E+00 -0.24478596232E+03  0.24478596232E+03  0.00000000000E+00 0. -1.
         25    2    1    2    0    0 -0.13053409131E+02  0.58316500264E+02  0.42242686989E+02  0.14484565533E+03  0.12499845427E+03 0.  0.
          4    1    3    3  502    0 -0.45132991546E+02 -0.27694977952E+01  0.58498349478E+02  0.73948136119E+02  0.12700000000E+01 0. -1.
         -4    1    3    3    0  502  0.32079582415E+02  0.61085998059E+02 -0.16255662488E+02  0.70897519207E+02  0.12700000000E+01 0. -1.
          2    1    1    2  503    0  0.43916785738E+02 -0.26931039508E+02 -0.18978431249E+03  0.19665210456E+03  0.00000000000E+00 0. -1.
         -2    1    1    2    0  501 -0.30863376607E+02 -0.31385460756E+02  0.18189378271E+04  0.18194703664E+04  0.00000000000E+00 0.  1.
<mgrwt>
<rscale>  0 0.47468122E+02</rscale>
<asrwt>0</asrwt>
<pdfrwt beam="2">  1        1 0.37659380E-01 0.51188520E+02</pdfrwt>
<pdfrwt beam="1">  1       -1 0.29479725E+00 0.44018123E+02</pdfrwt>
<totfact> 0.58955290E+00</totfact>
</mgrwt>
</event>
<event>
 7    1  0.5277388E-004  0.8509335E+02  0.7546771E-02  0.1394569E+00
          1   -1    0    0  502    0 -0.00000000000E+00  0.00000000000E+00  0.21350078994E+03  0.21350078994E+03  0.00000000000E+00 0. -1.
          2   -1    0    0  503    0  0.00000000000E+00 -0.00000000000E+00 -0.22008189758E+04  0.22008189758E+04  0.00000000000E+00 0. -1.
         25    2    1    2    0    0 -0.62214809953E+02 -0.35474981871E+02 -0.69955225049E+03  0.71423356892E+03  0.12500833127E+03 0.  0.
          4    1    3    3  501    0 -0.19754926301E+02  0.14581733007E+02 -0.55417004586E+03  0.55471518519E+03  0.12700000000E+01 0.  1.
         -4    1    3    3    0  501 -0.42459883652E+02 -0.50056714878E+02 -0.14538220463E+03  0.15951838373E+03  0.12700000000E+01 0.  1.
          2    1    1    2  502    0 -0.26718624335E+02  0.34225838853E+02  0.20253327754E+03  0.20713527329E+03  0.00000000000E+00 0. -1.
          1    1    1    2  503    0  0.88933434288E+02  0.12491430179E+01 -0.14902992129E+04  0.14929509236E+04  0.00000000000E+00 0. -1.
<mgrwt>
<rscale>  0 0.60784453E+02</rscale>
<asrwt>0</asrwt>
<pdfrwt beam="2">  1        2 0.33858754E+00 0.85093348E+02</pdfrwt>
<pdfrwt beam="1">  1        1 0.32846275E-01 0.43419960E+02</pdfrwt>
<totfact> 0.11925872E+02</totfact>
</mgrwt>
</event>
<event>
 7    1  0.6709733E-004  0.8321904E+02  0.7546771E-02  0.1371812E+00
          2   -1    0    0  503    0  0.00000000000E+00  0.00000000000E+00  0.10347467306E+04  0.10347467306E+04  0.00000000000E+00 0. -1.
         -2   -1    0    0    0  501 -0.00000000000E+00 -0.00000000000E+00 -0.10450054732E+04  0.10450054732E+04  0.00000000000E+00 0.  1.
         25    2    1    2    0    0  0.92604967519E+02 -0.88919126779E+02 -0.27148490562E+03  0.32528737030E+03  0.12500211271E+03 0.  0.
          4    1    3    3  502    0  0.64913498771E+02  0.42203266387E+01 -0.18164049852E+03  0.19294158982E+03  0.12700000000E+01 0.  1.
         -4    1    3    3    0  502  0.27691468748E+02 -0.93139453418E+02 -0.89844407095E+02  0.13234578048E+03  0.12700000000E+01 0.  1.
          1    1    1    2  503    0 -0.24302947443E+02  0.47555527393E+02  0.10049994812E+04  0.10064174673E+04  0.00000000000E+00 0. -1.
         -1    1    1    2    0  501 -0.68302020076E+02  0.41363599386E+02 -0.74377331813E+03  0.74804736619E+03  0.00000000000E+00 0.  1.
<mgrwt>
<rscale>  0 0.66666073E+02</rscale>
<asrwt>0</asrwt>
<pdfrwt beam="1">  1        2 0.15919181E+00 0.53405631E+02</pdfrwt>
<pdfrwt beam="2">  1       -2 0.16077007E+00 0.83219038E+02</pdfrwt>
<totfact> 0.77879536E+00</totfact>
</mgrwt>
</event>
<event>
 7    1  0.5277388E-004  0.2629970E+03  0.7546771E-02  0.1192769E+00
          1   -1    0    0  502    0 -0.00000000000E+00  0.00000000000E+00  0.14599119090E+03  0.14599119090E+03  0.00000000000E+00 0. -1.
          2   -1    0    0  503    0  0.00000000000E+00 -0.00000000000E+00 -0.27249969348E+04  0.27249969348E+04  0.00000000000E+00 0. -1.
         25    2    1    2    0    0 -0.35290451138E+02 -0.17396608085E+03 -0.50053105760E+02  0.22279930217E+03  0.12499840968E+03 0.  0.
          4    1    3    3  501    0  0.17593998400E+02 -0.13570008922E+03 -0.71088461079E+02  0.15420520482E+03  0.12700000000E+01 0.  1.
         -4    1    3    3    0  501 -0.52884449538E+02 -0.38265991631E+02  0.21035355319E+02  0.68594097354E+02  0.12700000000E+01 0.  1.
          2    1    1    2  502    0 -0.29724163084E+02 -0.88188537364E+02  0.11183967908E+02  0.93732732445E+02  0.00000000000E+00 0. -1.
          1    1    1    2  503    0  0.65014614222E+02  0.26215461821E+03 -0.25401366060E+04  0.25544560910E+04  0.00000000000E+00 0. -1.
<mgrwt>
<rscale>  0 0.15644590E+03</rscale>
<asrwt>0</asrwt>
<pdfrwt beam="2">  1        2 0.41923030E+00 0.26299697E+03</pdfrwt>
<pdfrwt beam="1">  1        1 0.22460183E-01 0.93063118E+02</pdfrwt>
<totfact> 0.87955229E+01</totfact>
</mgrwt>
</event>
<event>
 7    1  0.5277388E-004  0.4740516E+02  0.7546771E-02  0.1578043E+00
          2   -1    0    0  503    0  0.00000000000E+00  0.00000000000E+00  0.54675876121E+03  0.54675876121E+03  0.00000000000E+00 0. -1.
          1   -1    0    0  502    0 -0.00000000000E+00 -0.00000000000E+00 -0.13853184790E+04  0.13853184790E+04  0.00000000000E+00 0. -1.
         25    2    1    2    0    0  0.57348846080E+02  0.18408971536E+02  0.52451308511E+02  0.14833005643E+03  0.12499154170E+03 0.  0.
          4    1    3    3  501    0  0.79313703622E+02  0.53814306849E+02  0.27390054687E+02  0.99691881312E+02  0.12700000000E+01 0. -1.
         -4    1    3    3    0  501 -0.21964857542E+02 -0.35405335313E+02  0.25061253825E+02  0.48638175117E+02  0.12700000000E+01 0. -1.
          2    1    1    2  502    0 -0.10201993665E+02 -0.18878867334E+02 -0.13360476286E+04  0.13362199513E+04  0.00000000000E+00 0. -1.
          1    1    1    2  503    0 -0.47146852414E+02  0.46989579821E+00  0.44503660228E+03  0.44752723253E+03  0.00000000000E+00 0. -1.
<mgrwt>
<rscale>  0 0.31894691E+02</rscale>
<asrwt>0</asrwt>
<pdfrwt beam="1">  1        2 0.84116734E-01 0.47405159E+02</pdfrwt>
<pdfrwt beam="2">  1        1 0.21312592E+00 0.21459084E+02</pdfrwt>
<totfact> 0.85985960E+01</totfact>
</mgrwt>
</event>
<event>
 7    1  0.5277388E-004  0.8230058E+02  0.7546771E-02  0.1336937E+00
          1   -1    0    0  502    0 -0.00000000000E+00  0.00000000000E+00  0.64717060493E+03  0.64717060493E+03  0.00000000000E+00 0. -1.
          2   -1    0    0  503    0  0.00000000000E+00 -0.00000000000E+00 -0.30239504776E+03  0.30239504776E+03  0.00000000000E+00 0. -1.
         25    2    1    2    0    0  0.41274421826E+02  0.50546998920E+02  0.21024998562E+03  0.25315640787E+03  0.12499813356E+03 0.  0.
          4    1    3    3  501    0 -0.26242116965E+02 -0.26529336936E+02  0.42381779365E+02  0.56482586194E+02  0.12700000000E+01 0. -1.
         -4    1    3    3    0  501  0.67516538791E+02  0.77076335856E+02  0.16786820626E+03  0.19667382167E+03  0.12700000000E+01 0. -1.
          2    1    1    2  502    0 -0.66481322421E+02  0.29110232438E+02  0.40596549143E+03  0.41240168779E+03  0.00000000000E+00 0. -1.
          1    1    1    2  503    0  0.25206900595E+02 -0.79657231358E+02 -0.27143991988E+03  0.28400755703E+03  0.00000000000E+00 0. -1.
<mgrwt>
<rscale>  0 0.77285109E+02</rscale>
<asrwt>0</asrwt>
<pdfrwt beam="2">  1        2 0.46522315E-01 0.82300582E+02</pdfrwt>
<pdfrwt beam="1">  1        1 0.99564708E-01 0.72575284E+02</pdfrwt>
<totfact> 0.48749905E+02</totfact>
</mgrwt>
</event>
<event>
 7    1  0.5277388E-004  0.4117369E+02  0.7546771E-02  0.1597702E+00
          2   -1    0    0  503    0  0.00000000000E+00  0.00000000000E+00  0.48248160487E+03  0.48248160487E+03  0.00000000000E+00 0. -1.
          1   -1    0    0  502    0 -0.00000000000E+00 -0.00000000000E+00 -0.35497367261E+03  0.35497367261E+03  0.00000000000E+00 0. -1.
         25    2    1    2    0    0 -0.53314022184E+02 -0.98386491865E+01 -0.64203714850E+02  0.15061739877E+03  0.12499719929E+03 0.  0.
          4    1    3    3  501    0 -0.67615496116E+02 -0.86997586588E+00  0.15291096666E+02  0.69340051271E+02  0.12700000000E+01 0. -1.
         -4    1    3    3    0  501  0.14301473932E+02 -0.89686733206E+01 -0.79494811516E+02  0.81277347495E+02  0.12700000000E+01 0. -1.
          2    1    1    2  502    0  0.34721513470E+02  0.21429702946E+02 -0.24560580045E+03  0.24897193593E+03  0.00000000000E+00 0. -1.
          1    1    1    2  503    0  0.18592508714E+02 -0.11591053759E+02  0.43731744756E+03  0.43786594278E+03  0.00000000000E+00 0. -1.
<mgrwt>
<rscale>  0 0.30035016E+02</rscale>
<asrwt>0</asrwt>
<pdfrwt beam="1">  1        2 0.74227939E-01 0.21909676E+02</pdfrwt>
<pdfrwt beam="2">  1        1 0.54611334E-01 0.41173689E+02</pdfrwt>
<totfact> 0.64991233E+02</totfact>
</mgrwt>
</event>
<event>
 7    1  0.5277388E-004  0.1344005E+03  0.7546771E-02  0.1308264E+00
          1   -1    0    0  502    0 -0.00000000000E+00  0.00000000000E+00  0.10638827373E+04  0.10638827373E+04  0.00000000000E+00 0. -1.
          2   -1    0    0  503    0  0.00000000000E+00 -0.00000000000E+00 -0.31511709812E+03  0.31511709812E+03  0.00000000000E+00 0. -1.
         25    2    1    2    0    0 -0.92880194659E+02 -0.10349337120E+03  0.57725837802E+02  0.19569437286E+03  0.12500562698E+03 0.  0.
          4    1    3    3  501    0 -0.30888897580E+02 -0.11629293228E+03  0.55049426208E+02  0.13232619664E+03  0.12700000000E+01 0. -1.
         -4    1    3    3    0  501 -0.61991297080E+02  0.12799561082E+02  0.26764115939E+01  0.63368176213E+02  0.12700000000E+01 0. -1.
          2    1    1    2  502    0  0.41219279513E+02  0.12841911494E+03  0.92889312475E+03  0.93863354686E+03  0.00000000000E+00 0. -1.
          1    1    1    2  503    0  0.51660915146E+02 -0.24925743741E+02 -0.23785332341E+03  0.24467191566E+03  0.00000000000E+00 0. -1.
<mgrwt>
<rscale>  0 0.87801934E+02</rscale>
<asrwt>0</asrwt>
<pdfrwt beam="2">  1        2 0.48479554E-01 0.57359767E+02</pdfrwt>
<pdfrwt beam="1">  1        1 0.16367427E+00 0.13440047E+03</pdfrwt>
<totfact> 0.21141822E+02</totfact>
</mgrwt>
</event>
<event>
 7    1  0.5277388E-004  0.1019854E+03  0.7546771E-02  0.1320980E+00
          2   -1    0    0  503    0  0.00000000000E+00  0.00000000000E+00  0.44008357024E+03  0.44008357024E+03  0.00000000000E+00 0. -1.
          1   -1    0    0  502    0 -0.00000000000E+00 -0.00000000000E+00 -0.13890779811E+04  0.13890779811E+04  0.00000000000E+00 0. -1.
         25    2    1    2    0    0  0.19961165338E+02  0.52875211363E+02  0.63433910105E+01  0.13733480993E+03  0.12500550112E+03 0.  0.
          4    1    3    3  501    0  0.17553449321E+02  0.76263427055E+02  0.46314217657E+02  0.90944233168E+02  0.12700000000E+01 0. -1.
         -4    1    3    3    0  501  0.24077160168E+01 -0.23388215692E+02 -0.39970826647E+02  0.46390576764E+02  0.12700000000E+01 0. -1.
          2    1    1    2  502    0  0.66092794090E+02  0.13254349358E+02 -0.13147036633E+04  0.13164306505E+04  0.00000000000E+00 0. -1.
          1    1    1    2  503    0 -0.86053959428E+02 -0.66129560722E+02  0.35936586143E+03  0.37539609094E+03  0.00000000000E+00 0. -1.
<mgrwt>
<rscale>  0 0.82913846E+02</rscale>
<asrwt>0</asrwt>
<pdfrwt beam="1">  1        2 0.67705165E-01 0.10198541E+03</pdfrwt>
<pdfrwt beam="2">  1        1 0.21370430E+00 0.67408718E+02</pdfrwt>
<totfact> 0.95272857E+01</totfact>
</mgrwt>
</event>
<event>
 7    1  0.5277388E-004  0.1804547E+03  0.7546771E-02  0.1355610E+00
          2   -1    0    0  503    0  0.00000000000E+00  0.00000000000E+00  0.11089695982E+04  0.11089695982E+04  0.00000000000E+00 0. -1.
         -2   -1    0    0    0  501 -0.00000000000E+00 -0.00000000000E+00 -0.22885047057E+03  0.22885047057E+03  0.00000000000E+00 0.  1.
         25    2    1    2    0    0  0.66883122461E+02 -0.17892174952E+03  0.26170613245E+03  0.34727634937E+03  0.12499767417E+03 0.  0.
          4    1    3    3  502    0  0.86430680267E+02 -0.78885540136E+02  0.90155840647E+02  0.14772568983E+03  0.12700000000E+01 0.  1.
         -4    1    3    3    0  502 -0.19547557806E+02 -0.10003620939E+03  0.17155029180E+03  0.19955065954E+03  0.12700000000E+01 0.  1.
          1    1    1    2  503    0 -0.84612266363E+02  0.15699248427E+03  0.79345197363E+03  0.81324775449E+03  0.00000000000E+00 0. -1.
         -1    1    1    2    0  501  0.17729143902E+02  0.21929265255E+02 -0.17503897842E+03  0.17729596494E+03  0.00000000000E+00 0.  1.
<mgrwt>
<rscale>  0 0.71335424E+02</rscale>
<asrwt>0</asrwt>
<pdfrwt beam="1">  1        2 0.17061070E+00 0.18045468E+03</pdfrwt>
<pdfrwt beam="2">  1       -2 0.35207765E-01 0.28199561E+02</pdfrwt>
<totfact> 0.17021803E+02</totfact>
</mgrwt>
</event>
<event>
 7    1  0.5277388E-004  0.9224784E+02  0.7546771E-02  0.1310948E+00
          1   -1    0    0  503    0  0.00000000000E+00  0.00000000000E+00  0.17665682784E+04  0.17665682784E+04  0.00000000000E+00 0. -1.
         -1   -1    0    0    0  501 -0.00000000000E+00 -0.00000000000E+00 -0.32034680047E+03  0.32034680047E+03  0.00000000000E+00 0.  1.
         25    2    1    2    0    0  0.28514238076E+02 -0.10879823549E+02  0.25875017533E+03  0.28897678963E+03  0.12499799749E+03 0.  0.
          4    1    3    3  502    0 -0.11728652122E+02  0.99620794599E+01 -0.86918814211E+01  0.17719086049E+02  0.12700000000E+01 0.  1.
         -4    1    3    3    0  502  0.40242890198E+02 -0.20841903009E+02  0.26744205675E+03  0.27125770358E+03  0.12700000000E+01 0.  1.
          2    1    1    2  503    0 -0.40486956917E+02  0.91554594433E+02  0.14855418807E+04  0.14889110506E+04  0.00000000000E+00 0. -1.
         -2    1    1    2    0  501  0.11972718841E+02 -0.80674770884E+02 -0.29807057810E+03  0.30902723858E+03  0.00000000000E+00 0.  1.
<mgrwt>
<rscale>  0 0.86738583E+02</rscale>
<asrwt>0</asrwt>
<pdfrwt beam="1">  1        1 0.27177973E+00 0.92247841E+02</pdfrwt>
<pdfrwt beam="2">  1       -1 0.49284124E-01 0.81558351E+02</pdfrwt>
<totfact> 0.23162589E+01</totfact>
</mgrwt>
</event>
<event>
 7    1  0.5734751E-004  0.9583152E+02  0.7546771E-02  0.1361362E+00
          2   -1    0    0  503    0  0.00000000000E+00  0.00000000000E+00  0.52663649534E+03  0.52663649534E+03  0.00000000000E+00 0. -1.
          1   -1    0    0  502    0 -0.00000000000E+00 -0.00000000000E+00 -0.12060663054E+04  0.12060663054E+04  0.00000000000E+00 0. -1.
         25    2    1    2    0    0 -0.11880703344E+03  0.41889829772E+02 -0.28252170300E+03  0.33363556570E+03  0.12499723597E+03 0.  0.
          4    1    3    3  501    0  0.20111034276E+02  0.23182128248E+02 -0.21954919258E+02  0.37755743263E+02  0.12700000000E+01 0.  1.
         -4    1    3    3    0  501 -0.13891806772E+03  0.18707701525E+02 -0.26056678374E+03  0.29587982243E+03  0.12700000000E+01 0.  1.
          2    1    1    2  502    0  0.23344344687E+02 -0.44881566132E+02 -0.89271379775E+03  0.89414609438E+03  0.00000000000E+00 0. -1.
          3    1    1    2  503    0  0.95462688754E+02  0.29917363599E+01  0.49580569066E+03  0.50492114069E+03  0.00000000000E+00 0. -1.
<mgrwt>
<rscale>  0 0.69628183E+02</rscale>
<asrwt>0</asrwt>
<pdfrwt beam="1">  1        2 0.81021001E-01 0.95831522E+02</pdfrwt>
<pdfrwt beam="2">  1        1 0.18554866E+00 0.50589657E+02</pdfrwt>
<totfact> 0.10577895E+02</totfact>
</mgrwt>
</event>
<event>
 7    1  0.5277388E-004  0.1124793E+03  0.7546771E-02  0.1400870E+00
          2   -1    0    0  503    0  0.00000000000E+00  0.00000000000E+00  0.12708130987E+03  0.12708130987E+03  0.00000000000E+00 0. -1.
          1   -1    0    0  502    0 -0.00000000000E+00 -0.00000000000E+00 -0.82887336590E+03  0.82887336590E+03  0.00000000000E+00 0. -1.
         25    2    1    2    0    0  0.52950168415E+02 -0.94283129315E+02 -0.69937913530E+01  0.16543104937E+03  0.12500196066E+03 0.  0.
          4    1    3    3  501    0  0.76400745197E+02 -0.65977304150E+02  0.37508802377E+02  0.10769680443E+03  0.12700000000E+01 0.  1.
         -4    1    3    3    0  501 -0.23450576782E+02 -0.28305825165E+02 -0.44502593730E+02  0.57734244936E+02  0.12700000000E+01 0.  1.
          2    1    1    2  502    0 -0.25903050398E+02  0.10992508812E+03 -0.73272903977E+03  0.74138137200E+03  0.00000000000E+00 0. -1.
          1    1    1    2  503    0 -0.27047118017E+02 -0.15641958806E+02  0.37930775093E+02  0.49142254400E+02  0.00000000000E+00 0. -1.
<mgrwt>
<rscale>  0 0.59282015E+02</rscale>
<asrwt>0</asrwt>
<pdfrwt beam="1">  1        2 0.19550970E-01 0.31244479E+02</pdfrwt>
<pdfrwt beam="2">  1        1 0.12751898E+00 0.11247931E+03</pdfrwt>
<totfact> 0.81033774E+02</totfact>
</mgrwt>
</event>
<event>
 7    1  0.5277388E-004  0.5685106E+02  0.7546771E-02  0.1418543E+00
         -2   -1    0    0    0  501  0.00000000000E+00  0.00000000000E+00  0.61349956147E+03  0.61349956147E+03  0.00000000000E+00 0.  1.
         -1   -1    0    0    0  502 -0.00000000000E+00 -0.00000000000E+00 -0.49439424751E+03  0.49439424751E+03  0.00000000000E+00 0.  1.
         25    2    1    2    0    0 -0.35055158312E+02 -0.10255977995E+03  0.38241614526E+03  0.41667852711E+03  0.12502605414E+03 0.  0.
          4    1    3    3  503    0 -0.22339729495E+02  0.20657397659E+02  0.15252487788E+03  0.15553534281E+03  0.12700000000E+01 0. -1.
         -4    1    3    3    0  503 -0.12715428818E+02 -0.12321717761E+03  0.22989126738E+03  0.26114318430E+03  0.12700000000E+01 0. -1.
         -2    1    1    2    0  502  0.28142236212E+02  0.49155028125E+02 -0.47215496323E+03  0.47554023126E+03  0.00000000000E+00 0.  1.
         -1    1    1    2    0  501  0.69129221005E+01  0.53404751828E+02  0.20884413193E+03  0.21567505060E+03  0.00000000000E+00 0.  1.
<mgrwt>
<rscale>  0 0.55330348E+02</rscale>
<asrwt>0</asrwt>
<pdfrwt beam="1">  1       -2 0.94384548E-01 0.53850311E+02</pdfrwt>
<pdfrwt beam="2">  1       -1 0.76060653E-01 0.56851063E+02</pdfrwt>
<totfact> 0.14493501E+01</totfact>
</mgrwt>
</event>
<event>
 7    1  0.5277388E-004  0.4295243E+02  0.7546771E-02  0.1512668E+00
         -1   -1    0    0    0  501 -0.00000000000E+00  0.00000000000E+00  0.24493880129E+03  0.24493880129E+03  0.00000000000E+00 0.  1.
          1   -1    0    0  503    0  0.00000000000E+00 -0.00000000000E+00 -0.12408669183E+03  0.12408669183E+03  0.00000000000E+00 0. -1.
         25    2    1    2    0    0  0.66768644231E+02  0.21199908623E+02  0.38928993695E+02  0.14848890191E+03  0.12500399778E+03 0.  0.
          4    1    3    3  502    0 -0.31232527991E+02  0.16979754593E+02  0.35608501894E+02  0.50332506175E+02  0.12700000000E+01 0.  1.
         -4    1    3    3    0  502  0.98001172222E+02  0.42201540297E+01  0.33204918010E+01  0.98156395730E+02  0.12700000000E+01 0.  1.
          2    1    1    2  503    0 -0.35542784812E+02  0.65589433189E+01 -0.61399957730E+02  0.71247905927E+02  0.00000000000E+00 0. -1.
         -2    1    1    2    0  501 -0.31225859419E+02 -0.27758851942E+02  0.14332307350E+03  0.14928868529E+03  0.00000000000E+00 0.  1.
<mgrwt>
<rscale>  0 0.39400830E+02</rscale>
<asrwt>0</asrwt>
<pdfrwt beam="2">  1        1 0.19090260E-01 0.36142901E+02</pdfrwt>
<pdfrwt beam="1">  1       -1 0.37682892E-01 0.42952429E+02</pdfrwt>
<totfact> 0.17034477E+03</totfact>
</mgrwt>
</event>
<event>
 7    1  0.5277388E-004  0.1710016E+03  0.7546771E-02  0.1389777E+00
         -3   -1    0    0    0  501 -0.00000000000E+00  0.00000000000E+00  0.79247434486E+02  0.79247434486E+02  0.00000000000E+00 0.  1.
          1   -1    0    0  503    0  0.00000000000E+00 -0.00000000000E+00 -0.23760964335E+04  0.23760964335E+04  0.00000000000E+00 0. -1.
         25    2    1    2    0    0 -0.11737241831E+03  0.14766605353E+03 -0.71580064187E+03  0.75071738925E+03  0.12499796668E+03 0.  0.
          4    1    3    3  502    0 -0.11584728765E+03  0.11511010615E+03 -0.69018513440E+03  0.70924471322E+03  0.12700000000E+01 0. -1.
         -4    1    3    3    0  502 -0.15251306539E+01  0.32555947382E+02 -0.25615507473E+02  0.41472676023E+02  0.12700000000E+01 0. -1.
          2    1    1    2  503    0  0.19819732015E+02 -0.10548338457E+02 -0.15280273572E+04  0.15281922960E+04  0.00000000000E+00 0. -1.
         -2    1    1    2    0  501  0.97552686293E+02 -0.13711771507E+03 -0.53020999896E+02  0.17643418268E+03  0.00000000000E+00 0.  1.
<mgrwt>
<rscale>  0 0.61962225E+02</rscale>
<asrwt>0</asrwt>
<pdfrwt beam="2">  1        1 0.36555329E+00 0.22451931E+02</pdfrwt>
<pdfrwt beam="1">  1       -3 0.12191913E-01 0.17100165E+03</pdfrwt>
<totfact> 0.78737901E+01</totfact>
</mgrwt>
</event>
<event>
 7    1  0.5277388E-004  0.6214390E+02  0.7546771E-02  0.1515626E+00
          1   -1    0    0  502    0 -0.00000000000E+00  0.00000000000E+00  0.84990953112E+03  0.84990953112E+03  0.00000000000E+00 0. -1.
          2   -1    0    0  503    0  0.00000000000E+00 -0.00000000000E+00 -0.11861281504E+04  0.11861281504E+04  0.00000000000E+00 0. -1.
         25    2    1    2    0    0 -0.46963549711E+02 -0.36307548663E+02  0.85339880720E+02  0.16257956037E+03  0.12500162046E+03 0.  0.
          4    1    3    3  501    0  0.29062061044E+02  0.13389129212E+02 -0.72906026126E+01  0.32842624129E+02  0.12700000000E+01 0.  1.
         -4    1    3    3    0  501 -0.76025610756E+02 -0.49696677874E+02  0.92630483333E+02  0.12973693624E+03  0.12700000000E+01 0.  1.
          2    1    1    2  502    0 -0.13218815117E+02  0.20613727861E+02  0.72490016707E+03  0.72531366668E+03  0.00000000000E+00 0. -1.
          1    1    1    2  503    0  0.60182364828E+02  0.15693820802E+02 -0.11464586671E+04  0.11481444545E+04  0.00000000000E+00 0. -1.
<mgrwt>
<rscale>  0 0.39010008E+02</rscale>
<asrwt>0</asrwt>
<pdfrwt beam="2">  1        2 0.18248125E+00 0.62143901E+02</pdfrwt>
<pdfrwt beam="1">  1        1 0.13075531E+00 0.24488014E+02</pdfrwt>
<totfact> 0.73187762E+01</totfact>
</mgrwt>
</event>
<event>
 7    1  0.5277388E-004  0.6893860E+02  0.7546771E-02  0.1511359E+00
          1   -1    0    0  502    0 -0.00000000000E+00  0.00000000000E+00  0.17432366082E+02  0.17432366082E+02  0.00000000000E+00 0. -1.
          2   -1    0    0  503    0  0.00000000000E+00 -0.00000000000E+00 -0.21749163790E+04  0.21749163790E+04  0.00000000000E+00 0. -1.
         25    2    1    2    0    0 -0.70313425287E+02 -0.42130198314E+01 -0.56267610542E+03  0.58069072528E+03  0.12504235884E+03 0.  0.
          4    1    3    3  501    0 -0.22844529701E+02  0.48695570937E+02 -0.39382826045E+03  0.39748640580E+03  0.12700000000E+01 0. -1.
         -4    1    3    3    0  501 -0.47468895586E+02 -0.52908590769E+02 -0.16884784496E+03  0.18320431948E+03  0.12700000000E+01 0. -1.
          2    1    1    2  502    0  0.36557538668E+01  0.22422997411E+02 -0.91455460102E+01  0.24490740313E+02  0.00000000000E+00 0. -1.
          1    1    1    2  503    0  0.66657671421E+02 -0.18209977580E+02 -0.15856623615E+04  0.15871672795E+04  0.00000000000E+00 0. -1.
<mgrwt>
<rscale>  0 0.39575492E+02</rscale>
<asrwt>0</asrwt>
<pdfrwt beam="2">  1        2 0.33460238E+00 0.68938596E+02</pdfrwt>
<pdfrwt beam="1">  1        1 0.26819036E-02 0.22719053E+02</pdfrwt>
<totfact> 0.27725700E+03</totfact>
</mgrwt>
</event>
<event>
 7    1  0.5277388E-004  0.2695937E+03  0.7546771E-02  0.1223292E+00
          1   -1    0    0  502    0 -0.00000000000E+00  0.00000000000E+00  0.18554853164E+03  0.18554853164E+03  0.00000000000E+00 0. -1.
          2   -1    0    0  503    0  0.00000000000E+00 -0.00000000000E+00 -0.84433071938E+03  0.84433071938E+03  0.00000000000E+00 0. -1.
         25    2    1    2    0    0  0.25130293102E+03  0.30467928168E+02 -0.55886909078E+02  0.28780155745E+03  0.12499972831E+03 0.  0.
          4    1    3    3  501    0  0.26477596253E+03  0.21123198435E+02 -0.55471302491E+02  0.27135065533E+03  0.12700000000E+01 0. -1.
         -4    1    3    3    0  501 -0.13473031509E+02  0.93447297326E+01 -0.41560658732E+00  0.16450902123E+02  0.12700000000E+01 0. -1.
          2    1    1    2  502    0  0.22098605001E+02 -0.61619478337E+02  0.13688555316E+02  0.66878135442E+02  0.00000000000E+00 0. -1.
          1    1    1    2  503    0 -0.27340153602E+03  0.31151550170E+02 -0.61658383398E+03  0.67519955813E+03  0.00000000000E+00 0. -1.
<mgrwt>
<rscale>  0 0.13284659E+03</rscale>
<asrwt>0</asrwt>
<pdfrwt beam="2">  1        2 0.12989703E+00 0.26959374E+03</pdfrwt>
<pdfrwt beam="1">  1        1 0.28545928E-01 0.65462267E+02</pdfrwt>
<totfact> 0.70820986E+02</totfact>
</mgrwt>
</event>
<event>
 7    1  0.5277388E-004  0.2056726E+03  0.7546771E-02  0.1248271E+00
          2   -1    0    0  503    0  0.00000000000E+00  0.00000000000E+00  0.16350162662E+03  0.16350162662E+03  0.00000000000E+00 0. -1.
          1   -1    0    0  502    0 -0.00000000000E+00 -0.00000000000E+00 -0.19450621880E+04  0.19450621880E+04  0.00000000000E+00 0. -1.
         25    2    1    2    0    0 -0.13420670503E+03 -0.88595374339E+02 -0.67571291193E+03  0.70574303843E+03  0.12499886764E+03 0.  0.
          4    1    3    3  501    0 -0.14381057301E+03 -0.79996833350E+02 -0.67257424599E+03  0.69241512369E+03  0.12700000000E+01 0. -1.
         -4    1    3    3    0  501  0.96038679762E+01 -0.85985409892E+01 -0.31386659421E+01  0.13327914734E+02  0.12700000000E+01 0. -1.
          2    1    1    2  502    0 -0.64273795413E+02  0.16917856893E+02 -0.11779446597E+04  0.11798181877E+04  0.00000000000E+00 0. -1.
          1    1    1    2  503    0  0.19848050044E+03  0.71677517446E+02  0.72097010308E+02  0.22300258846E+03  0.00000000000E+00 0. -1.
<mgrwt>
<rscale>  0 0.11691718E+03</rscale>
<asrwt>0</asrwt>
<pdfrwt beam="1">  1        2 0.25154096E-01 0.20567265E+03</pdfrwt>
<pdfrwt beam="2">  1        1 0.29924034E+00 0.66463032E+02</pdfrwt>
<totfact> 0.12483191E+02</totfact>
</mgrwt>
</event>
<event>
 7    1  0.5277388E-004  0.6561121E+02  0.7546771E-02  0.1445345E+00
         -2   -1    0    0    0  501 -0.00000000000E+00  0.00000000000E+00  0.68745226781E+03  0.68745226781E+03  0.00000000000E+00 0.  1.
          2   -1    0    0  503    0  0.00000000000E+00 -0.00000000000E+00 -0.39201543337E+03  0.39201543337E+03  0.00000000000E+00 0. -1.
         25    2    1    2    0    0  0.76745844569E+02 -0.55678118980E+02  0.77772841721E+01  0.15708792615E+03  0.12500461112E+03 0.  0.
          4    1    3    3  502    0 -0.94440451695E+00 -0.73172049440E+02 -0.14005712588E+02  0.74517203412E+02  0.12700000000E+01 0.  1.
         -4    1    3    3    0  502  0.77690249086E+02  0.17493930460E+02  0.21782996760E+02  0.82570722740E+02  0.12700000000E+01 0.  1.
          1    1    1    2  503    0 -0.15102716113E+02  0.34981209945E+02 -0.31445965806E+03  0.31675961489E+03  0.00000000000E+00 0. -1.
         -1    1    1    2    0  501 -0.61643128456E+02  0.20696909035E+02  0.60211920833E+03  0.60562016014E+03  0.00000000000E+00 0.  1.
<mgrwt>
<rscale>  0 0.49999311E+02</rscale>
<asrwt>0</asrwt>
<pdfrwt beam="2">  1        2 0.60310067E-01 0.38102193E+02</pdfrwt>
<pdfrwt beam="1">  1       -2 0.10576189E+00 0.65611214E+02</pdfrwt>
<totfact> 0.65209415E+01</totfact>
</mgrwt>
</event>
<event>
 7    1  0.5277388E-004  0.4279326E+02  0.7546771E-02  0.1515643E+00
          1   -1    0    0  502    0 -0.00000000000E+00  0.00000000000E+00  0.20585816126E+04  0.20585816126E+04  0.00000000000E+00 0. -1.
          2   -1    0    0  503    0  0.00000000000E+00 -0.00000000000E+00 -0.67354613998E+03  0.67354613998E+03  0.00000000000E+00 0. -1.
         25    2    1    2    0    0  0.75950988292E+02  0.90481674892E+01  0.92341664682E+01  0.14683505410E+03  0.12499936530E+03 0.  0.
          4    1    3    3  501    0 -0.24555168883E+01  0.46597317006E+02  0.32444315328E+02  0.56847040490E+02  0.12700000000E+01 0. -1.
         -4    1    3    3    0  501  0.78406505180E+02 -0.37549149517E+02 -0.23210148860E+02  0.89988013614E+02  0.12700000000E+01 0. -1.
          2    1    1    2  502    0 -0.42566028975E+02  0.31891726343E+01  0.19797940899E+04  0.19802541948E+04  0.00000000000E+00 0. -1.
          1    1    1    2  503    0 -0.33384959317E+02 -0.12237340124E+02 -0.60399278379E+03  0.60503850362E+03  0.00000000000E+00 0. -1.
<mgrwt>
<rscale>  0 0.39007752E+02</rscale>
<asrwt>0</asrwt>
<pdfrwt beam="2">  1        2 0.10362248E+00 0.35557109E+02</pdfrwt>
<pdfrwt beam="1">  1        1 0.31670486E+00 0.42793262E+02</pdfrwt>
<totfact> 0.24931051E+01</totfact>
</mgrwt>
</event>
<event>
 7    1  0.5277388E-004  0.1229674E+03  0.7546771E-02  0.1293541E+00
          2   -1    0    0  503    0  0.00000000000E+00  0.00000000000E+00  0.11389529690E+04  0.11389529690E+04  0.00000000000E+00 0. -1.
          1   -1    0    0  502    0 -0.00000000000E+00 -0.00000000000E+00 -0.21030093981E+03  0.21030093981E+03  0.00000000000E+00 0. -1.
         25    2    1    2    0    0  0.10122111867E+03  0.11073035755E+02  0.22151498271E+03  0.27397905781E+03  0.12500923793E+03 0.  0.
          4    1    3    3  501    0  0.36204666015E+02  0.66224005527E+02  0.11460067966E+03  0.13722727654E+03  0.12700000000E+01 0.  1.
         -4    1    3    3    0  501  0.65016452656E+02 -0.55150969772E+02  0.10691430306E+03  0.13675178127E+03  0.12700000000E+01 0.  1.
          2    1    1    2  502    0 -0.11115031604E+03  0.60028862870E+02 -0.16073705925E+03  0.20443644330E+03  0.00000000000E+00 0. -1.
          1    1    1    2  503    0  0.99291973653E+01 -0.71101898625E+02  0.86787410570E+03  0.87083840768E+03  0.00000000000E+00 0. -1.
<mgrwt>
<rscale>  0 0.93957747E+02</rscale>
<asrwt>0</asrwt>
<pdfrwt beam="1">  1        2 0.17522353E+00 0.71791845E+02</pdfrwt>
<pdfrwt beam="2">  1        1 0.32353991E-01 0.12296742E+03</pdfrwt>
<totfact> 0.43553788E+02</totfact>
</mgrwt>
</event>
<event>
 7    1  0.5277388E-004  0.6597256E+02  0.7546771E-02  0.1423440E+00
         -2   -1    0    0    0  501 -0.00000000000E+00  0.00000000000E+00  0.13734598994E+02  0.13734598994E+02  0.00000000000E+00 0.  1.
          2   -1    0    0  503    0  0.00000000000E+00 -0.00000000000E+00 -0.12509860780E+04  0.12509860780E+04  0.00000000000E+00 0. -1.
         25    2    1    2    0    0 -0.53371421999E+02 -0.48690055048E+02 -0.59169770294E+03  0.60905708261E+03  0.12500051227E+03 0.  0.
          4    1    3    3  502    0 -0.43402248041E+02 -0.44433056371E+02 -0.59454141197E+03  0.59777851674E+03  0.12700000000E+01 0.  1.
         -4    1    3    3    0  502 -0.99691739579E+01 -0.42569986764E+01  0.28437090250E+01  0.11278565873E+02  0.12700000000E+01 0.  1.
          1    1    1    2  503    0  0.40962664952E+02 -0.17872757641E+02 -0.32320786676E+03  0.32628316003E+03  0.00000000000E+00 0. -1.
         -1    1    1    2    0  501  0.12408757047E+02  0.66562812689E+02 -0.32234590929E+03  0.32938043433E+03  0.00000000000E+00 0.  1.
<mgrwt>
<rscale>  0 0.54299596E+02</rscale>
<asrwt>0</asrwt>
<pdfrwt beam="2">  1        2 0.19245947E+00 0.44692006E+02</pdfrwt>
<pdfrwt beam="1">  1       -2 0.21130145E-02 0.65972562E+02</pdfrwt>
<totfact> 0.12630313E+04</totfact>
</mgrwt>
</event>
<event>
 7    1  0.5277388E-004  0.7171198E+02  0.7546771E-02  0.1427168E+00
          1   -1    0    0  502    0 -0.00000000000E+00  0.00000000000E+00  0.46566342954E+02  0.46566342954E+02  0.00000000000E+00 0. -1.
          2   -1    0    0  503    0  0.00000000000E+00 -0.00000000000E+00 -0.20265873355E+04  0.20265873355E+04  0.00000000000E+00 0. -1.
         25    2    1    2    0    0 -0.94248675283E+00 -0.37384320925E+02 -0.27616958952E+03  0.30544095313E+03  0.12500423170E+03 0.  0.
          4    1    3    3  501    0 -0.46711853688E+02 -0.62615076732E+02 -0.17032673217E+03  0.18739117829E+03  0.12700000000E+01 0.  1.
         -4    1    3    3    0  501  0.45769366936E+02  0.25230755807E+02 -0.10584285736E+03  0.11804977485E+03  0.12700000000E+01 0.  1.
          2    1    1    2  502    0  0.56073492942E+01  0.77072958490E+02 -0.15409610100E+02  0.78798092489E+02  0.00000000000E+00 0. -1.
          1    1    1    2  503    0 -0.46648625414E+01 -0.39688637565E+02 -0.16884417929E+04  0.16889146328E+04  0.00000000000E+00 0. -1.
<mgrwt>
<rscale>  0 0.53532632E+02</rscale>
<asrwt>0</asrwt>
<pdfrwt beam="2">  1        2 0.31178265E+00 0.39961843E+02</pdfrwt>
<pdfrwt beam="1">  1        1 0.71640531E-02 0.71711976E+02</pdfrwt>
<totfact> 0.11091374E+03</totfact>
</mgrwt>
</event>
<event>
 7    1  0.5277388E-004  0.2155052E+03  0.7546771E-02  0.1213217E+00
          1   -1    0    0  503    0  0.00000000000E+00  0.00000000000E+00  0.17629165716E+04  0.17629165716E+04  0.00000000000E+00 0. -1.
         -1   -1    0    0    0  501 -0.00000000000E+00 -0.00000000000E+00 -0.37952209012E+03  0.37952209012E+03  0.00000000000E+00 0.  1.
         25    2    1    2    0    0  0.13503072801E+03 -0.97473673111E+02  0.33698137688E+03  0.39612591055E+03  0.12499949674E+03 0.  0.
          4    1    3    3  502    0  0.13187563698E+03 -0.23317152176E+02  0.21195243334E+03  0.25071960457E+03  0.12700000000E+01 0. -1.
         -4    1    3    3    0  502  0.31550910313E+01 -0.74156520935E+02  0.12502894354E+03  0.14540630599E+03  0.12700000000E+01 0. -1.
          2    1    1    2  503    0 -0.13864846363E+03  0.18845952395E+03  0.13804246384E+04  0.14001116280E+04  0.00000000000E+00 0. -1.
         -2    1    1    2    0  501  0.36177356163E+01 -0.90985850835E+02 -0.33401153373E+03  0.34620112323E+03  0.00000000000E+00 0.  1.
<mgrwt>
<rscale>  0 0.14008361E+03</rscale>
<asrwt>0</asrwt>
<pdfrwt beam="1">  1        1 0.27121793E+00 0.21550520E+03</pdfrwt>
<pdfrwt beam="2">  1       -1 0.58388015E-01 0.91057746E+02</pdfrwt>
<totfact> 0.15591892E+01</totfact>
</mgrwt>
</event>
<event>
 7    1  0.5277388E-004  0.7406292E+02  0.7546771E-02  0.1371605E+00
         -1   -1    0    0    0  501 -0.00000000000E+00  0.00000000000E+00  0.11862175687E+04  0.11862175687E+04  0.00000000000E+00 0.  1.
          1   -1    0    0  503    0  0.00000000000E+00 -0.00000000000E+00 -0.17101705248E+04  0.17101705248E+04  0.00000000000E+00 0. -1.
         25    2    1    2    0    0 -0.72687427242E+02  0.74225534043E+02 -0.49171569381E+02  0.16981194844E+03  0.12500145046E+03 0.  0.
          4    1    3    3  502    0 -0.93548935088E+02  0.20423770516E+02 -0.57190678539E+02  0.11153887336E+03  0.12700000000E+01 0. -1.
         -4    1    3    3    0  502  0.20861507846E+02  0.53801763527E+02  0.80191091582E+01  0.58273075086E+02  0.12700000000E+01 0. -1.
          2    1    1    2  503    0  0.11441438349E+00 -0.60110155128E+02 -0.15988996807E+04  0.16000291975E+04  0.00000000000E+00 0. -1.
         -2    1    1    2    0  501  0.72573012858E+02 -0.14115378915E+02  0.11241182940E+04  0.11265469476E+04  0.00000000000E+00 0.  1.
<mgrwt>
<rscale>  0 0.66722874E+02</rscale>
<asrwt>0</asrwt>
<pdfrwt beam="2">  1        1 0.26310316E+00 0.60110264E+02</pdfrwt>
<pdfrwt beam="1">  1       -1 0.18249501E+00 0.74062925E+02</pdfrwt>
<totfact> 0.15133702E+00</totfact>
</mgrwt>
</event>
<event>
 7    1  0.5277388E-004  0.1479473E+03  0.7546771E-02  0.1266208E+00
          2   -1    0    0  503    0  0.00000000000E+00  0.00000000000E+00  0.70158839454E+03  0.70158839454E+03  0.00000000000E+00 0. -1.
         -2   -1    0    0    0  501 -0.00000000000E+00 -0.00000000000E+00 -0.24393534919E+03  0.24393534919E+03  0.00000000000E+00 0.  1.
         25    2    1    2    0    0  0.47163787426E+02 -0.86445658474E+02  0.30720180312E+03  0.34597115758E+03  0.12500327726E+03 0.  0.
          4    1    3    3  502    0  0.25125353740E+02 -0.39187497727E+02  0.14667425617E+02  0.48823044281E+02  0.12700000000E+01 0.  1.
         -4    1    3    3    0  502  0.22038433686E+02 -0.47258160747E+02  0.29253437751E+03  0.29714811330E+03  0.12700000000E+01 0.  1.
          1    1    1    2  503    0  0.77376023838E+02 -0.19614729061E+01  0.34422828886E+03  0.35282291775E+03  0.00000000000E+00 0. -1.
         -1    1    1    2    0  501 -0.12453981126E+03  0.88407131380E+02 -0.19377704662E+03  0.24672966840E+03  0.00000000000E+00 0.  1.
<mgrwt>
<rscale>  0 0.10701051E+03</rscale>
<asrwt>0</asrwt>
<pdfrwt beam="1">  1        2 0.10793668E+00 0.77400881E+02</pdfrwt>
<pdfrwt beam="2">  1       -2 0.37528515E-01 0.14794727E+03</pdfrwt>
<totfact> 0.29370356E+02</totfact>
</mgrwt>
</event>
<event>
 7    1  0.5277388E-004  0.7289484E+02  0.7546771E-02  0.1396354E+00
          1   -1    0    0  503    0  0.00000000000E+00  0.00000000000E+00  0.40414935485E+02  0.40414935485E+02  0.00000000000E+00 0. -1.
         -1   -1    0    0    0  501 -0.00000000000E+00 -0.00000000000E+00 -0.51707927748E+03  0.51707927748E+03  0.00000000000E+00 0.  1.
         25    2    1    2    0    0 -0.88001326060E+02 -0.19876663622E+02 -0.31556803187E+03  0.35120548035E+03  0.12499116586E+03 0.  0.
          4    1    3    3  502    0 -0.22183094733E+02  0.47421013832E+02 -0.64591796952E+02  0.83153805555E+02  0.12700000000E+01 0. -1.
         -4    1    3    3    0  502 -0.65818231328E+02 -0.67297677454E+02 -0.25097623492E+03  0.26805167479E+03  0.12700000000E+01 0. -1.
          2    1    1    2  503    0  0.44399876363E+02 -0.22926757356E+02 -0.12664148937E+03  0.13614349802E+03  0.00000000000E+00 0.  1.
         -2    1    1    2    0  501  0.43601449697E+02  0.42803420978E+02 -0.34454820754E+02  0.70145234595E+02  0.00000000000E+00 0. -1.
<mgrwt>
<rscale>  0 0.60353488E+02</rscale>
<asrwt>0</asrwt>
<pdfrwt beam="1">  1        1 0.62176826E-02 0.49969843E+02</pdfrwt>
<pdfrwt beam="2">  1       -1 0.79550656E-01 0.72894836E+02</pdfrwt>
<totfact> 0.18439110E+03</totfact>
</mgrwt>
</event>
<event>
 7    1  0.5277388E-004  0.1029330E+03  0.7546771E-02  0.1391770E+00
         -2   -1    0    0    0  501 -0.00000000000E+00  0.00000000000E+00  0.14080272399E+03  0.14080272399E+03  0.00000000000E+00 0.  1.
          2   -1    0    0  503    0  0.00000000000E+00 -0.00000000000E+00 -0.78926850065E+03  0.78926850065E+03  0.00000000000E+00 0. -1.
         25    2    1    2    0    0 -0.62923231568E+02  0.81407218525E+02 -0.92577991650E+02  0.18649904001E+03  0.12499895634E+03 0.  0.
          4    1    3    3  502    0 -0.71034055809E+02  0.38982284538E+01 -0.80814602521E+02  0.10767379510E+03  0.12700000000E+01 0.  1.
         -4    1    3    3    0  502  0.81108242415E+01  0.77508990071E+02 -0.11763389129E+02  0.78825244912E+02  0.12700000000E+01 0.  1.
          1    1    1    2  503    0  0.32014059913E+02  0.17958709709E+02 -0.62017062648E+03  0.62125600298E+03  0.00000000000E+00 0. -1.
         -1    1    1    2    0  501  0.30909171654E+02 -0.99365928233E+02  0.64282841472E+02  0.12231618165E+03  0.00000000000E+00 0.  1.
<mgrwt>
<rscale>  0 0.61468497E+02</rscale>
<asrwt>0</asrwt>
<pdfrwt beam="2">  1        2 0.12142592E+00 0.36707156E+02</pdfrwt>
<pdfrwt beam="1">  1       -2 0.21661958E-01 0.10293296E+03</pdfrwt>
<totfact> 0.69394837E+02</totfact>
</mgrwt>
</event>
<event>
 7    1  0.5277388E-004  0.1198780E+03  0.7546771E-02  0.1389158E+00
          1   -1    0    0  503    0  0.00000000000E+00  0.00000000000E+00  0.20564128397E+03  0.20564128397E+03  0.00000000000E+00 0. -1.
         -1   -1    0    0    0  501 -0.00000000000E+00 -0.00000000000E+00 -0.19018111857E+04  0.19018111857E+04  0.00000000000E+00 0.  1.
         25    2    1    2    0    0  0.10264508771E+02  0.12058956935E+03 -0.20706053449E+03  0.27045575871E+03  0.12500019241E+03 0.  0.
          4    1    3    3  502    0  0.49176395841E+02  0.43432475629E+01 -0.79076445558E+02  0.93230246430E+02  0.12700000000E+01 0.  1.
         -4    1    3    3    0  502 -0.38911887069E+02  0.11624632179E+03 -0.12798408893E+03  0.17722551228E+03  0.12700000000E+01 0.  1.
          2    1    1    2  503    0 -0.41477987821E+02 -0.11273486566E+03  0.15302829022E+03  0.19454364810E+03  0.00000000000E+00 0. -1.
         -2    1    1    2    0  501  0.31213479049E+02 -0.78547036936E+01 -0.16421376575E+04  0.16424530629E+04  0.00000000000E+00 0.  1.
<mgrwt>
<rscale>  0 0.62116563E+02</rscale>
<asrwt>0</asrwt>
<pdfrwt beam="1">  1        1 0.31637121E-01 0.11987804E+03</pdfrwt>
<pdfrwt beam="2">  1       -1 0.29258633E+00 0.32186607E+02</pdfrwt>
<totfact> 0.79284929E+00</totfact>
</mgrwt>
</event>
<event>
 7    1  0.5277388E-004  0.1083539E+03  0.7546771E-02  0.1393841E+00
          1   -1    0    0  502    0 -0.00000000000E+00  0.00000000000E+00  0.31159413542E+03  0.31159413542E+03  0.00000000000E+00 0. -1.
          2   -1    0    0  503    0  0.00000000000E+00 -0.00000000000E+00 -0.16216341393E+04  0.16216341393E+04  0.00000000000E+00 0. -1.
         25    2    1    2    0    0 -0.23802055653E+01  0.75252461152E+02 -0.26897889238E+03  0.30600458751E+03  0.12498225770E+03 0.  0.
          4    1    3    3  501    0  0.35459870108E+02 -0.21084213124E+02 -0.94712494192E+02  0.10331512903E+03  0.12700000000E+01 0.  1.
         -4    1    3    3    0  501 -0.37840075674E+02  0.96336674275E+02 -0.17426639819E+03  0.20268945847E+03  0.12700000000E+01 0.  1.
          2    1    1    2  502    0  0.11083299657E+01 -0.10952670988E+03  0.28261760062E+03  0.30310070398E+03  0.00000000000E+00 0. -1.
          1    1    1    2  503    0  0.12718755996E+01  0.34274248728E+02 -0.13236787121E+04  0.13241229833E+04  0.00000000000E+00 0. -1.
<mgrwt>
<rscale>  0 0.60961489E+02</rscale>
<asrwt>0</asrwt>
<pdfrwt beam="2">  1        2 0.24948218E+00 0.34297839E+02</pdfrwt>
<pdfrwt beam="1">  1        1 0.47937559E-01 0.10835386E+03</pdfrwt>
<totfact> 0.16197175E+02</totfact>
</mgrwt>
</event>
<event>
 7    1  0.5277388E-004  0.7554526E+02  0.7546771E-02  0.1504959E+00
         -1   -1    0    0    0  501 -0.00000000000E+00  0.00000000000E+00  0.57229741024E+03  0.57229741024E+03  0.00000000000E+00 0.  1.
          1   -1    0    0  503    0  0.00000000000E+00 -0.00000000000E+00 -0.10938769849E+04  0.10938769849E+04  0.00000000000E+00 0. -1.
         25    2    1    2    0    0 -0.75051445841E+02 -0.13196756312E+02 -0.71695833646E+03  0.73175213983E+03  0.12500025610E+03 0.  0.
          4    1    3    3  502    0  0.29249748757E+02 -0.28303492494E+02 -0.18020048209E+03  0.18474431556E+03  0.12700000000E+01 0. -1.
         -4    1    3    3    0  502 -0.10430119460E+03  0.15106736182E+02 -0.53675785438E+03  0.54700782427E+03  0.12700000000E+01 0. -1.
          2    1    1    2  503    0  0.73607381366E+01 -0.20364188778E+02 -0.36667463953E+03  0.36731345187E+03  0.00000000000E+00 0. -1.
         -2    1    1    2    0  501  0.67690707704E+02  0.33560945090E+02  0.56205340135E+03  0.56710880342E+03  0.00000000000E+00 0.  1.
<mgrwt>
<rscale>  0 0.40445406E+02</rscale>
<asrwt>0</asrwt>
<pdfrwt beam="2">  1        1 0.16828876E+00 0.21653652E+02</pdfrwt>
<pdfrwt beam="1">  1       -1 0.88045757E-01 0.75545262E+02</pdfrwt>
<totfact> 0.23237181E+01</totfact>
</mgrwt>
</event>
<event>
 7    1  0.5277388E-004  0.1224686E+03  0.7546771E-02  0.1278419E+00
          1   -1    0    0  502    0 -0.00000000000E+00  0.00000000000E+00  0.59054822707E+03  0.59054822707E+03  0.00000000000E+00 0. -1.
          2   -1    0    0  503    0  0.00000000000E+00 -0.00000000000E+00 -0.24353328365E+04  0.24353328365E+04  0.00000000000E+00 0. -1.
         25    2    1    2    0    0  0.11601010151E+02  0.17619203565E+03 -0.89815715275E+03  0.92384522828E+03  0.12500207163E+03 0.  0.
          4    1    3    3  501    0 -0.25103541598E+02 -0.83005215654E+01 -0.15533645776E+03  0.15757574201E+03  0.12700000000E+01 0. -1.
         -4    1    3    3    0  501  0.36704551749E+02  0.18449255721E+03 -0.74282069499E+03  0.76626948627E+03  0.12700000000E+01 0. -1.
          2    1    1    2  502    0  0.43690069164E+02 -0.11412056214E+03  0.57009139562E+03  0.58304075690E+03  0.00000000000E+00 0. -1.
          3    1    1    2  503    0 -0.55291079315E+02 -0.62071473505E+02 -0.15167188523E+04  0.15189950783E+04  0.00000000000E+00 0. -1.
<mgrwt>
<rscale>  0 0.10089773E+03</rscale>
<asrwt>0</asrwt>
<pdfrwt beam="2">  1        2 0.37466659E+00 0.83126237E+02</pdfrwt>
<pdfrwt beam="1">  1        1 0.90853573E-01 0.12246858E+03</pdfrwt>
<totfact> 0.25617791E+01</totfact>
</mgrwt>
</event>
<event>
 7    1  0.5277388E-004  0.6968118E+02  0.7546771E-02  0.1463506E+00
          1   -1    0    0  503    0  0.00000000000E+00  0.00000000000E+00  0.65088415361E+03  0.65088415361E+03  0.00000000000E+00 0. -1.
         -1   -1    0    0    0  501 -0.00000000000E+00 -0.00000000000E+00 -0.23013262380E+03  0.23013262380E+03  0.00000000000E+00 0.  1.
         25    2    1    2    0    0 -0.98042551976E+02 -0.33330058181E+01  0.17677656327E+03  0.23769477864E+03  0.12500161417E+03 0.  0.
          4    1    3    3  502    0  0.56620644407E+01 -0.33518316068E+02  0.44402737389E+01  0.34305472109E+02  0.12700000000E+01 0. -1.
         -4    1    3    3    0  502 -0.10370461642E+03  0.30185310250E+02  0.17233628953E+03  0.20338930653E+03  0.12700000000E+01 0. -1.
          2    1    1    2  503    0  0.29543248087E+02  0.10666956266E+02  0.43712601828E+03  0.43825305854E+03  0.00000000000E+00 0. -1.
         -2    1    1    2    0  501  0.68499303889E+02 -0.73339504475E+01 -0.19315105174E+03  0.20506894024E+03  0.00000000000E+00 0.  1.
<mgrwt>
<rscale>  0 0.46783384E+02</rscale>
<asrwt>0</asrwt>
<pdfrwt beam="1">  1        1 0.10013602E+00 0.31409990E+02</pdfrwt>
<pdfrwt beam="2">  1       -1 0.35405019E-01 0.69681176E+02</pdfrwt>
<totfact> 0.25983142E+02</totfact>
</mgrwt>
</event>
<event>
 7    1  0.5277388E-004  0.1401516E+03  0.7546771E-02  0.1344823E+00
          2   -1    0    0  503    0  0.00000000000E+00  0.00000000000E+00  0.18243001794E+04  0.18243001794E+04  0.00000000000E+00 0. -1.
          1   -1    0    0  502    0 -0.00000000000E+00 -0.00000000000E+00 -0.17246758474E+04  0.17246758474E+04  0.00000000000E+00 0. -1.
         25    2    1    2    0    0 -0.52858739956E+02  0.16702029296E+03  0.90137104484E+03  0.92670621952E+03  0.12499932867E+03 0.  0.
          4    1    3    3  501    0 -0.50910101089E+02  0.59642666811E+02  0.62986311628E+03  0.63472690525E+03  0.12700000000E+01 0. -1.
         -4    1    3    3    0  501 -0.19486388674E+01  0.10737762614E+03  0.27150792856E+03  0.29197931427E+03  0.12700000000E+01 0. -1.
          2    1    1    2  502    0  0.26038680977E+02 -0.13760376074E+03 -0.17087069317E+04  0.17144364048E+04  0.00000000000E+00 0. -1.
          1    1    1    2  503    0  0.26820058979E+02 -0.29416532219E+02  0.90696021888E+03  0.90783340242E+03  0.00000000000E+00 0. -1.
<mgrwt>
<rscale>  0 0.74693409E+02</rscale>
<asrwt>0</asrwt>
<pdfrwt beam="1">  1        2 0.28066157E+00 0.39807637E+02</pdfrwt>
<pdfrwt beam="2">  1        1 0.26533474E+00 0.14015164E+03</pdfrwt>
<totfact> 0.83602821E+00</totfact>
</mgrwt>
</event>
<event>
 7    1  0.5277388E-004  0.1283217E+03  0.7546771E-02  0.1282223E+00
          2   -1    0    0  503    0  0.00000000000E+00  0.00000000000E+00  0.22071894175E+04  0.22071894175E+04  0.00000000000E+00 0. -1.
          1   -1    0    0  502    0 -0.00000000000E+00 -0.00000000000E+00 -0.64312058033E+03  0.64312058033E+03  0.00000000000E+00 0. -1.
         25    2    1    2    0    0 -0.31814975896E+02 -0.18880776383E+03 -0.51705145363E+02  0.23443179911E+03  0.12499712799E+03 0.  0.
          4    1    3    3  501    0 -0.22239545214E+02 -0.20482236311E+03 -0.59071605531E+02  0.21433120464E+03  0.12700000000E+01 0. -1.
         -4    1    3    3    0  501 -0.95754306822E+01  0.16014599281E+02  0.73664601682E+01  0.20100594476E+02  0.12700000000E+01 0. -1.
          2    1    1    2  502    0 -0.22173876002E+02  0.73232521784E+02 -0.49518837964E+03  0.50106507996E+03  0.00000000000E+00 0. -1.
          1    1    1    2  503    0  0.53988851897E+02  0.11557524205E+03  0.21109623622E+04  0.21148131188E+04  0.00000000000E+00 0. -1.
<mgrwt>
<rscale>  0 0.99089098E+02</rscale>
<asrwt>0</asrwt>
<pdfrwt beam="1">  1        2 0.33956760E+00 0.12832169E+03</pdfrwt>
<pdfrwt beam="2">  1        1 0.98941629E-01 0.76515900E+02</pdfrwt>
<totfact> 0.28826405E+01</totfact>
</mgrwt>
</event>
<event>
 7    1  0.5277388E-004  0.1696189E+03  0.7546771E-02  0.1244498E+00
          2   -1    0    0  503    0  0.00000000000E+00  0.00000000000E+00  0.11194704086E+04  0.11194704086E+04  0.00000000000E+00 0. -1.
         -2   -1    0    0    0  501 -0.00000000000E+00 -0.00000000000E+00 -0.43460730948E+03  0.43460730948E+03  0.00000000000E+00 0.  1.
         25    2    1    2    0    0  0.48994029255E+02 -0.19286696196E+03  0.40138661648E+02  0.23839881030E+03  0.12499920271E+03 0.  0.
          4    1    3    3  502    0  0.51363147624E+02 -0.19590262397E+03  0.65391050176E+02  0.21282296248E+03  0.12700000000E+01 0. -1.
         -4    1    3    3    0  502 -0.23691183690E+01  0.30356620154E+01 -0.25252388529E+02  0.25575847828E+02  0.12700000000E+01 0. -1.
          1    1    1    2  503    0  0.55911931011E+02  0.62291815682E+02  0.95735421834E+03  0.96100651075E+03  0.00000000000E+00 0. -1.
         -1    1    1    2    0  501 -0.10490596027E+03  0.13057514628E+03 -0.31262978087E+03  0.35467239703E+03  0.00000000000E+00 0.  1.
<mgrwt>
<rscale>  0 0.11915468E+03</rscale>
<asrwt>0</asrwt>
<pdfrwt beam="1">  1        2 0.17222622E+00 0.83704327E+02</pdfrwt>
<pdfrwt beam="2">  1       -2 0.66862663E-01 0.16961892E+03</pdfrwt>
<totfact> 0.51172578E+01</totfact>
</mgrwt>
</event>
<event>
 7    1  0.5277388E-004  0.6711024E+02  0.7546771E-02  0.1409481E+00
         -1   -1    0    0    0  501 -0.00000000000E+00  0.00000000000E+00  0.29595338955E+02  0.29595338955E+02  0.00000000000E+00 0.  1.
          1   -1    0    0  503    0  0.00000000000E+00 -0.00000000000E+00 -0.12735224459E+04  0.12735224459E+04  0.00000000000E+00 0. -1.
         25    2    1    2    0    0 -0.50202822043E+01 -0.26538480087E+02 -0.86920092383E+03  0.87855710533E+03  0.12499138844E+03 0.  0.
          4    1    3    3  502    0  0.79727407504E+01  0.43400969704E+02 -0.53759877722E+03  0.53940825627E+03  0.12700000000E+01 0.  1.
         -4    1    3    3    0  502 -0.12993022955E+02 -0.69939449791E+02 -0.33160214661E+03  0.33914884906E+03  0.12700000000E+01 0.  1.
          2    1    1    2  503    0 -0.42175050408E+02 -0.24828300258E+02 -0.34546719155E+03  0.34891655135E+03  0.00000000000E+00 0. -1.
         -2    1    1    2    0  501  0.47195332612E+02  0.51366780345E+02 -0.29258991611E+02  0.75644128216E+02  0.00000000000E+00 0.  1.
<mgrwt>
<rscale>  0 0.57309803E+02</rscale>
<asrwt>0</asrwt>
<pdfrwt beam="2">  1        1 0.19592650E+00 0.48940570E+02</pdfrwt>
<pdfrwt beam="1">  1       -1 0.45531299E-02 0.67110243E+02</pdfrwt>
<totfact> 0.20854839E+03</totfact>
</mgrwt>
</event>
<event>
 7    1  0.5277388E-004  0.1227450E+03  0.7546771E-02  0.1412452E+00
          2   -1    0    0  503    0  0.00000000000E+00  0.00000000000E+00  0.39488838280E+04  0.39488838280E+04  0.00000000000E+00 0. -1.
          1   -1    0    0  502    0 -0.00000000000E+00 -0.00000000000E+00 -0.20121683905E+02  0.20121683905E+02  0.00000000000E+00 0. -1.
         25    2    1    2    0    0  0.11556136068E+03 -0.64756326875E+02  0.69355209775E+03  0.71706901709E+03  0.12500261206E+03 0.  0.
          4    1    3    3  501    0 -0.49987489031E+01 -0.40553180581E+02  0.34592915603E+03  0.34833624824E+03  0.12700000000E+01 0. -1.
         -4    1    3    3    0  501  0.12056010959E+03 -0.24203146294E+02  0.34762294173E+03  0.36873276886E+03  0.12700000000E+01 0. -1.
          2    1    1    2  502    0 -0.22212811435E+02 -0.13790953451E+02  0.16503402753E+02  0.30918630167E+02  0.00000000000E+00 0. -1.
          1    1    1    2  503    0 -0.93348549247E+02  0.78547280326E+02  0.32187066436E+04  0.32210178647E+04  0.00000000000E+00 0. -1.
<mgrwt>
<rscale>  0 0.56650312E+02</rscale>
<asrwt>0</asrwt>
<pdfrwt beam="1">  1        2 0.60751997E+00 0.12274499E+03</pdfrwt>
<pdfrwt beam="2">  1        1 0.30956468E-02 0.26145734E+02</pdfrwt>
<totfact> 0.19198332E+02</totfact>
</mgrwt>
</event>
<event>
 7    1  0.5277388E-004  0.8534317E+02  0.7546771E-02  0.1343089E+00
          2   -1    0    0  503    0  0.00000000000E+00  0.00000000000E+00  0.13048969339E+04  0.13048969339E+04  0.00000000000E+00 0. -1.
         -2   -1    0    0    0  501 -0.00000000000E+00 -0.00000000000E+00 -0.21938690191E+03  0.21938690191E+03  0.00000000000E+00 0.  1.
         25    2    1    2    0    0 -0.60459041480E+02 -0.27178508755E+02 -0.46368799524E+02  0.14888733027E+03  0.12499361789E+03 0.  0.
          4    1    3    3  502    0 -0.72049523274E+02 -0.21849996276E+02  0.22693075999E+02  0.78645691169E+02  0.12700000000E+01 0.  1.
         -4    1    3    3    0  502  0.11590481793E+02 -0.53285124789E+01 -0.69061875523E+02  0.70241639105E+02  0.12700000000E+01 0.  1.
          1    1    1    2  503    0  0.21277594823E+02 -0.62852042202E+02  0.12328046476E+04  0.12345891683E+04  0.00000000000E+00 0. -1.
         -1    1    1    2    0  501  0.39181446658E+02  0.90030550957E+02 -0.10092581610E+03  0.14080733725E+03  0.00000000000E+00 0.  1.
<mgrwt>
<rscale>  0 0.75253101E+02</rscale>
<asrwt>0</asrwt>
<pdfrwt beam="1">  1        2 0.20075337E+00 0.66355974E+02</pdfrwt>
<pdfrwt beam="2">  1       -2 0.33751832E-01 0.85343172E+02</pdfrwt>
<totfact> 0.15717434E+02</totfact>
</mgrwt>
</event>
<event>
 7    1  0.5277388E-004  0.1302725E+03  0.7546771E-02  0.1307554E+00
          2   -1    0    0  503    0  0.00000000000E+00  0.00000000000E+00  0.37870931770E+04  0.37870931770E+04  0.00000000000E+00 0. -1.
          1   -1    0    0  502    0 -0.00000000000E+00 -0.00000000000E+00 -0.44428217195E+02  0.44428217195E+02  0.00000000000E+00 0. -1.
         25    2    1    2    0    0  0.18371065967E+02  0.78517819508E+02  0.30155199520E+03  0.33624404279E+03  0.12499562576E+03 0.  0.
          4    1    3    3  501    0 -0.73833285255E+01  0.23524195466E+02 -0.37387433989E+01  0.24969830089E+02  0.12700000000E+01 0. -1.
         -4    1    3    3    0  501  0.25754394493E+02  0.54993624042E+02  0.30529073860E+03  0.31127421271E+03  0.12700000000E+01 0. -1.
          2    1    1    2  502    0 -0.21200608477E+02  0.55659968219E+02  0.86430489171E+01  0.60184716968E+02  0.00000000000E+00 0. -1.
          1    1    1    2  503    0  0.28295425094E+01 -0.13417778773E+03  0.34324699156E+04  0.34350926344E+04  0.00000000000E+00 0. -1.
<mgrwt>
<rscale>  0 0.88086017E+02</rscale>
<asrwt>0</asrwt>
<pdfrwt beam="1">  1        2 0.58262946E+00 0.13027254E+03</pdfrwt>
<pdfrwt beam="2">  1        1 0.68351133E-02 0.59560875E+02</pdfrwt>
<totfact> 0.96653944E+01</totfact>
</mgrwt>
</event>
<event>
 7    1  0.5277388E-004  0.9491532E+02  0.7546771E-02  0.1435986E+00
          1   -1    0    0  502    0 -0.00000000000E+00  0.00000000000E+00  0.50257337396E+03  0.50257337396E+03  0.00000000000E+00 0. -1.
          2   -1    0    0  503    0  0.00000000000E+00 -0.00000000000E+00 -0.61329188067E+02  0.61329188067E+02  0.00000000000E+00 0. -1.
         25    2    1    2    0    0  0.67739824471E+01 -0.80572834234E+02  0.10355395558E+03  0.18134359459E+03  0.12499683646E+03 0.  0.
          4    1    3    3  501    0  0.19376038017E+02 -0.10895089139E+03  0.54712032582E+02  0.12345342034E+03  0.12700000000E+01 0. -1.
         -4    1    3    3    0  501 -0.12602055570E+02  0.28378057153E+02  0.48841922999E+02  0.57890174250E+02  0.12700000000E+01 0. -1.
          2    1    1    2  502    0  0.90799245091E+01 -0.26745524938E+02  0.22265662473E+03  0.22444095141E+03  0.00000000000E+00 0. -1.
          1    1    1    2  503    0 -0.15853906956E+02  0.10731835917E+03  0.11503360558E+03  0.15811801603E+03  0.00000000000E+00 0. -1.
<mgrwt>
<rscale>  0 0.51777052E+02</rscale>
<asrwt>0</asrwt>
<pdfrwt beam="2">  1        2 0.94352600E-02 0.94915317E+02</pdfrwt>
<pdfrwt beam="1">  1        1 0.77318978E-01 0.28244789E+02</pdfrwt>
<totfact> 0.41393883E+03</totfact>
</mgrwt>
</event>
<event>
 7    1  0.5277388E-004  0.1301205E+03  0.7546771E-02  0.1343328E+00
          2   -1    0    0  503    0  0.00000000000E+00  0.00000000000E+00  0.47929039517E+03  0.47929039517E+03  0.00000000000E+00 0. -1.
          1   -1    0    0  502    0 -0.00000000000E+00 -0.00000000000E+00 -0.43596789829E+03  0.43596789829E+03  0.00000000000E+00 0. -1.
         25    2    1    2    0    0  0.74504071542E+02 -0.59656476945E+02  0.22153000301E+03  0.27168156135E+03  0.12500230648E+03 0.  0.
          4    1    3    3  501    0  0.99577336188E+02 -0.39825041325E+02  0.21314363938E+03  0.23860742593E+03  0.12700000000E+01 0.  1.
         -4    1    3    3    0  501 -0.25073264646E+02 -0.19831435621E+02  0.83863636279E+01  0.33074135419E+02  0.12700000000E+01 0.  1.
          2    1    1    2  502    0 -0.11792425940E+03  0.58647111381E+02 -0.39816014451E+03  0.41937705624E+03  0.00000000000E+00 0. -1.
          1    1    1    2  503    0  0.43420187863E+02  0.10093655648E+01  0.21995263837E+03  0.22419967587E+03  0.00000000000E+00 0. -1.
<mgrwt>
<rscale>  0 0.75175683E+02</rscale>
<asrwt>0</asrwt>
<pdfrwt beam="1">  1        2 0.73736983E-01 0.43431918E+02</pdfrwt>
<pdfrwt beam="2">  1        1 0.67071985E-01 0.13012051E+03</pdfrwt>
<totfact> 0.49954593E+02</totfact>
</mgrwt>
</event>
<event>
 7    1  0.5277388E-004  0.3362769E+02  0.7546771E-02  0.1575113E+00
         -2   -1    0    0    0  501 -0.00000000000E+00  0.00000000000E+00  0.28106008325E+03  0.28106008325E+03  0.00000000000E+00 0.  1.
          2   -1    0    0  503    0  0.00000000000E+00 -0.00000000000E+00 -0.76708540004E+03  0.76708540004E+03  0.00000000000E+00 0. -1.
         25    2    1    2    0    0 -0.11090435205E+01  0.16519470391E+02 -0.51814007039E+03  0.53325639692E+03  0.12497651554E+03 0.  0.
          4    1    3    3  502    0  0.34269415126E+02  0.25588718317E+02 -0.60179799776E+02  0.73840344794E+02  0.12700000000E+01 0. -1.
         -4    1    3    3    0  502 -0.35378458646E+02 -0.90692479257E+01 -0.45796027061E+03  0.45941605213E+03  0.12700000000E+01 0. -1.
          1    1    1    2  503    0 -0.28290134825E+02 -0.25721284087E+02 -0.23899531150E+03  0.24203445024E+03  0.00000000000E+00 0. -1.
         -1    1    1    2    0  501  0.29399178346E+02  0.92018136962E+01  0.27111006510E+03  0.27285463613E+03  0.00000000000E+00 0.  1.
<mgrwt>
<rscale>  0 0.32185728E+02</rscale>
<asrwt>0</asrwt>
<pdfrwt beam="2">  1        2 0.11801314E+00 0.33627686E+02</pdfrwt>
<pdfrwt beam="1">  1       -2 0.43240014E-01 0.30805601E+02</pdfrwt>
<totfact> 0.20447054E+02</totfact>
</mgrwt>
</event>
<event>
 7    1  0.5277388E-004  0.4991890E+02  0.7546771E-02  0.1517418E+00
         -2   -1    0    0    0  501 -0.00000000000E+00  0.00000000000E+00  0.66608955461E+02  0.66608955461E+02  0.00000000000E+00 0.  1.
          2   -1    0    0  503    0  0.00000000000E+00 -0.00000000000E+00 -0.47489126378E+03  0.47489126378E+03  0.00000000000E+00 0. -1.
         25    2    1    2    0    0 -0.56372698227E+02 -0.51788852404E+02 -0.47401308960E+02  0.15404937717E+03  0.12499744069E+03 0.  0.
          4    1    3    3  502    0 -0.86972410134E+02 -0.67326364336E+02 -0.47234722108E+02  0.11970702290E+03  0.12700000000E+01 0.  1.
         -4    1    3    3    0  502  0.30599711907E+02  0.15537511932E+02 -0.16658685143E+00  0.34342354273E+02  0.12700000000E+01 0.  1.
          1    1    1    2  503    0  0.28722412490E+02  0.39843801709E+02 -0.35288576625E+03  0.35628762192E+03  0.00000000000E+00 0. -1.
         -1    1    1    2    0  501  0.27650285737E+02  0.11945050695E+02 -0.79952331134E+01  0.31163220148E+02  0.00000000000E+00 0.  1.
<mgrwt>
<rscale>  0 0.38775815E+02</rscale>
<asrwt>0</asrwt>
<pdfrwt beam="2">  1        2 0.73060192E-01 0.49918895E+02</pdfrwt>
<pdfrwt beam="1">  1       -2 0.10247532E-01 0.30120135E+02</pdfrwt>
<totfact> 0.36740363E+03</totfact>
</mgrwt>
</event>
<event>
 7    1  0.5277388E-004  0.2278318E+03  0.7546771E-02  0.1316105E+00
          2   -1    0    0  503    0  0.00000000000E+00  0.00000000000E+00  0.10628811603E+04  0.10628811603E+04  0.00000000000E+00 0. -1.
          1   -1    0    0  502    0 -0.00000000000E+00 -0.00000000000E+00 -0.59157539116E+03  0.59157539116E+03  0.00000000000E+00 0. -1.
         25    2    1    2    0    0  0.20899469885E+03 -0.14052317248E+03 -0.95177087134E+02  0.29683247473E+03  0.12500117594E+03 0.  0.
          4    1    3    3  501    0  0.11482571419E+03 -0.14697908892E+03 -0.68984547470E+02  0.19886748831E+03  0.12700000000E+01 0.  1.
         -4    1    3    3    0  501  0.94168984666E+02  0.64559164401E+01 -0.26192539664E+02  0.97964986420E+02  0.12700000000E+01 0.  1.
          2    1    1    2  502    0 -0.12076826209E+02  0.29115590130E+02 -0.38160998829E+03  0.38290958525E+03  0.00000000000E+00 0. -1.
          1    1    1    2  503    0 -0.19691787265E+03  0.11140758235E+03  0.94809284456E+03  0.97471449147E+03  0.00000000000E+00 0. -1.
<mgrwt>
<rscale>  0 0.84743518E+02</rscale>
<asrwt>0</asrwt>
<pdfrwt beam="1">  1        2 0.16352018E+00 0.22783179E+03</pdfrwt>
<pdfrwt beam="2">  1        1 0.91011599E-01 0.31520903E+02</pdfrwt>
<totfact> 0.12798529E+02</totfact>
</mgrwt>
</event>
<event>
 7    1  0.5277388E-004  0.5116799E+02  0.7546771E-02  0.1529682E+00
          2   -1    0    0  503    0  0.00000000000E+00  0.00000000000E+00  0.50313513742E+03  0.50313513742E+03  0.00000000000E+00 0. -1.
         -2   -1    0    0    0  501 -0.00000000000E+00 -0.00000000000E+00 -0.23564049882E+03  0.23564049882E+03  0.00000000000E+00 0.  1.
         25    2    1    2    0    0  0.25773294504E+02  0.36865637175E+02 -0.19350662017E+03  0.23471939172E+03  0.12500017155E+03 0.  0.
          4    1    3    3  502    0  0.40489964007E+02  0.41791590942E+02 -0.21557996349E+02  0.62067176231E+02  0.12700000000E+01 0. -1.
         -4    1    3    3    0  502 -0.14716669502E+02 -0.49259537669E+01 -0.17194862382E+03  0.17265221549E+03  0.12700000000E+01 0. -1.
          1    1    1    2  503    0  0.25121679745E+02  0.10116017187E+02  0.42524594692E+03  0.42610743711E+03  0.00000000000E+00 0. -1.
         -1    1    1    2    0  501 -0.50894974249E+02 -0.46981654362E+02  0.35755311854E+02  0.77948807407E+02  0.00000000000E+00 0.  1.
<mgrwt>
<rscale>  0 0.37225387E+02</rscale>
<asrwt>0</asrwt>
<pdfrwt beam="1">  1        2 0.77405406E-01 0.27081961E+02</pdfrwt>
<pdfrwt beam="2">  1       -2 0.36252384E-01 0.51167988E+02</pdfrwt>
<totfact> 0.45132704E+02</totfact>
</mgrwt>
</event>
<event>
 7    1  0.5277388E-004  0.6516580E+02  0.7546771E-02  0.1415182E+00
          2   -1    0    0  503    0  0.00000000000E+00  0.00000000000E+00  0.30707690832E+04  0.30707690832E+04  0.00000000000E+00 0. -1.
          1   -1    0    0  502    0 -0.00000000000E+00 -0.00000000000E+00 -0.37839088071E+03  0.37839088071E+03  0.00000000000E+00 0. -1.
         25    2    1    2    0    0 -0.10005495938E+03  0.47934160524E+02 -0.36353845958E+02  0.17104185331E+03  0.12500013930E+03 0.  0.
          4    1    3    3  501    0 -0.45232171991E+02  0.86006744639E+02 -0.37777863051E+02  0.10426835255E+03  0.12700000000E+01 0.  1.
         -4    1    3    3    0  501 -0.54822787392E+02 -0.38072584116E+02  0.14240170928E+01  0.66773500757E+02  0.12700000000E+01 0.  1.
          2    1    1    2  502    0  0.56624488133E+02 -0.26993966138E+02 -0.27091549189E+03  0.27808310018E+03  0.00000000000E+00 0. -1.
          1    1    1    2  503    0  0.43430471250E+02 -0.20940194386E+02  0.29996475403E+04  0.30000350104E+04  0.00000000000E+00 0. -1.
<mgrwt>
<rscale>  0 0.56053338E+02</rscale>
<asrwt>0</asrwt>
<pdfrwt beam="1">  1        2 0.47242600E+00 0.48215118E+02</pdfrwt>
<pdfrwt beam="2">  1        1 0.58213983E-01 0.65165799E+02</pdfrwt>
<totfact> 0.22724910E+01</totfact>
</mgrwt>
</event>
<event>
 7    1  0.5277388E-004  0.1847124E+03  0.7546771E-02  0.1249872E+00
          1   -1    0    0  502    0 -0.00000000000E+00  0.00000000000E+00  0.49773276084E+03  0.49773276084E+03  0.00000000000E+00 0. -1.
          2   -1    0    0  503    0  0.00000000000E+00 -0.00000000000E+00 -0.20146470453E+03  0.20146470453E+03  0.00000000000E+00 0. -1.
         25    2    1    2    0    0  0.20039044379E+03  0.97446047929E+02  0.69116738880E+02  0.26466939649E+03  0.12498281334E+03 0.  0.
          4    1    3    3  501    0  0.18466939123E+03  0.31421201094E+02  0.45271421026E+02  0.19272049813E+03  0.12700000000E+01 0. -1.
         -4    1    3    3    0  501  0.15721052555E+02  0.66024846834E+02  0.23845317854E+02  0.71948898369E+02  0.12700000000E+01 0. -1.
          2    1    1    2  502    0 -0.17428447972E+03 -0.29456365264E+02  0.28914144452E+03  0.33888867237E+03  0.00000000000E+00 0. -1.
          1    1    1    2  503    0 -0.26105964068E+02 -0.67989682664E+02 -0.61990127087E+02  0.95639396511E+02  0.00000000000E+00 0. -1.
<mgrwt>
<rscale>  0 0.11598486E+03</rscale>
<asrwt>0</asrwt>
<pdfrwt beam="2">  1        2 0.30994570E-01 0.72829378E+02</pdfrwt>
<pdfrwt beam="1">  1        1 0.76574270E-01 0.18471238E+03</pdfrwt>
<totfact> 0.10275490E+03</totfact>
</mgrwt>
</event>
<event>
 7    1  0.5277388E-004  0.1249935E+03  0.7546771E-02  0.1270511E+00
          2   -1    0    0  503    0  0.00000000000E+00  0.00000000000E+00  0.23533258460E+03  0.23533258460E+03  0.00000000000E+00 0. -1.
          1   -1    0    0  502    0 -0.00000000000E+00 -0.00000000000E+00 -0.36758417941E+04  0.36758417941E+04  0.00000000000E+00 0. -1.
         25    2    1    2    0    0 -0.81040966131E+02  0.34411159493E+01 -0.12005730808E+04  0.12097849339E+04  0.12499753756E+03 0.  0.
          4    1    3    3  501    0 -0.64147204418E+01  0.37906688810E+02 -0.79677906479E+03  0.79770706195E+03  0.12700000000E+01 0.  1.
         -4    1    3    3    0  501 -0.74626245689E+02 -0.34465572860E+02 -0.40379401599E+03  0.41207787190E+03  0.12700000000E+01 0.  1.
          2    1    1    2  502    0  0.13597888971E+03  0.65139313590E+02 -0.24599035648E+04  0.24645200216E+04  0.00000000000E+00 0. -1.
          1    1    1    2  503    0 -0.54937923578E+02 -0.68580429540E+02  0.21996743606E+03  0.23686942329E+03  0.00000000000E+00 0. -1.
<mgrwt>
<rscale>  0 0.10480172E+03</rscale>
<asrwt>0</asrwt>
<pdfrwt beam="1">  1        2 0.36205016E-01 0.87871786E+02</pdfrwt>
<pdfrwt beam="2">  1        1 0.56551407E+00 0.12499348E+03</pdfrwt>
<totfact> 0.51048126E+00</totfact>
</mgrwt>
</event>
<event>
 7    1  0.5277388E-004  0.4712349E+02  0.7546771E-02  0.1557550E+00
          2   -1    0    0  503    0  0.00000000000E+00  0.00000000000E+00  0.12368752649E+03  0.12368752649E+03  0.00000000000E+00 0. -1.
          1   -1    0    0  502    0 -0.00000000000E+00 -0.00000000000E+00 -0.16056528075E+03  0.16056528075E+03  0.00000000000E+00 0. -1.
         25    2    1    2    0    0  0.56194247200E+02  0.31570114935E+02 -0.24514030597E+02  0.14276184549E+03  0.12500216500E+03 0.  0.
          4    1    3    3  501    0  0.46118668384E+02  0.62381352736E+02  0.26771079137E+02  0.82077209510E+02  0.12700000000E+01 0.  1.
         -4    1    3    3    0  501  0.10075578816E+02 -0.30811237802E+02 -0.51285109734E+02  0.60684635978E+02  0.12700000000E+01 0.  1.
          2    1    1    2  502    0 -0.44209340237E+02 -0.10145396181E+02 -0.67392234766E+02  0.81234894809E+02  0.00000000000E+00 0. -1.
          1    1    1    2  503    0 -0.11984906963E+02 -0.21424718754E+02  0.55028511111E+02  0.60256066945E+02  0.00000000000E+00 0. -1.
<mgrwt>
<rscale>  0 0.34012315E+02</rscale>
<asrwt>0</asrwt>
<pdfrwt beam="1">  1        2 0.19028850E-01 0.24549065E+02</pdfrwt>
<pdfrwt beam="2">  1        1 0.24702351E-01 0.47123489E+02</pdfrwt>
<totfact> 0.66402915E+03</totfact>
</mgrwt>
</event>
<event>
 7    1  0.5277388E-004  0.1206781E+03  0.7546771E-02  0.1363099E+00
          1   -1    0    0  502    0 -0.00000000000E+00  0.00000000000E+00  0.67702926692E+03  0.67702926692E+03  0.00000000000E+00 0. -1.
          2   -1    0    0  503    0  0.00000000000E+00 -0.00000000000E+00 -0.36341419899E+03  0.36341419899E+03  0.00000000000E+00 0. -1.
         25    2    1    2    0    0 -0.84042785815E+02 -0.78765506023E+02  0.53819930265E+03  0.56440178114E+03  0.12499474547E+03 0.  0.
          4    1    3    3  501    0 -0.69222640784E+02 -0.98471021282E+02  0.27682776405E+03  0.30186675849E+03  0.12700000000E+01 0.  1.
         -4    1    3    3    0  501 -0.14820145031E+02  0.19705515259E+02  0.26137153859E+03  0.26253502265E+03  0.12700000000E+01 0.  1.
          2    1    1    2  502    0  0.12227940754E+03  0.68488717977E+02  0.85014147199E+02  0.16392182046E+03  0.00000000000E+00 0. -1.
          1    1    1    2  503    0 -0.38236621723E+02  0.10276788046E+02 -0.30959838191E+03  0.31211986431E+03  0.00000000000E+00 0. -1.
<mgrwt>
<rscale>  0 0.69123649E+02</rscale>
<asrwt>0</asrwt>
<pdfrwt beam="2">  1        2 0.55909877E-01 0.39593580E+02</pdfrwt>
<pdfrwt beam="1">  1        1 0.10415835E+00 0.12067812E+03</pdfrwt>
<totfact> 0.37025717E+02</totfact>
</mgrwt>
</event>
<event>
 7    1  0.5277388E-004  0.1762491E+03  0.7546771E-02  0.1282662E+00
          1   -1    0    0  502    0 -0.00000000000E+00  0.00000000000E+00  0.35363992335E+03  0.35363992335E+03  0.00000000000E+00 0. -1.
          2   -1    0    0  503    0  0.00000000000E+00 -0.00000000000E+00 -0.12323224935E+04  0.12323224935E+04  0.00000000000E+00 0. -1.
         25    2    1    2    0    0 -0.64010104685E+01  0.20005913049E+03  0.90286645394E+02  0.25266861583E+03  0.12500048984E+03 0.  0.
          4    1    3    3  501    0 -0.50574937292E+01  0.15361706242E+03  0.12213748897E+03  0.19632360842E+03  0.12700000000E+01 0. -1.
         -4    1    3    3    0  501 -0.13435167392E+01  0.46442068068E+02 -0.31850843575E+02  0.56345007411E+02  0.12700000000E+01 0. -1.
          2    1    1    2  502    0 -0.34925304203E+02 -0.16304656367E+03  0.14316724319E+03  0.21977447150E+03  0.00000000000E+00 0. -1.
          1    1    1    2  503    0  0.41326314671E+02 -0.37012566819E+02 -0.11121364587E+04  0.11135193295E+04  0.00000000000E+00 0. -1.
<mgrwt>
<rscale>  0 0.98883391E+02</rscale>
<asrwt>0</asrwt>
<pdfrwt beam="2">  1        2 0.18958807E+00 0.55477873E+02</pdfrwt>
<pdfrwt beam="1">  1        1 0.54406142E-01 0.17624910E+03</pdfrwt>
<totfact> 0.20712131E+02</totfact>
</mgrwt>
</event>
<event>
 7    1  0.5277388E-004  0.8218783E+02  0.7546771E-02  0.1357762E+00
          2   -1    0    0  503    0  0.00000000000E+00  0.00000000000E+00  0.23350588040E+04  0.23350588040E+04  0.00000000000E+00 0. -1.
          1   -1    0    0  502    0 -0.00000000000E+00 -0.00000000000E+00 -0.15800919970E+04  0.15800919970E+04  0.00000000000E+00 0. -1.
         25    2    1    2    0    0  0.60564588390E+02 -0.96307277444E+02  0.35445451290E+03  0.39270357428E+03  0.12503973160E+03 0.  0.
          4    1    3    3  501    0  0.48947058370E+02 -0.99365148859E+02  0.14291361476E+03  0.18081803426E+03  0.12700000000E+01 0. -1.
         -4    1    3    3    0  501  0.11617530020E+02  0.30578714150E+01  0.21154089814E+03  0.21188554002E+03  0.12700000000E+01 0. -1.
          2    1    1    2  502    0 -0.73400880995E+02  0.36876959480E+02 -0.15594150378E+04  0.15615770424E+04  0.00000000000E+00 0. -1.
          1    1    1    2  503    0  0.12836292605E+02  0.59430317964E+02  0.19599273319E+04  0.19608701842E+04  0.00000000000E+00 0. -1.
<mgrwt>
<rscale>  0 0.70690051E+02</rscale>
<asrwt>0</asrwt>
<pdfrwt beam="1">  1        2 0.35923982E+00 0.60800766E+02</pdfrwt>
<pdfrwt beam="2">  1        1 0.24309108E+00 0.82187834E+02</pdfrwt>
<totfact> 0.58177979E+00</totfact>
</mgrwt>
</event>
<event>
 7    1  0.5277388E-004  0.1127370E+03  0.7546771E-02  0.1260492E+00
          1   -1    0    0  502    0 -0.00000000000E+00  0.00000000000E+00  0.45276906630E+03  0.45276906630E+03  0.00000000000E+00 0. -1.
          2   -1    0    0  503    0  0.00000000000E+00 -0.00000000000E+00 -0.51972177647E+03  0.51972177647E+03  0.00000000000E+00 0. -1.
         25    2    1    2    0    0  0.13792344306E+03  0.12460362783E+03  0.25338131856E+02  0.22540491628E+03  0.12496565585E+03 0.  0.
          4    1    3    3  501    0  0.60090550874E+02 -0.16610619538E+02  0.12901235988E+02  0.63677639528E+02  0.12700000000E+01 0. -1.
         -4    1    3    3    0  501  0.77832892190E+02  0.14121424737E+03  0.12436895868E+02  0.16172727675E+03  0.12700000000E+01 0. -1.
          2    1    1    2  502    0 -0.10580260808E+03 -0.22107145177E+02  0.31125574367E+03  0.32948908284E+03  0.00000000000E+00 0. -1.
          1    1    1    2  503    0 -0.32120834988E+02 -0.10249648266E+03 -0.40354658569E+03  0.41759684364E+03  0.00000000000E+00 0. -1.
<mgrwt>
<rscale>  0 0.11004215E+03</rscale>
<asrwt>0</asrwt>
<pdfrwt beam="2">  1        2 0.79957197E-01 0.10741172E+03</pdfrwt>
<pdfrwt beam="1">  1        1 0.69656779E-01 0.11273699E+03</pdfrwt>
<totfact> 0.43277453E+02</totfact>
</mgrwt>
</event>
<event>
 7    1  0.5277388E-004  0.1455382E+03  0.7546771E-02  0.1279069E+00
          2   -1    0    0  503    0  0.00000000000E+00  0.00000000000E+00  0.71214957172E+03  0.71214957172E+03  0.00000000000E+00 0. -1.
          1   -1    0    0  502    0 -0.00000000000E+00 -0.00000000000E+00 -0.25137482580E+03  0.25137482580E+03  0.00000000000E+00 0. -1.
         25    2    1    2    0    0  0.18842418715E+03  0.60721901762E+02  0.14144033892E+02  0.23455336804E+03  0.12499762042E+03 0.  0.
          4    1    3    3  501    0  0.89963199638E+02  0.60618269843E+02 -0.47445980219E+02  0.11840897714E+03  0.12700000000E+01 0. -1.
         -4    1    3    3    0  501  0.98460987509E+02  0.10363191957E+00  0.61590014111E+02  0.11614439091E+03  0.12700000000E+01 0. -1.
          2    1    1    2  502    0 -0.11893854925E+03 -0.58608818941E+02 -0.10737621711E+03  0.17061953041E+03  0.00000000000E+00 0. -1.
          1    1    1    2  503    0 -0.69485637898E+02 -0.21130828209E+01  0.55400692913E+03  0.55835149908E+03  0.00000000000E+00 0. -1.
<mgrwt>
<rscale>  0 0.10058572E+03</rscale>
<asrwt>0</asrwt>
<pdfrwt beam="1">  1        2 0.10956147E+00 0.69517760E+02</pdfrwt>
<pdfrwt beam="2">  1        1 0.38673050E-01 0.14553816E+03</pdfrwt>
<totfact> 0.63806069E+02</totfact>
</mgrwt>
</event>
<event>
 7    1  0.5277388E-004  0.5863263E+02  0.7546771E-02  0.1526982E+00
          2   -1    0    0  503    0  0.00000000000E+00  0.00000000000E+00  0.21877852365E+04  0.21877852365E+04  0.00000000000E+00 0. -1.
          1   -1    0    0  502    0 -0.00000000000E+00 -0.00000000000E+00 -0.13780953585E+03  0.13780953585E+03  0.00000000000E+00 0. -1.
         25    2    1    2    0    0 -0.55110073813E+02  0.17423428804E+02  0.42178334337E+03  0.44369332997E+03  0.12498754420E+03 0.  0.
          4    1    3    3  501    0 -0.51618672818E+02  0.26763021708E+02  0.66808284547E+02  0.88575992789E+02  0.12700000000E+01 0. -1.
         -4    1    3    3    0  501 -0.34914009947E+01 -0.93395929037E+01  0.35497505882E+03  0.35511733718E+03  0.12700000000E+01 0. -1.
          2    1    1    2  502    0  0.58370549483E+02  0.64144681646E+01 -0.11997161614E+03  0.13357190995E+03  0.00000000000E+00 0. -1.
          1    1    1    2  503    0 -0.32604756700E+01 -0.23837896968E+02  0.17481639735E+04  0.17483295325E+04  0.00000000000E+00 0. -1.
<mgrwt>
<rscale>  0 0.37559177E+02</rscale>
<asrwt>0</asrwt>
<pdfrwt beam="1">  1        2 0.33658232E+00 0.24059843E+02</pdfrwt>
<pdfrwt beam="2">  1        1 0.21201469E-01 0.58632627E+02</pdfrwt>
<totfact> 0.24515521E+02</totfact>
</mgrwt>
</event>
<event>
 7    1  0.5277388E-004  0.1517287E+03  0.7546771E-02  0.1244570E+00
          2   -1    0    0  503    0  0.00000000000E+00  0.00000000000E+00  0.17324171862E+04  0.17324171862E+04  0.00000000000E+00 0. -1.
          1   -1    0    0  502    0 -0.00000000000E+00 -0.00000000000E+00 -0.42050415753E+03  0.42050415753E+03  0.00000000000E+00 0. -1.
         25    2    1    2    0    0  0.12711543664E+03 -0.98009375614E+02  0.42116039349E+02  0.20775634072E+03  0.12499905759E+03 0.  0.
          4    1    3    3  501    0 -0.50172277755E+01 -0.10489591284E+02 -0.31056818192E+02  0.33186487552E+02  0.12700000000E+01 0. -1.
         -4    1    3    3    0  501  0.13213266442E+03 -0.87519784330E+02  0.73172857540E+02  0.17456985317E+03  0.12700000000E+01 0. -1.
          2    1    1    2  502    0 -0.47215545864E+02  0.14658265300E+03 -0.31867968589E+03  0.35393858808E+03  0.00000000000E+00 0. -1.
          1    1    1    2  503    0 -0.79899890780E+02 -0.48573277386E+02  0.15884766753E+04  0.15912264150E+04  0.00000000000E+00 0. -1.
<mgrwt>
<rscale>  0 0.11911141E+03</rscale>
<asrwt>0</asrwt>
<pdfrwt beam="1">  1        2 0.26652572E+00 0.93505913E+02</pdfrwt>
<pdfrwt beam="2">  1        1 0.64692948E-01 0.15172868E+03</pdfrwt>
<totfact> 0.88900506E+01</totfact>
</mgrwt>
</event>
<event>
 7    1  0.5277388E-004  0.1233444E+03  0.7546771E-02  0.1334728E+00
          2   -1    0    0  503    0  0.00000000000E+00  0.00000000000E+00  0.21541914574E+03  0.21541914574E+03  0.00000000000E+00 0. -1.
         -2   -1    0    0    0  501 -0.00000000000E+00 -0.00000000000E+00 -0.15335779342E+04  0.15335779342E+04  0.00000000000E+00 0.  1.
         25    2    1    2    0    0 -0.44086911842E+02 -0.16008776897E+03 -0.93651855855E+02  0.22796508244E+03  0.12500263651E+03 0.  0.
          4    1    3    3  502    0  0.50316508169E-01 -0.61889692371E+02 -0.10270350780E+03  0.11991647079E+03  0.12700000000E+01 0. -1.
         -4    1    3    3    0  502 -0.44137228350E+02 -0.98198076604E+02  0.90516519436E+01  0.10804861164E+03  0.12700000000E+01 0. -1.
          1    1    1    2  503    0  0.36867075453E+02  0.11125162271E+03  0.12457852533E+03  0.17104360199E+03  0.00000000000E+00 0. -1.
         -1    1    1    2    0  501  0.72198363886E+01  0.48836146260E+02 -0.13490854580E+04  0.13499883956E+04  0.00000000000E+00 0.  1.
<mgrwt>
<rscale>  0 0.78032922E+02</rscale>
<asrwt>0</asrwt>
<pdfrwt beam="1">  1        2 0.33141408E-01 0.12334441E+03</pdfrwt>
<pdfrwt beam="2">  1       -2 0.23593506E+00 0.49366945E+02</pdfrwt>
<totfact> 0.15661244E+01</totfact>
</mgrwt>
</event>
<event>
 7    1  0.5277388E-004  0.1607914E+03  0.7546771E-02  0.1315191E+00
          1   -1    0    0  502    0 -0.00000000000E+00  0.00000000000E+00  0.19817783710E+04  0.19817783710E+04  0.00000000000E+00 0. -1.
          2   -1    0    0  503    0  0.00000000000E+00 -0.00000000000E+00 -0.35915763998E+04  0.35915763998E+04  0.00000000000E+00 0. -1.
         25    2    1    2    0    0 -0.25365209034E+02  0.13261224409E+03 -0.32475033583E+03  0.37325276073E+03  0.12500176661E+03 0.  0.
          4    1    3    3  501    0 -0.42222893545E+02  0.15006439435E+03 -0.24972840654E+03  0.29439426815E+03  0.12700000000E+01 0. -1.
         -4    1    3    3    0  501  0.16857684512E+02 -0.17452150258E+02 -0.75021929296E+02  0.78858492574E+02  0.12700000000E+01 0. -1.
          2    1    1    2  502    0  0.33152084855E+02  0.30476485857E+02  0.19552123824E+04  0.19557308960E+04  0.00000000000E+00 0. -1.
          1    1    1    2  503    0 -0.77868758214E+01 -0.16308872995E+03 -0.32402600755E+04  0.32443711141E+04  0.00000000000E+00 0. -1.
<mgrwt>
<rscale>  0 0.85092600E+02</rscale>
<asrwt>0</asrwt>
<pdfrwt beam="2">  1        2 0.55255021E+00 0.16079139E+03</pdfrwt>
<pdfrwt beam="1">  1        1 0.30488898E+00 0.45031954E+02</pdfrwt>
<totfact> 0.57504259E-01</totfact>
</mgrwt>
</event>
<event>
 7    1  0.5277388E-004  0.5956774E+02  0.7546771E-02  0.1503676E+00
          2   -1    0    0  503    0  0.00000000000E+00  0.00000000000E+00  0.89258998979E+02  0.89258998979E+02  0.00000000000E+00 0. -1.
         -2   -1    0    0    0  501 -0.00000000000E+00 -0.00000000000E+00 -0.20542786426E+03  0.20542786426E+03  0.00000000000E+00 0.  1.
         25    2    1    2    0    0 -0.48443878578E+02  0.49368570103E+02 -0.17399142312E+02  0.14392075432E+03  0.12500555302E+03 0.  0.
          4    1    3    3  502    0 -0.76098297990E+02  0.18181532871E+02 -0.48354923889E+02  0.91985491567E+02  0.12700000000E+01 0. -1.
         -4    1    3    3    0  502  0.27654419412E+02  0.31187037232E+02  0.30955781576E+02  0.51935262754E+02  0.12700000000E+01 0. -1.
          3    1    1    2  503    0 -0.61645184108E+01 -0.27008868404E+02  0.79476437648E+01  0.28820917770E+02  0.00000000000E+00 0. -1.
         -3    1    1    2    0  501  0.54608396989E+02 -0.22359701698E+02 -0.10671736674E+03  0.12194519115E+03  0.00000000000E+00 0.  1.
<mgrwt>
<rscale>  0 0.40623036E+02</rscale>
<asrwt>0</asrwt>
<pdfrwt beam="1">  1        2 0.13732154E-01 0.27703434E+02</pdfrwt>
<pdfrwt beam="2">  1       -2 0.31604286E-01 0.59567745E+02</pdfrwt>
<totfact> 0.34525248E+03</totfact>
</mgrwt>
</event>
<event>
 7    1  0.5277388E-004  0.1256227E+03  0.7546771E-02  0.1284387E+00
          1   -1    0    0  502    0 -0.00000000000E+00  0.00000000000E+00  0.12288789395E+04  0.12288789395E+04  0.00000000000E+00 0. -1.
          2   -1    0    0  503    0  0.00000000000E+00 -0.00000000000E+00 -0.17690706005E+03  0.17690706005E+03  0.00000000000E+00 0. -1.
         25    2    1    2    0    0  0.12769507251E+03 -0.39920023682E+02  0.11049003228E+03  0.21384870887E+03  0.12499433273E+03 0.  0.
          4    1    3    3  501    0  0.10076715315E+03 -0.35919307374E+02  0.13834031143E+03  0.17488244755E+03  0.12700000000E+01 0.  1.
         -4    1    3    3    0  501  0.26927919360E+02 -0.40007163082E+01 -0.27850279147E+02  0.38966261312E+02  0.12700000000E+01 0.  1.
          2    1    1    2  502    0 -0.47770911754E+02 -0.59847249292E+02  0.10322944399E+04  0.10351306989E+04  0.00000000000E+00 0. -1.
          1    1    1    2  503    0 -0.79924160759E+02  0.99767272974E+02 -0.90812592694E+02  0.15680659177E+03  0.00000000000E+00 0. -1.
<mgrwt>
<rscale>  0 0.98079439E+02</rscale>
<asrwt>0</asrwt>
<pdfrwt beam="2">  1        2 0.27216472E-01 0.12562269E+03</pdfrwt>
<pdfrwt beam="1">  1        1 0.18905829E+00 0.76575148E+02</pdfrwt>
<totfact> 0.31590959E+02</totfact>
</mgrwt>
</event>
<event>
 7    1  0.5277388E-004  0.1137890E+03  0.7546771E-02  0.1265839E+00
          1   -1    0    0  502    0 -0.00000000000E+00  0.00000000000E+00  0.58952098768E+03  0.58952098768E+03  0.00000000000E+00 0. -1.
          2   -1    0    0  503    0  0.00000000000E+00 -0.00000000000E+00 -0.22362338915E+03  0.22362338915E+03  0.00000000000E+00 0. -1.
         25    2    1    2    0    0  0.23810674723E+02 -0.14056024435E+03  0.13677679745E+03  0.23379017478E+03  0.12500329189E+03 0.  0.
          4    1    3    3  501    0 -0.50886195062E+02 -0.47152265413E+02  0.59368409081E+02  0.91317916524E+02  0.12700000000E+01 0.  1.
         -4    1    3    3    0  501  0.74696869785E+02 -0.93407978936E+02  0.77408388366E+02  0.14247225826E+03  0.12700000000E+01 0.  1.
          2    1    1    2  502    0 -0.89575496222E+02  0.46656222902E+02  0.37810790412E+03  0.39136448461E+03  0.00000000000E+00 0. -1.
          1    1    1    2  503    0  0.65764821499E+02  0.93904021446E+02 -0.14898710303E+03  0.18798971743E+03  0.00000000000E+00 0. -1.
<mgrwt>
<rscale>  0 0.10720286E+03</rscale>
<asrwt>0</asrwt>
<pdfrwt beam="2">  1        2 0.34403598E-01 0.11378904E+03</pdfrwt>
<pdfrwt beam="1">  1        1 0.90695536E-01 0.10099788E+03</pdfrwt>
<totfact> 0.75367742E+02</totfact>
</mgrwt>
</event>
<event>
 7    1  0.5277388E-004  0.9613523E+02  0.7546771E-02  0.1372217E+00
         -2   -1    0    0    0  501 -0.00000000000E+00  0.00000000000E+00  0.21450849655E+03  0.21450849655E+03  0.00000000000E+00 0.  1.
          2   -1    0    0  503    0  0.00000000000E+00 -0.00000000000E+00 -0.86576678057E+03  0.86576678057E+03  0.00000000000E+00 0. -1.
         25    2    1    2    0    0  0.68224406201E+02 -0.10954564688E+03 -0.31614935788E+03  0.36363361976E+03  0.12499669829E+03 0.  0.
          4    1    3    3  502    0  0.35278704417E+02 -0.39680512067E+02 -0.18685649482E+02  0.56301833184E+02  0.12700000000E+01 0. -1.
         -4    1    3    3    0  502  0.32945701784E+02 -0.69865134814E+02 -0.29746370840E+03  0.30733178658E+03  0.12700000000E+01 0. -1.
          1    1    1    2  503    0 -0.65317932146E+02  0.63561577909E+02 -0.51906363352E+03  0.52700432834E+03  0.00000000000E+00 0. -1.
         -1    1    1    2    0  501 -0.29064740550E+01  0.45984068972E+02  0.18395470738E+03  0.18963732902E+03  0.00000000000E+00 0.  1.
<mgrwt>
<rscale>  0 0.66554567E+02</rscale>
<asrwt>0</asrwt>
<pdfrwt beam="2">  1        2 0.13319489E+00 0.96135226E+02</pdfrwt>
<pdfrwt beam="1">  1       -2 0.33001307E-01 0.46075831E+02</pdfrwt>
<totfact> 0.28011155E+02</totfact>
</mgrwt>
</event>
<event>
 7    1  0.5277388E-004  0.5269262E+02  0.7546771E-02  0.1488387E+00
          2   -1    0    0  503    0  0.00000000000E+00  0.00000000000E+00  0.38423260784E+03  0.38423260784E+03  0.00000000000E+00 0. -1.
          1   -1    0    0  502    0 -0.00000000000E+00 -0.00000000000E+00 -0.74113659997E+02  0.74113659997E+02  0.00000000000E+00 0. -1.
         25    2    1    2    0    0  0.34111211161E+02 -0.53758802468E+02  0.27322117507E+03  0.30712524221E+03  0.12499008091E+03 0.  0.
          4    1    3    3  501    0  0.24271961397E+02 -0.57060846294E+02  0.28482849175E+03  0.29150291749E+03  0.12700000000E+01 0.  1.
         -4    1    3    3    0  501  0.98392497648E+01  0.33020438263E+01 -0.11607316678E+02  0.15622324725E+02  0.12700000000E+01 0.  1.
          2    1    1    2  502    0 -0.34687977630E+02  0.28803124647E+01 -0.43723294853E+02  0.55886299795E+02  0.00000000000E+00 0. -1.
          1    1    1    2  503    0  0.57676646903E+00  0.50878490003E+02  0.80621067623E+02  0.95334725831E+02  0.00000000000E+00 0. -1.
<mgrwt>
<rscale>  0 0.42826285E+02</rscale>
<asrwt>0</asrwt>
<pdfrwt beam="1">  1        2 0.59112708E-01 0.52692618E+02</pdfrwt>
<pdfrwt beam="2">  1        1 0.11402102E-01 0.34807355E+02</pdfrwt>
<totfact> 0.53862593E+03</totfact>
</mgrwt>
</event>
<event>
 7    1  0.5277388E-004  0.3377772E+02  0.7546771E-02  0.1603941E+00
          1   -1    0    0  502    0 -0.00000000000E+00  0.00000000000E+00  0.31436162426E+02  0.31436162426E+02  0.00000000000E+00 0. -1.
          2   -1    0    0  503    0  0.00000000000E+00 -0.00000000000E+00 -0.57951632175E+03  0.57951632175E+03  0.00000000000E+00 0. -1.
         25    2    1    2    0    0 -0.11889215079E+02  0.96160502605E+01 -0.37292336505E+03  0.39362025161E+03  0.12502497518E+03 0.  0.
          4    1    3    3  501    0 -0.36410676643E+02 -0.48539529297E+02 -0.21902344777E+03  0.22727671868E+03  0.12700000000E+01 0.  1.
         -4    1    3    3    0  501  0.24521461564E+02  0.58155579558E+02 -0.15389991728E+03  0.16634353294E+03  0.12700000000E+01 0.  1.
          2    1    1    2  502    0 -0.69788929546E+00  0.25714702400E+02  0.10603188137E+02  0.27823741079E+02  0.00000000000E+00 0. -1.
          1    1    1    2  503    0  0.12587104375E+02 -0.35330752660E+02 -0.18575998241E+03  0.18950849149E+03  0.00000000000E+00 0. -1.
<mgrwt>
<rscale>  0 0.29477175E+02</rscale>
<asrwt>0</asrwt>
<pdfrwt beam="2">  1        2 0.89156359E-01 0.33777720E+02</pdfrwt>
<pdfrwt beam="1">  1        1 0.48363326E-02 0.25724171E+02</pdfrwt>
<totfact> 0.10210042E+04</totfact>
</mgrwt>
</event>
<event>
 7    1  0.6045888E-004  0.4931431E+02  0.7546771E-02  0.1470119E+00
         -2   -1    0    0    0  501 -0.00000000000E+00  0.00000000000E+00  0.23183317558E+02  0.23183317558E+02  0.00000000000E+00 0.  1.
          2   -1    0    0  503    0  0.00000000000E+00 -0.00000000000E+00 -0.89543383233E+03  0.89543383233E+03  0.00000000000E+00 0. -1.
         25    2    1    2    0    0 -0.79019446983E+02  0.21852185590E+02 -0.32542399069E+03  0.35811777875E+03  0.12500391483E+03 0.  0.
          4    1    3    3  502    0 -0.28783447716E+02  0.21942962829E+02 -0.29929572623E+03  0.30147889664E+03  0.12700000000E+01 0.  1.
         -4    1    3    3    0  502 -0.50235999267E+02 -0.90777238973E-01 -0.26128264462E+02  0.56638882110E+02  0.12700000000E+01 0.  1.
          3    1    1    2  503    0  0.37331067100E+02 -0.29136846720E+02 -0.47330199390E+03  0.47566515727E+03  0.00000000000E+00 0. -1.
         -3    1    1    2    0  501  0.41688379883E+02  0.72846611297E+01 -0.73524530184E+02  0.84834213875E+02  0.00000000000E+00 0.  1.
<mgrwt>
<rscale>  0 0.45683526E+02</rscale>
<asrwt>0</asrwt>
<pdfrwt beam="2">  1        2 0.13775905E+00 0.49314313E+02</pdfrwt>
<pdfrwt beam="1">  1       -2 0.35666643E-02 0.42320058E+02</pdfrwt>
<totfact> 0.87843261E+03</totfact>
</mgrwt>
</event>
<event>
 7    1  0.5277388E-004  0.2881685E+02  0.7546771E-02  0.1627969E+00
          1   -1    0    0  502    0 -0.00000000000E+00  0.00000000000E+00  0.21378539786E+03  0.21378539786E+03  0.00000000000E+00 0. -1.
          2   -1    0    0  503    0  0.00000000000E+00 -0.00000000000E+00 -0.18684054803E+03  0.18684054803E+03  0.00000000000E+00 0. -1.
         25    2    1    2    0    0 -0.26181162038E+02 -0.37202128493E+02 -0.49913098564E+00  0.13301719491E+03  0.12499549352E+03 0.  0.
          4    1    3    3  501    0 -0.27563623446E+02  0.94856810750E+01  0.53909123864E+02  0.61298760335E+02  0.12700000000E+01 0.  1.
         -4    1    3    3    0  501  0.13824614077E+01 -0.46687809568E+02 -0.54408254849E+02  0.71718434572E+02  0.12700000000E+01 0.  1.
          2    1    1    2  502    0 -0.16099979526E+00  0.26169799586E+02  0.14463728798E+03  0.14698581362E+03  0.00000000000E+00 0. -1.
          1    1    1    2  503    0  0.26342161833E+02  0.11032328907E+02 -0.11719330716E+03  0.12062293735E+03  0.00000000000E+00 0. -1.
<mgrwt>
<rscale>  0 0.27461708E+02</rscale>
<asrwt>0</asrwt>
<pdfrwt beam="2">  1        2 0.28744700E-01 0.28816849E+02</pdfrwt>
<pdfrwt beam="1">  1        1 0.32890061E-01 0.26170295E+02</pdfrwt>
<totfact> 0.30350480E+03</totfact>
</mgrwt>
</event>
<event>
 7    1  0.5277388E-004  0.1698084E+03  0.7546771E-02  0.1292273E+00
         -1   -1    0    0    0  501 -0.00000000000E+00  0.00000000000E+00  0.99307892265E+03  0.99307892265E+03  0.00000000000E+00 0.  1.
          1   -1    0    0  503    0  0.00000000000E+00 -0.00000000000E+00 -0.12799191075E+04  0.12799191075E+04  0.00000000000E+00 0. -1.
         25    2    1    2    0    0  0.16728906341E+03 -0.12564952655E+03 -0.37609677672E+02  0.24660349126E+03  0.12500143914E+03 0.  0.
          4    1    3    3  502    0  0.15783973525E+03 -0.10537593324E+03 -0.74136795566E+02  0.20375315135E+03  0.12700000000E+01 0.  1.
         -4    1    3    3    0  502  0.94493281632E+01 -0.20273593305E+02  0.36527117894E+02  0.42850339904E+02  0.12700000000E+01 0.  1.
          2    1    1    2  503    0 -0.52503352832E+02  0.32884319658E+01 -0.11292753829E+04  0.11305000249E+04  0.00000000000E+00 0. -1.
         -2    1    1    2    0  501 -0.11478571058E+03  0.12236109458E+03  0.88004487575E+03  0.89589451397E+03  0.00000000000E+00 0.  1.
<mgrwt>
<rscale>  0 0.94514445E+02</rscale>
<asrwt>0</asrwt>
<pdfrwt beam="2">  1        1 0.19691063E+00 0.52606234E+02</pdfrwt>
<pdfrwt beam="1">  1       -1 0.15278137E+00 0.16980840E+03</pdfrwt>
<totfact> 0.43613868E+00</totfact>
</mgrwt>
</event>
<event>
 7    1  0.5277388E-004  0.1008663E+03  0.7546771E-02  0.1314979E+00
         -2   -1    0    0    0  501 -0.00000000000E+00  0.00000000000E+00  0.70724293306E+02  0.70724293306E+02  0.00000000000E+00 0.  1.
          2   -1    0    0  503    0  0.00000000000E+00 -0.00000000000E+00 -0.31007437411E+04  0.31007437411E+04  0.00000000000E+00 0. -1.
         25    2    1    2    0    0 -0.51397747967E+02  0.11245912668E+03 -0.10571739114E+03  0.20516746023E+03  0.12501494421E+03 0.  0.
          4    1    3    3  502    0 -0.69606429585E+02  0.10460961193E+03 -0.12516925596E+03  0.17736172497E+03  0.12700000000E+01 0.  1.
         -4    1    3    3    0  502  0.18208681617E+02  0.78495147533E+01  0.19451864821E+02  0.27805735256E+02  0.12700000000E+01 0.  1.
          1    1    1    2  503    0 -0.29635525631E+02 -0.65532740865E+02 -0.28381404556E+04  0.28390516111E+04  0.00000000000E+00 0. -1.
         -1    1    1    2    0  501  0.81033273598E+02 -0.46926385815E+02 -0.86161600995E+02  0.12724896307E+03  0.00000000000E+00 0.  1.
<mgrwt>
<rscale>  0 0.85173527E+02</rscale>
<asrwt>0</asrwt>
<pdfrwt beam="2">  1        2 0.47703744E+00 0.71922211E+02</pdfrwt>
<pdfrwt beam="1">  1       -2 0.10880662E-01 0.10086633E+03</pdfrwt>
<totfact> 0.12346455E+02</totfact>
</mgrwt>
</event>
<event>
 7    1  0.7331405E-004  0.5776157E+02  0.7546771E-02  0.1424146E+00
          2   -1    0    0  503    0  0.00000000000E+00  0.00000000000E+00  0.27998975284E+03  0.27998975284E+03  0.00000000000E+00 0.  1.
         -2   -1    0    0    0  501 -0.00000000000E+00 -0.00000000000E+00 -0.65113418926E+02  0.65113418926E+02  0.00000000000E+00 0. -1.
         25    2    1    2    0    0 -0.18292371084E+02 -0.63987360558E+02  0.60290702668E+02  0.15391289350E+03  0.12500086722E+03 0.  0.
          4    1    3    3  502    0 -0.36695575335E+02 -0.11546954984E+02  0.84824977048E+02  0.93149272943E+02  0.12700000000E+01 0.  1.
         -4    1    3    3    0  502  0.18403204250E+02 -0.52440405574E+02 -0.24534274380E+02  0.60763620553E+02  0.12700000000E+01 0.  1.
          1    1    1    2  503    0  0.53270789697E+02  0.27188523277E+02  0.65844676847E+02  0.88952314764E+02  0.00000000000E+00 0. -1.
         -1    1    1    2    0  501 -0.34978418613E+02  0.36798837281E+02  0.88740954395E+02  0.10223796350E+03  0.00000000000E+00 0.  1.
<mgrwt>
<rscale>  0 0.54153338E+02</rscale>
<asrwt>0</asrwt>
<pdfrwt beam="1">  1        2 0.43075346E-01 0.57761568E+02</pdfrwt>
<pdfrwt beam="2">  1       -2 0.10017449E-01 0.50770505E+02</pdfrwt>
<totfact> 0.68623629E+03</totfact>
</mgrwt>
</event>
<event>
 7    1  0.5277388E-004  0.1265024E+03  0.7546771E-02  0.1336991E+00
          2   -1    0    0  503    0  0.00000000000E+00  0.00000000000E+00  0.51032662808E+03  0.51032662808E+03  0.00000000000E+00 0. -1.
          1   -1    0    0  502    0 -0.00000000000E+00 -0.00000000000E+00 -0.68528733978E+03  0.68528733978E+03  0.00000000000E+00 0. -1.
         25    2    1    2    0    0  0.15073182158E+03  0.71415627866E+02  0.84542870402E+02  0.22492784271E+03  0.12499905419E+03 0.  0.
          4    1    3    3  501    0  0.29796117025E+02  0.59475620262E+02  0.78980914385E+02  0.10327030421E+03  0.12700000000E+01 0. -1.
         -4    1    3    3    0  501  0.12093570455E+03  0.11940007603E+02  0.55619560166E+01  0.12165753849E+03  0.12700000000E+01 0. -1.
          2    1    1    2  502    0 -0.45581681503E+02 -0.12232548882E+02 -0.60391174507E+03  0.60575301962E+03  0.00000000000E+00 0. -1.
          1    1    1    2  503    0 -0.10515014008E+03 -0.59183078984E+02  0.34440816297E+03  0.36493310554E+03  0.00000000000E+00 0. -1.
<mgrwt>
<rscale>  0 0.77267203E+02</rscale>
<asrwt>0</asrwt>
<pdfrwt beam="1">  1        2 0.78511789E-01 0.12650235E+03</pdfrwt>
<pdfrwt beam="2">  1        1 0.10542882E+00 0.47194544E+02</pdfrwt>
<totfact> 0.26279931E+02</totfact>
</mgrwt>
</event>
<event>
 7    1  0.5277388E-004  0.6388295E+02  0.7546771E-02  0.1468065E+00
          1   -1    0    0  503    0  0.00000000000E+00  0.00000000000E+00  0.32996543278E+03  0.32996543278E+03  0.00000000000E+00 0. -1.
         -1   -1    0    0    0  501 -0.00000000000E+00 -0.00000000000E+00 -0.49436900333E+02  0.49436900333E+02  0.00000000000E+00 0.  1.
         25    2    1    2    0    0 -0.85197349884E+02 -0.61127712311E+01  0.16285005363E+03  0.22236295882E+03  0.12501676323E+03 0.  0.
          4    1    3    3  502    0 -0.10891561172E+03 -0.34481896511E+02  0.11852825988E+03  0.16462737607E+03  0.12700000000E+01 0.  1.
         -4    1    3    3    0  502  0.23718261833E+02  0.28369125280E+02  0.44321793751E+02  0.57735582744E+02  0.12700000000E+01 0.  1.
          2    1    1    2  503    0  0.55339392548E+02  0.20523317036E+02  0.10701622275E+03  0.12221344787E+03  0.00000000000E+00 0. -1.
         -2    1    1    2    0  501  0.29857957336E+02 -0.14410545805E+02  0.10662256069E+02  0.34825926421E+02  0.00000000000E+00 0.  1.
<mgrwt>
<rscale>  0 0.46021191E+02</rscale>
<asrwt>0</asrwt>
<pdfrwt beam="1">  1        1 0.50763911E-01 0.63882950E+02</pdfrwt>
<pdfrwt beam="2">  1       -1 0.76056772E-02 0.33153604E+02</pdfrwt>
<totfact> 0.61130525E+03</totfact>
</mgrwt>
</event>
<event>
 7    1  0.5277388E-004  0.8583063E+02  0.7546771E-02  0.1388865E+00
          2   -1    0    0  503    0  0.00000000000E+00  0.00000000000E+00  0.17331475615E+04  0.17331475615E+04  0.00000000000E+00 0. -1.
          1   -1    0    0  502    0 -0.00000000000E+00 -0.00000000000E+00 -0.97680455844E+03  0.97680455844E+03  0.00000000000E+00 0. -1.
         25    2    1    2    0    0 -0.46315244968E+02 -0.26254617209E+02  0.24745671400E+02  0.13810209629E+03  0.12500173561E+03 0.  0.
          4    1    3    3  501    0  0.40593732173E+02 -0.25257454037E+02  0.17301074539E+02  0.50859907160E+02  0.12700000000E+01 0. -1.
         -4    1    3    3    0  501 -0.86908977141E+02 -0.99716317224E+00  0.74445968613E+01  0.87242189132E+02  0.12700000000E+01 0. -1.
          2    1    1    2  502    0  0.86570958298E+02  0.60074858824E+01 -0.91777187116E+03  0.92186540677E+03  0.00000000000E+00 0. -1.
          3    1    1    2  503    0 -0.40255713330E+02  0.20247131326E+02  0.16493692028E+04  0.16499846169E+04  0.00000000000E+00 0. -1.
<mgrwt>
<rscale>  0 0.62189955E+02</rscale>
<asrwt>0</asrwt>
<pdfrwt beam="1">  1        2 0.26663809E+00 0.45060723E+02</pdfrwt>
<pdfrwt beam="2">  1        1 0.15027762E+00 0.85830635E+02</pdfrwt>
<totfact> 0.29894968E+01</totfact>
</mgrwt>
</event>
<event>
 7    1  0.5277388E-004  0.4864804E+02  0.7546771E-02  0.1457915E+00
          1   -1    0    0  502    0 -0.00000000000E+00  0.00000000000E+00  0.33724740601E+03  0.33724740601E+03  0.00000000000E+00 0. -1.
          2   -1    0    0  503    0  0.00000000000E+00 -0.00000000000E+00 -0.69221553088E+03  0.69221553088E+03  0.00000000000E+00 0. -1.
         25    2    1    2    0    0  0.42592473577E+02 -0.29278266371E+02  0.68590806357E+02  0.15166173784E+03  0.12500099328E+03 0.  0.
          4    1    3    3  501    0  0.80129653781E+02 -0.19828608136E+02  0.76020968206E+02  0.11222626975E+03  0.12700000000E+01 0.  1.
         -4    1    3    3    0  501 -0.37537180204E+02 -0.94496582353E+01 -0.74301618491E+01  0.39435468090E+02  0.12700000000E+01 0.  1.
          2    1    1    2  502    0  0.29783399561E+01  0.46758333478E+02  0.22377625610E+03  0.22862857444E+03  0.00000000000E+00 0. -1.
          1    1    1    2  503    0 -0.45570813533E+02 -0.17480067108E+02 -0.64733518732E+03  0.64917262460E+03  0.00000000000E+00 0. -1.
<mgrwt>
<rscale>  0 0.47742132E+02</rscale>
<asrwt>0</asrwt>
<pdfrwt beam="2">  1        2 0.10649470E+00 0.48648041E+02</pdfrwt>
<pdfrwt beam="1">  1        1 0.51884216E-01 0.46853092E+02</pdfrwt>
<totfact> 0.46478496E+02</totfact>
</mgrwt>
</event>
<event>
 7    1  0.5277388E-004  0.2137430E+02  0.7546771E-02  0.1723984E+00
          2   -1    0    0  503    0  0.00000000000E+00  0.00000000000E+00  0.12692772737E+04  0.12692772737E+04  0.00000000000E+00 0. -1.
         -2   -1    0    0    0  501 -0.00000000000E+00 -0.00000000000E+00 -0.59254174214E+02  0.59254174214E+02  0.00000000000E+00 0.  1.
         25    2    1    2    0    0 -0.41703240699E+02 -0.15741440958E+01  0.16554510632E+03  0.21159814731E+03  0.12500782177E+03 0.  0.
          4    1    3    3  502    0  0.29449433151E+01  0.35412943795E+02  0.14620352027E+03  0.15046538312E+03  0.12700000000E+01 0.  1.
         -4    1    3    3    0  502 -0.44648184014E+02 -0.36987087891E+02  0.19341586055E+02  0.61132764190E+02  0.12700000000E+01 0.  1.
          3    1    1    2  503    0  0.20952598593E+02  0.37367665488E+01  0.10775881428E+04  0.10777983022E+04  0.00000000000E+00 0. -1.
         -1    1    1    2    0  501  0.20750642106E+02 -0.21626224530E+01 -0.33110149665E+02  0.39134998333E+02  0.00000000000E+00 0.  1.
<mgrwt>
<rscale>  0 0.21117116E+02</rscale>
<asrwt>0</asrwt>
<pdfrwt beam="1">  1        2 0.19527341E+00 0.21374296E+02</pdfrwt>
<pdfrwt beam="2">  1       -2 0.91160277E-02 0.20863032E+02</pdfrwt>
<totfact> 0.13696628E+03</totfact>
</mgrwt>
</event>
<event>
 7    1  0.5277388E-004  0.5874571E+02  0.7546771E-02  0.1406886E+00
          1   -1    0    0  502    0 -0.00000000000E+00  0.00000000000E+00  0.44463358897E+03  0.44463358897E+03  0.00000000000E+00 0. -1.
          2   -1    0    0  503    0  0.00000000000E+00 -0.00000000000E+00 -0.84388758203E+03  0.84388758203E+03  0.00000000000E+00 0. -1.
         25    2    1    2    0    0 -0.99599491112E+02 -0.51521154585E+02  0.14318794909E+03  0.22068395999E+03  0.12499653369E+03 0.  0.
          4    1    3    3  501    0 -0.44145996372E+02 -0.83091968506E+02  0.46836652470E+02  0.10511150813E+03  0.12700000000E+01 0. -1.
         -4    1    3    3    0  501 -0.55453494741E+02  0.31570813921E+02  0.96351296616E+02  0.11557245187E+03  0.12700000000E+01 0. -1.
          2    1    1    2  502    0  0.55524638091E+02  0.13128374205E+02  0.25852204701E+03  0.26474325002E+03  0.00000000000E+00 0. -1.
          1    1    1    2  503    0  0.44074853021E+02  0.38392780380E+02 -0.80096398915E+03  0.80309396099E+03  0.00000000000E+00 0. -1.
<mgrwt>
<rscale>  0 0.57894481E+02</rscale>
<asrwt>0</asrwt>
<pdfrwt beam="2">  1        2 0.12982886E+00 0.58745713E+02</pdfrwt>
<pdfrwt beam="1">  1        1 0.68405168E-01 0.57055584E+02</pdfrwt>
<totfact> 0.26134262E+02</totfact>
</mgrwt>
</event>
<event>
 7    1  0.5277388E-004  0.1063504E+03  0.7546771E-02  0.1339630E+00
          1   -1    0    0  502    0 -0.00000000000E+00  0.00000000000E+00  0.81785882313E+03  0.81785882313E+03  0.00000000000E+00 0. -1.
          2   -1    0    0  503    0  0.00000000000E+00 -0.00000000000E+00 -0.90976342374E+03  0.90976342374E+03  0.00000000000E+00 0. -1.
         25    2    1    2    0    0 -0.93609116378E+02 -0.94700787439E+02 -0.28285009063E+03  0.33668889202E+03  0.12499732170E+03 0.  0.
          4    1    3    3  501    0 -0.23345517487E+02 -0.43960346402E+02 -0.22965128884E+03  0.23498692008E+03  0.12700000000E+01 0. -1.
         -4    1    3    3    0  501 -0.70263598891E+02 -0.50740441037E+02 -0.53198801795E+02  0.10170197195E+03  0.12700000000E+01 0. -1.
          2    1    1    2  502    0  0.38896041537E+02  0.98781679986E+02  0.78610952672E+03  0.79324580702E+03  0.00000000000E+00 0. -1.
          1    1    1    2  503    0  0.54713074841E+02 -0.40808925472E+01 -0.59516403671E+03  0.59768754783E+03  0.00000000000E+00 0. -1.
<mgrwt>
<rscale>  0 0.76386638E+02</rscale>
<asrwt>0</asrwt>
<pdfrwt beam="2">  1        2 0.13996360E+00 0.54865055E+02</pdfrwt>
<pdfrwt beam="1">  1        1 0.12582443E+00 0.10635036E+03</pdfrwt>
<totfact> 0.10301562E+02</totfact>
</mgrwt>
</event>
<event>
 7    1  0.5277388E-004  0.7306727E+02  0.7546771E-02  0.1369511E+00
          2   -1    0    0  503    0  0.00000000000E+00  0.00000000000E+00  0.91832102130E+02  0.91832102130E+02  0.00000000000E+00 0. -1.
          1   -1    0    0  502    0 -0.00000000000E+00 -0.00000000000E+00 -0.70231717640E+03  0.70231717640E+03  0.00000000000E+00 0. -1.
         25    2    1    2    0    0  0.19955278937E+02 -0.37379321158E+02 -0.10079774212E+03  0.16607272472E+03  0.12499815307E+03 0.  0.
          4    1    3    3  501    0  0.54588676850E+01 -0.14384718445E+02  0.29322088243E+02  0.33137850263E+02  0.12700000000E+01 0. -1.
         -4    1    3    3    0  501  0.14496411252E+02 -0.22994602713E+02 -0.13011983036E+03  0.13293487445E+03  0.12700000000E+01 0. -1.
          2    1    1    2  502    0 -0.76138752340E+02  0.11174536021E+02 -0.54919727091E+03  0.55456255034E+03  0.00000000000E+00 0. -1.
          1    1    1    2  503    0  0.56183473402E+02  0.26204785137E+02  0.39509938752E+02  0.73514003481E+02  0.00000000000E+00 0. -1.
<mgrwt>
<rscale>  0 0.67303360E+02</rscale>
<asrwt>0</asrwt>
<pdfrwt beam="1">  1        2 0.14128016E-01 0.61994140E+02</pdfrwt>
<pdfrwt beam="2">  1        1 0.10804880E+00 0.73067265E+02</pdfrwt>
<totfact> 0.15695650E+03</totfact>
</mgrwt>
</event>
<event>
 7    1  0.5277388E-004  0.2462477E+03  0.7546771E-02  0.1214982E+00
          2   -1    0    0  503    0  0.00000000000E+00  0.00000000000E+00  0.20600728984E+04  0.20600728984E+04  0.00000000000E+00 0. -1.
          1   -1    0    0  502    0 -0.00000000000E+00 -0.00000000000E+00 -0.12004298443E+03  0.12004298443E+03  0.00000000000E+00 0. -1.
         25    2    1    2    0    0 -0.20509885592E+03  0.24176406442E+03  0.26741176968E+03  0.43318524467E+03  0.12499999237E+03 0.  0.
          4    1    3    3  501    0 -0.16666477642E+02  0.95786953667E+01  0.75386701907E+02  0.77809322105E+02  0.12700000000E+01 0.  1.
         -4    1    3    3    0  501 -0.18843237828E+03  0.23218536905E+03  0.19202506777E+03  0.35537592256E+03  0.12700000000E+01 0.  1.
          2    1    1    2  502    0  0.48510039038E+02 -0.61349984202E+02  0.25038117225E+02  0.82121566980E+02  0.00000000000E+00 0. -1.
          3    1    1    2  503    0  0.15658881688E+03 -0.18041408022E+03  0.16475800270E+04  0.16648090712E+04  0.00000000000E+00 0. -1.
<mgrwt>
<rscale>  0 0.13877827E+03</rscale>
<asrwt>0</asrwt>
<pdfrwt beam="1">  1        2 0.31693426E+00 0.24624767E+03</pdfrwt>
<pdfrwt beam="2">  1        1 0.18468153E-01 0.78211537E+02</pdfrwt>
<totfact> 0.25801484E+02</totfact>
</mgrwt>
</event>
<event>
 7    1  0.5277388E-004  0.4206774E+02  0.7546771E-02  0.1579371E+00
         -2   -1    0    0    0  501 -0.00000000000E+00  0.00000000000E+00  0.18136173241E+04  0.18136173241E+04  0.00000000000E+00 0.  1.
          2   -1    0    0  503    0  0.00000000000E+00 -0.00000000000E+00 -0.12931310180E+02  0.12931310180E+02  0.00000000000E+00 0. -1.
         25    2    1    2    0    0 -0.18387421548E+01 -0.40135917815E+02  0.64224804303E+03  0.65553246409E+03  0.12500395925E+03 0.  0.
          4    1    3    3  502    0 -0.10113290418E+02  0.30201873564E+02  0.44158766395E+03  0.44273661432E+03  0.12700000000E+01 0.  1.
         -4    1    3    3    0  502  0.82745482629E+01 -0.70337791379E+02  0.20066037909E+03  0.21279584977E+03  0.12700000000E+01 0.  1.
          1    1    1    2  503    0 -0.23277974065E+02  0.57762052032E+01  0.18515365703E+02  0.30299296860E+02  0.00000000000E+00 0. -1.
         -3    1    1    2    0  501  0.25116716219E+02  0.34359712612E+02  0.11399226052E+04  0.11407168734E+04  0.00000000000E+00 0.  1.
<mgrwt>
<rscale>  0 0.31763964E+02</rscale>
<asrwt>0</asrwt>
<pdfrwt beam="2">  1        2 0.19894338E-02 0.23983924E+02</pdfrwt>
<pdfrwt beam="1">  1       -2 0.27901785E+00 0.42067736E+02</pdfrwt>
<totfact> 0.23312169E+02</totfact>
</mgrwt>
</event>
<event>
 7    1  0.5277388E-004  0.5621688E+02  0.7546771E-02  0.1416506E+00
          1   -1    0    0  502    0 -0.00000000000E+00  0.00000000000E+00  0.64599447038E+03  0.64599447038E+03  0.00000000000E+00 0. -1.
          2   -1    0    0  503    0  0.00000000000E+00 -0.00000000000E+00 -0.58053132103E+02  0.58053132103E+02  0.00000000000E+00 0. -1.
         25    2    1    2    0    0  0.78286932854E+01 -0.14207700580E+02  0.22095964596E+03  0.25438402803E+03  0.12499968552E+03 0.  0.
          4    1    3    3  501    0  0.31699592865E+01 -0.69980587385E+02  0.12202730549E+03  0.14071107788E+03  0.12700000000E+01 0.  1.
         -4    1    3    3    0  501  0.46587339989E+01  0.55772886805E+02  0.98932340470E+02  0.11367295015E+03  0.12700000000E+01 0.  1.
          2    1    1    2  502    0 -0.62387512192E+02  0.65508971631E+00  0.38546846442E+03  0.39048504182E+03  0.00000000000E+00 0. -1.
          1    1    1    2  503    0  0.54558818907E+02  0.13552610864E+02 -0.18486772107E+02  0.59178532634E+02  0.00000000000E+00 0. -1.
<mgrwt>
<rscale>  0 0.55766971E+02</rscale>
<asrwt>0</asrwt>
<pdfrwt beam="2">  1        2 0.89312516E-02 0.56216883E+02</pdfrwt>
<pdfrwt beam="1">  1        1 0.99383759E-01 0.55320660E+02</pdfrwt>
<totfact> 0.30348863E+03</totfact>
</mgrwt>
</event>
<event>
 7    1  0.5277388E-004  0.8336235E+02  0.7546771E-02  0.1323833E+00
         -1   -1    0    0    0  501 -0.00000000000E+00  0.00000000000E+00  0.83158895187E+02  0.83158895187E+02  0.00000000000E+00 0.  1.
          1   -1    0    0  503    0  0.00000000000E+00 -0.00000000000E+00 -0.11158662763E+04  0.11158662763E+04  0.00000000000E+00 0. -1.
         25    2    1    2    0    0 -0.68098761728E+02  0.39145211521E+02 -0.33587021175E+03  0.36688464820E+03  0.12500302799E+03 0.  0.
          4    1    3    3  502    0 -0.51279485863E+01  0.48757862104E+02 -0.37363990794E+02  0.61654729597E+02  0.12700000000E+01 0. -1.
         -4    1    3    3    0  502 -0.62970813141E+02 -0.96126505830E+01 -0.29850622096E+03  0.30522991860E+03  0.12700000000E+01 0. -1.
          2    1    1    2  503    0  0.70586027968E+02  0.44349671845E+02 -0.73541918895E+03  0.74012881596E+03  0.00000000000E+00 0. -1.
         -2    1    1    2    0  501 -0.24872662399E+01 -0.83494883366E+02  0.38582019621E+02  0.92011707296E+02  0.00000000000E+00 0.  1.
<mgrwt>
<rscale>  0 0.81867853E+02</rscale>
<asrwt>0</asrwt>
<pdfrwt beam="2">  1        1 0.17167173E+00 0.83362346E+02</pdfrwt>
<pdfrwt beam="1">  1       -1 0.12793676E-01 0.80400153E+02</pdfrwt>
<totfact> 0.55827059E+02</totfact>
</mgrwt>
</event>
<event>
 7    1  0.5277388E-004  0.9567073E+02  0.7546771E-02  0.1313917E+00
          1   -1    0    0  502    0 -0.00000000000E+00  0.00000000000E+00  0.72102123593E+03  0.72102123593E+03  0.00000000000E+00 0. -1.
          2   -1    0    0  503    0  0.00000000000E+00 -0.00000000000E+00 -0.12776280190E+04  0.12776280190E+04  0.00000000000E+00 0. -1.
         25    2    1    2    0    0 -0.57631627615E+02  0.15078690855E+03 -0.57820348424E+03  0.61319082710E+03  0.12500249983E+03 0.  0.
          4    1    3    3  501    0  0.99922669569E+01  0.13175837641E+03 -0.33767318146E+03  0.36260847416E+03  0.12700000000E+01 0.  1.
         -4    1    3    3    0  501 -0.67623894572E+02  0.19028532141E+02 -0.24053030278E+03  0.25058235294E+03  0.12700000000E+01 0.  1.
          2    1    1    2  502    0  0.19925487014E+02 -0.73918764760E+02  0.69874117428E+03  0.70292263973E+03  0.00000000000E+00 0. -1.
          1    1    1    2  503    0  0.37706140601E+02 -0.76868143789E+02 -0.67714447310E+03  0.68253578809E+03  0.00000000000E+00 0. -1.
<mgrwt>
<rscale>  0 0.85582040E+02</rscale>
<asrwt>0</asrwt>
<pdfrwt beam="2">  1        2 0.19655815E+00 0.95670728E+02</pdfrwt>
<pdfrwt beam="1">  1        1 0.11092635E+00 0.76557226E+02</pdfrwt>
<totfact> 0.75763193E+01</totfact>
</mgrwt>
</event>
<event>
 7    1  0.5277388E-004  0.3762397E+03  0.7546771E-02  0.1152766E+00
          2   -1    0    0  503    0  0.00000000000E+00  0.00000000000E+00  0.23379407990E+04  0.23379407990E+04  0.00000000000E+00 0. -1.
          1   -1    0    0  502    0 -0.00000000000E+00 -0.00000000000E+00 -0.94044002084E+03  0.94044002084E+03  0.00000000000E+00 0. -1.
         25    2    1    2    0    0  0.46277287865E+03  0.84757538224E+02  0.49797279527E+03  0.69637965570E+03  0.12500057017E+03 0.  0.
          4    1    3    3  501    0  0.46504476841E+03  0.71842730366E+02  0.49479719357E+03  0.68282786278E+03  0.12700000000E+01 0. -1.
         -4    1    3    3    0  501 -0.22718897605E+01  0.12914807858E+02  0.31756017064E+01  0.13551792918E+02  0.12700000000E+01 0. -1.
          2    1    1    2  502    0 -0.36656336855E+03 -0.49175252984E+02 -0.79896376206E+03  0.88041467602E+03  0.00000000000E+00 0. -1.
          1    1    1    2  503    0 -0.96209510092E+02 -0.35582285240E+02  0.16984917449E+04  0.17015864881E+04  0.00000000000E+00 0. -1.
<mgrwt>
<rscale>  0 0.19645391E+03</rscale>
<asrwt>0</asrwt>
<pdfrwt beam="1">  1        2 0.35968320E+00 0.10257860E+03</pdfrwt>
<pdfrwt beam="2">  1        1 0.14468308E+00 0.37623968E+03</pdfrwt>
<totfact> 0.13281335E+01</totfact>
</mgrwt>
</event>
<event>
 7    1  0.5277388E-004  0.8112729E+02  0.7546771E-02  0.1343681E+00
          2   -1    0    0  503    0  0.00000000000E+00  0.00000000000E+00  0.27438164125E+04  0.27438164125E+04  0.00000000000E+00 0. -1.
          1   -1    0    0  502    0 -0.00000000000E+00 -0.00000000000E+00 -0.38109590615E+03  0.38109590615E+03  0.00000000000E+00 0. -1.
         25    2    1    2    0    0 -0.99119610746E+02  0.70794810111E+02  0.84293531542E+02  0.19378707912E+03  0.12494570901E+03 0.  0.
          4    1    3    3  501    0 -0.96462844824E+02  0.81126561120E+02  0.18829162899E+02  0.12744704636E+03  0.12700000000E+01 0.  1.
         -4    1    3    3    0  501 -0.26567659218E+01 -0.10331751009E+02  0.65464368643E+02  0.66340032755E+02  0.12700000000E+01 0.  1.
          2    1    1    2  502    0  0.80236148757E+02 -0.39621968598E+01 -0.32093455955E+03  0.33083610759E+03  0.00000000000E+00 0. -1.
          1    1    1    2  503    0  0.18883461989E+02 -0.66832613251E+02  0.25993615344E+04  0.26002891320E+04  0.00000000000E+00 0. -1.
<mgrwt>
<rscale>  0 0.75061448E+02</rscale>
<asrwt>0</asrwt>
<pdfrwt beam="1">  1        2 0.42212559E+00 0.69449142E+02</pdfrwt>
<pdfrwt beam="2">  1        1 0.58630141E-01 0.81127295E+02</pdfrwt>
<totfact> 0.31960213E+01</totfact>
</mgrwt>
</event>
<event>
 7    1  0.5277388E-004  0.4772034E+02  0.7546771E-02  0.1519347E+00
          2   -1    0    0  503    0  0.00000000000E+00  0.00000000000E+00  0.74810663527E+03  0.74810663527E+03  0.00000000000E+00 0.  1.
         -2   -1    0    0    0  501 -0.00000000000E+00 -0.00000000000E+00 -0.22944081121E+02  0.22944081121E+02  0.00000000000E+00 0. -1.
         25    2    1    2    0    0  0.33491950606E+02  0.42490523566E+02  0.52398380393E+03  0.54139766971E+03  0.12500101855E+03 0.  0.
          4    1    3    3  502    0 -0.27633584708E+02 -0.27154096047E+02  0.22714789776E+03  0.23043163909E+03  0.12700000000E+01 0.  1.
         -4    1    3    3    0  502  0.61125535314E+02  0.69644619614E+02  0.29683590617E+03  0.31096603062E+03  0.12700000000E+01 0.  1.
          3    1    1    2  503    0 -0.30636140701E+02  0.53702390252E+01  0.10177662826E+02  0.32726096694E+02  0.00000000000E+00 0. -1.
         -3    1    1    2    0  501 -0.28558099048E+01 -0.47860762592E+02  0.19100108740E+03  0.19692694999E+03  0.00000000000E+00 0.  1.
<mgrwt>
<rscale>  0 0.38526069E+02</rscale>
<asrwt>0</asrwt>
<pdfrwt beam="1">  1        2 0.11509331E+00 0.31103257E+02</pdfrwt>
<pdfrwt beam="2">  1       -2 0.35298592E-02 0.47720339E+02</pdfrwt>
<totfact> 0.11409755E+04</totfact>
</mgrwt>
</event>
<event>
 7    1  0.5277388E-004  0.4259013E+02  0.7546771E-02  0.1539795E+00
          1   -1    0    0  502    0 -0.00000000000E+00  0.00000000000E+00  0.12220332052E+04  0.12220332052E+04  0.00000000000E+00 0. -1.
          2   -1    0    0  503    0  0.00000000000E+00 -0.00000000000E+00 -0.46350927070E+03  0.46350927070E+03  0.00000000000E+00 0. -1.
         25    2    1    2    0    0 -0.35581479303E+02  0.18597223942E+02  0.55520149709E+03  0.57051397768E+03  0.12500239174E+03 0.  0.
          4    1    3    3  501    0 -0.76857581674E+01 -0.19993214525E+02  0.10780631023E+02  0.24013213256E+02  0.12700000000E+01 0.  1.
         -4    1    3    3    0  501 -0.27895721136E+02  0.38590438467E+02  0.54442086607E+03  0.54650076442E+03  0.12700000000E+01 0.  1.
          2    1    1    2  502    0  0.15041087461E+02 -0.41075249400E+02  0.65793993168E+03  0.65939242043E+03  0.00000000000E+00 0. -1.
          1    1    1    2  503    0  0.20540391842E+02  0.22478025458E+02 -0.45461749425E+03  0.45563607781E+03  0.00000000000E+00 0. -1.
<mgrwt>
<rscale>  0 0.36011751E+02</rscale>
<asrwt>0</asrwt>
<pdfrwt beam="2">  1        2 0.71309119E-01 0.30449455E+02</pdfrwt>
<pdfrwt beam="1">  1        1 0.18800511E+00 0.42590129E+02</pdfrwt>
<totfact> 0.12144893E+02</totfact>
</mgrwt>
</event>
<event>
 7    1  0.5277388E-004  0.8796250E+02  0.7546771E-02  0.1386673E+00
          2   -1    0    0  503    0  0.00000000000E+00  0.00000000000E+00  0.76065580260E+03  0.76065580260E+03  0.00000000000E+00 0. -1.
          1   -1    0    0  502    0 -0.00000000000E+00 -0.00000000000E+00 -0.68374182557E+02  0.68374182557E+02  0.00000000000E+00 0. -1.
         25    2    1    2    0    0 -0.69399084720E+02  0.88368290934E+02  0.34626726896E+03  0.38490534402E+03  0.12500365794E+03 0.  0.
          4    1    3    3  501    0 -0.83705306748E+02  0.85047119041E+02  0.34992710337E+03  0.36971635263E+03  0.12700000000E+01 0.  1.
         -4    1    3    3    0  501  0.14306222028E+02  0.33211718940E+01 -0.36598344035E+01  0.15188991386E+02  0.12700000000E+01 0.  1.
          2    1    1    2  502    0 -0.17663046599E+01 -0.44717558876E+02 -0.33267649312E+02  0.55763037890E+02  0.00000000000E+00 0. -1.
          1    1    1    2  503    0  0.71165389380E+02 -0.43650732059E+02  0.37928200039E+03  0.38836160325E+03  0.00000000000E+00 0. -1.
<mgrwt>
<rscale>  0 0.62741816E+02</rscale>
<asrwt>0</asrwt>
<pdfrwt beam="1">  1        2 0.11702396E+00 0.87962499E+02</pdfrwt>
<pdfrwt beam="2">  1        1 0.10519106E-01 0.44752429E+02</pdfrwt>
<totfact> 0.28610438E+03</totfact>
</mgrwt>
</event>
<event>
 7    1  0.5277388E-004  0.4053919E+02  0.7546771E-02  0.1595847E+00
          1   -1    0    0  502    0 -0.00000000000E+00  0.00000000000E+00  0.49894953306E+02  0.49894953306E+02  0.00000000000E+00 0. -1.
          2   -1    0    0  503    0  0.00000000000E+00 -0.00000000000E+00 -0.31685822445E+03  0.31685822445E+03  0.00000000000E+00 0. -1.
         25    2    1    2    0    0 -0.13753618128E+02  0.26651477293E+02 -0.17509553866E+03  0.21721690021E+03  0.12500108329E+03 0.  0.
          4    1    3    3  501    0 -0.55502239428E+02  0.41575691703E+02 -0.52928009937E+02  0.87246913172E+02  0.12700000000E+01 0.  1.
         -4    1    3    3    0  501  0.41748621301E+02 -0.14924214409E+02 -0.12216752872E+03  0.12996998704E+03  0.12700000000E+01 0.  1.
          2    1    1    2  502    0  0.15261117182E+02  0.16537893070E+02  0.19689364401E+02  0.29901081508E+02  0.00000000000E+00 0. -1.
          1    1    1    2  503    0 -0.15074990541E+01 -0.43189370363E+02 -0.11155709688E+03  0.11963519604E+03  0.00000000000E+00 0. -1.
<mgrwt>
<rscale>  0 0.30203808E+02</rscale>
<asrwt>0</asrwt>
<pdfrwt beam="2">  1        2 0.48747420E-01 0.40539185E+02</pdfrwt>
<pdfrwt beam="1">  1        1 0.76761466E-02 0.22503413E+02</pdfrwt>
<totfact> 0.10332998E+04</totfact>
</mgrwt>
</event>
<event>
 7    1  0.5277388E-004  0.6553456E+02  0.7546771E-02  0.1477844E+00
          1   -1    0    0  502    0 -0.00000000000E+00  0.00000000000E+00  0.46968645324E+03  0.46968645324E+03  0.00000000000E+00 0. -1.
          2   -1    0    0  503    0  0.00000000000E+00 -0.00000000000E+00 -0.87270051626E+03  0.87270051626E+03  0.00000000000E+00 0. -1.
         25    2    1    2    0    0 -0.69633497740E+02 -0.49776543436E+01  0.25585041022E+03  0.29318886675E+03  0.12500671232E+03 0.  0.
          4    1    3    3  501    0 -0.70641329098E+02 -0.12714298618E+02  0.50699532469E+02  0.87885756859E+02  0.12700000000E+01 0. -1.
         -4    1    3    3    0  501  0.10078313576E+01  0.77366442747E+01  0.20515087775E+03  0.20530310989E+03  0.12700000000E+01 0. -1.
          2    1    1    2  502    0  0.86037008265E+01  0.28886545410E+02  0.19273619331E+03  0.19507869280E+03  0.00000000000E+00 0. -1.
          1    1    1    2  503    0  0.61029796914E+02 -0.23908891066E+02 -0.85160066655E+03  0.85411940995E+03  0.00000000000E+00 0. -1.
<mgrwt>
<rscale>  0 0.44443799E+02</rscale>
<asrwt>0</asrwt>
<pdfrwt beam="2">  1        2 0.13426162E+00 0.65534556E+02</pdfrwt>
<pdfrwt beam="1">  1        1 0.72259454E-01 0.30140607E+02</pdfrwt>
<totfact> 0.23584309E+02</totfact>
</mgrwt>
</event>
<event>
 7    1  0.5277388E-004  0.1441014E+03  0.7546771E-02  0.1214334E+00
         -2   -1    0    0    0  501 -0.00000000000E+00  0.00000000000E+00  0.36380320254E+03  0.36380320254E+03  0.00000000000E+00 0.  1.
          2   -1    0    0  503    0  0.00000000000E+00 -0.00000000000E+00 -0.22121684290E+04  0.22121684290E+04  0.00000000000E+00 0. -1.
         25    2    1    2    0    0  0.88928504511E+02  0.16181407259E+03 -0.12285945835E+03  0.25458182693E+03  0.12500154837E+03 0.  0.
          4    1    3    3  502    0  0.10921153938E+03  0.16887061232E+03 -0.11505160205E+03  0.23169576619E+03  0.12700000000E+01 0.  1.
         -4    1    3    3    0  502 -0.20283034864E+02 -0.70565397271E+01 -0.78078563027E+01  0.22886060742E+02  0.12700000000E+01 0.  1.
          1    1    1    2  503    0  0.43514313580E+02 -0.13796255682E+03 -0.20055125093E+04  0.20107231504E+04  0.00000000000E+00 0. -1.
         -1    1    1    2    0  501 -0.13244281809E+03 -0.23851515773E+02  0.28000674124E+03  0.31066665416E+03  0.00000000000E+00 0.  1.
<mgrwt>
<rscale>  0 0.13925592E+03</rscale>
<asrwt>0</asrwt>
<pdfrwt beam="2">  1        2 0.34033360E+00 0.14410140E+03</pdfrwt>
<pdfrwt beam="1">  1       -2 0.55969724E-01 0.13457338E+03</pdfrwt>
<totfact> 0.19196793E+01</totfact>
</mgrwt>
</event>
<event>
 7    1  0.5277388E-004  0.6238602E+02  0.7546771E-02  0.1407409E+00
          1   -1    0    0  502    0 -0.00000000000E+00  0.00000000000E+00  0.21892586081E+03  0.21892586081E+03  0.00000000000E+00 0. -1.
          2   -1    0    0  503    0  0.00000000000E+00 -0.00000000000E+00 -0.26799130841E+04  0.26799130841E+04  0.00000000000E+00 0. -1.
         25    2    1    2    0    0  0.12005868151E+02 -0.46304625842E+02  0.88711477986E+02  0.16057020955E+03  0.12499922650E+03 0.  0.
          4    1    3    3  501    0  0.67427345128E+02 -0.14856376354E+02  0.36083914164E+02  0.77915470549E+02  0.12700000000E+01 0. -1.
         -4    1    3    3    0  501 -0.55421476977E+02 -0.31448249488E+02  0.52627563822E+02  0.82654739005E+02  0.12700000000E+01 0. -1.
          2    1    1    2  502    0 -0.53505187302E+02 -0.41869540198E+00  0.86293464134E+02  0.10153591644E+03  0.00000000000E+00 0. -1.
          1    1    1    2  503    0  0.41499319151E+02  0.46723321244E+02 -0.26359921654E+04  0.26367328189E+04  0.00000000000E+00 0. -1.
<mgrwt>
<rscale>  0 0.57776104E+02</rscale>
<asrwt>0</asrwt>
<pdfrwt beam="2">  1        2 0.41229432E+00 0.62386025E+02</pdfrwt>
<pdfrwt beam="1">  1        1 0.33680902E-01 0.53506825E+02</pdfrwt>
<totfact> 0.68585334E+01</totfact>
</mgrwt>
</event>
<event>
 7    1  0.5277388E-004  0.5384657E+02  0.7546771E-02  0.1524196E+00
          1   -1    0    0  502    0 -0.00000000000E+00  0.00000000000E+00  0.27170514571E+02  0.27170514571E+02  0.00000000000E+00 0. -1.
          2   -1    0    0  503    0  0.00000000000E+00 -0.00000000000E+00 -0.13111429823E+04  0.13111429823E+04  0.00000000000E+00 0. -1.
         25    2    1    2    0    0  0.32897712457E+02  0.39262871686E+02 -0.80344497824E+03  0.81472253763E+03  0.12500059068E+03 0.  0.
          4    1    3    3  501    0  0.51775672076E+02  0.70150596519E+02 -0.38684127765E+03  0.39654711373E+03  0.12700000000E+01 0. -1.
         -4    1    3    3    0  501 -0.18877959619E+02 -0.30887724832E+02 -0.41660370059E+03  0.41817542390E+03  0.12700000000E+01 0. -1.
          2    1    1    2  502    0  0.19130958558E+02 -0.18606823881E+02  0.11015082208E+02  0.28871084260E+02  0.00000000000E+00 0. -1.
          3    1    1    2  503    0 -0.52028671015E+02 -0.20656047805E+02 -0.49154257166E+03  0.49471987495E+03  0.00000000000E+00 0. -1.
<mgrwt>
<rscale>  0 0.37907981E+02</rscale>
<asrwt>0</asrwt>
<pdfrwt beam="2">  1        2 0.20171433E+00 0.53846570E+02</pdfrwt>
<pdfrwt beam="1">  1        1 0.41800786E-02 0.26687215E+02</pdfrwt>
<totfact> 0.43923583E+03</totfact>
</mgrwt>
</event>
<event>
 7    1  0.5277388E-004  0.3555781E+02  0.7546771E-02  0.1632490E+00
          2   -1    0    0  503    0  0.00000000000E+00  0.00000000000E+00  0.70653458202E+03  0.70653458202E+03  0.00000000000E+00 0. -1.
          1   -1    0    0  502    0 -0.00000000000E+00 -0.00000000000E+00 -0.97672189641E+03  0.97672189641E+03  0.00000000000E+00 0. -1.
         25    2    1    2    0    0 -0.14164833091E+02 -0.31495997996E+02  0.89670408901E+02  0.15767146885E+03  0.12500747766E+03 0.  0.
          4    1    3    3  501    0  0.36158149114E+02  0.20630442471E+02 -0.92563923794E+00  0.41659292024E+02  0.12700000000E+01 0.  1.
         -4    1    3    3    0  501 -0.50322982205E+02 -0.52126440467E+02  0.90596048139E+02  0.11601217683E+03  0.12700000000E+01 0.  1.
          2    1    1    2  502    0  0.20339063644E+02 -0.36342188007E+01 -0.94206229849E+03  0.94228884070E+03  0.00000000000E+00 0. -1.
          1    1    1    2  503    0 -0.61742305536E+01  0.35130216797E+02  0.58220457520E+03  0.58329616889E+03  0.00000000000E+00 0. -1.
<mgrwt>
<rscale>  0 0.27104739E+02</rscale>
<asrwt>0</asrwt>
<pdfrwt beam="1">  1        2 0.10869763E+00 0.35557807E+02</pdfrwt>
<pdfrwt beam="2">  1        1 0.15026491E+00 0.20661197E+02</pdfrwt>
<totfact> 0.11910132E+02</totfact>
</mgrwt>
</event>
<event>
 7    1  0.5277388E-004  0.1023171E+03  0.7546771E-02  0.1309599E+00
          2   -1    0    0  503    0  0.00000000000E+00  0.00000000000E+00  0.14250161221E+04  0.14250161221E+04  0.00000000000E+00 0. -1.
          1   -1    0    0  502    0 -0.00000000000E+00 -0.00000000000E+00 -0.31293119203E+04  0.31293119203E+04  0.00000000000E+00 0. -1.
         25    2    1    2    0    0 -0.13200691559E+02  0.75795194436E+02 -0.24733605722E+03  0.28761535159E+03  0.12501318135E+03 0.  0.
          4    1    3    3  501    0  0.51341960650E+02  0.51945011493E+02 -0.90193105685E+02  0.11606330323E+03  0.12700000000E+01 0. -1.
         -4    1    3    3    0  501 -0.64542652209E+02  0.23850182943E+02 -0.15714295153E+03  0.17155204836E+03  0.12700000000E+01 0. -1.
          2    1    1    2  502    0 -0.72069254401E+02 -0.18625930780E+02 -0.28594757346E+04  0.28604444374E+04  0.00000000000E+00 0. -1.
          3    1    1    2  503    0  0.85269945960E+02 -0.57169263656E+02  0.14025159936E+04  0.14062682534E+04  0.00000000000E+00 0. -1.
<mgrwt>
<rscale>  0 0.87270843E+02</rscale>
<asrwt>0</asrwt>
<pdfrwt beam="1">  1        2 0.21923325E+00 0.10231707E+03</pdfrwt>
<pdfrwt beam="2">  1        1 0.48143260E+00 0.74437240E+02</pdfrwt>
<totfact> 0.16239940E+00</totfact>
</mgrwt>
</event>
<event>
 7    1  0.5277388E-004  0.7226649E+02  0.7546771E-02  0.1425859E+00
          2   -1    0    0  503    0  0.00000000000E+00  0.00000000000E+00  0.29840863120E+03  0.29840863120E+03  0.00000000000E+00 0. -1.
         -2   -1    0    0    0  501 -0.00000000000E+00 -0.00000000000E+00 -0.62372507225E+03  0.62372507225E+03  0.00000000000E+00 0.  1.
         25    2    1    2    0    0 -0.69605487171E+02  0.22002422305E+02 -0.19527372139E+03  0.24306785147E+03  0.12498449393E+03 0.  0.
          4    1    3    3  502    0  0.24290088925E+02 -0.77595260788E+01 -0.13593390280E+01  0.25567154076E+02  0.12700000000E+01 0. -1.
         -4    1    3    3    0  502 -0.93895576096E+02  0.29761948384E+02 -0.19391438236E+03  0.21750069740E+03  0.12700000000E+01 0. -1.
          1    1    1    2  503    0  0.21633956326E+02  0.33707359529E+02  0.26968027613E+03  0.27263834193E+03  0.00000000000E+00 0. -1.
         -1    1    1    2    0  501  0.47971530845E+02 -0.55709781834E+02 -0.39972299580E+03  0.40642751006E+03  0.00000000000E+00 0.  1.
<mgrwt>
<rscale>  0 0.53800223E+02</rscale>
<asrwt>0</asrwt>
<pdfrwt beam="1">  1        2 0.45909021E-01 0.40052642E+02</pdfrwt>
<pdfrwt beam="2">  1       -2 0.95957702E-01 0.72266493E+02</pdfrwt>
<totfact> 0.10701930E+02</totfact>
</mgrwt>
</event>
<event>
 7    1  0.5277388E-004  0.3520296E+02  0.7546771E-02  0.1607423E+00
          1   -1    0    0  502    0 -0.00000000000E+00  0.00000000000E+00  0.84178096174E+03  0.84178096174E+03  0.00000000000E+00 0. -1.
          2   -1    0    0  503    0  0.00000000000E+00 -0.00000000000E+00 -0.58748679106E+03  0.58748679106E+03  0.00000000000E+00 0. -1.
         25    2    1    2    0    0  0.30992664154E+02  0.76156392320E+01  0.23289569831E+03  0.26624422675E+03  0.12500815490E+03 0.  0.
          4    1    3    3  501    0  0.10927672608E+02 -0.52898766931E+02  0.16256825569E+03  0.17131183330E+03  0.12700000000E+01 0. -1.
         -4    1    3    3    0  501  0.20064991546E+02  0.60514406163E+02  0.70327442627E+02  0.94932393446E+02  0.12700000000E+01 0. -1.
          2    1    1    2  502    0 -0.11114651513E+02  0.21468105573E+02  0.59142030500E+03  0.59191417638E+03  0.00000000000E+00 0. -1.
          1    1    1    2  503    0 -0.19878012641E+02 -0.29083744805E+02 -0.57002183264E+03  0.57110934967E+03  0.00000000000E+00 0. -1.
<mgrwt>
<rscale>  0 0.29172249E+02</rscale>
<asrwt>0</asrwt>
<pdfrwt beam="2">  1        2 0.90382584E-01 0.35202957E+02</pdfrwt>
<pdfrwt beam="1">  1        1 0.12950476E+00 0.24174678E+02</pdfrwt>
<totfact> 0.17926431E+02</totfact>
</mgrwt>
</event>
<event>
 7    1  0.5277388E-004  0.1611271E+03  0.7546771E-02  0.1240531E+00
         -2   -1    0    0    0  501 -0.00000000000E+00  0.00000000000E+00  0.61069984630E+02  0.61069984630E+02  0.00000000000E+00 0.  1.
          2   -1    0    0  503    0  0.00000000000E+00 -0.00000000000E+00 -0.24309912959E+04  0.24309912959E+04  0.00000000000E+00 0. -1.
         25    2    1    2    0    0 -0.42564453914E+02  0.23424575943E+03 -0.69493487133E+03  0.74513850840E+03  0.12495644346E+03 0.  0.
          4    1    3    3  502    0 -0.65901059076E+02  0.23355645445E+03 -0.59674515120E+03  0.64420334941E+03  0.12700000000E+01 0. -1.
         -4    1    3    3    0  502  0.23336605163E+02  0.68930497563E+00 -0.98189720130E+02  0.10093515899E+03  0.12700000000E+01 0. -1.
          1    1    1    2  503    0  0.48770228856E+02 -0.14273357068E+03 -0.16428104783E+04  0.16497204839E+04  0.00000000000E+00 0. -1.
         -1    1    1    2    0  501 -0.62057749422E+01 -0.91512188749E+02 -0.32175961674E+02  0.97202288255E+02  0.00000000000E+00 0.  1.
<mgrwt>
<rscale>  0 0.12156875E+03</rscale>
<asrwt>0</asrwt>
<pdfrwt beam="2">  1        2 0.37399863E+00 0.16112712E+03</pdfrwt>
<pdfrwt beam="1">  1       -2 0.93953831E-02 0.91722365E+02</pdfrwt>
<totfact> 0.32023914E+02</totfact>
</mgrwt>
</event>
<event>
 7    1  0.5277388E-004  0.7806397E+02  0.7546771E-02  0.1473250E+00
          1   -1    0    0  502    0 -0.00000000000E+00  0.00000000000E+00  0.56862170705E+03  0.56862170705E+03  0.00000000000E+00 0. -1.
          2   -1    0    0  503    0  0.00000000000E+00 -0.00000000000E+00 -0.15299373205E+04  0.15299373205E+04  0.00000000000E+00 0. -1.
         25    2    1    2    0    0  0.28993249635E+02  0.46378881100E+02  0.11113217988E+03  0.17597432920E+03  0.12499997598E+03 0.  0.
          4    1    3    3  501    0  0.66001372127E+02  0.50470989622E+01  0.99116970995E+02  0.11919497124E+03  0.12700000000E+01 0. -1.
         -4    1    3    3    0  501 -0.37008122492E+02  0.41331782137E+02  0.12015208881E+02  0.56779357953E+02  0.12700000000E+01 0. -1.
          2    1    1    2  502    0 -0.43289048660E+02 -0.68266601915E+02  0.42110995879E+03  0.42879816705E+03  0.00000000000E+00 0. -1.
          1    1    1    2  503    0  0.14295799025E+02  0.21887720815E+02 -0.14935577521E+04  0.14937865313E+04  0.00000000000E+00 0. -1.
<mgrwt>
<rscale>  0 0.45175271E+02</rscale>
<asrwt>0</asrwt>
<pdfrwt beam="2">  1        2 0.23537497E+00 0.26142727E+02</pdfrwt>
<pdfrwt beam="1">  1        1 0.87480264E-01 0.78063970E+02</pdfrwt>
<totfact> 0.86735741E+01</totfact>
</mgrwt>
</event>
<event>
 7    1  0.5277388E-004  0.1515002E+03  0.7546771E-02  0.1312900E+00
         -2   -1    0    0    0  501 -0.00000000000E+00  0.00000000000E+00  0.25846049087E+03  0.25846049087E+03  0.00000000000E+00 0.  1.
          2   -1    0    0  503    0  0.00000000000E+00 -0.00000000000E+00 -0.17638054897E+04  0.17638054897E+04  0.00000000000E+00 0. -1.
         25    2    1    2    0    0  0.19383434486E+00  0.10417057220E+03 -0.83292297493E+03  0.84866737201E+03  0.12499632181E+03 0.  0.
          4    1    3    3  502    0  0.51234735939E+02  0.88447595728E+02 -0.65394543463E+03  0.66188686325E+03  0.12700000000E+01 0.  1.
         -4    1    3    3    0  502 -0.51040901594E+02  0.15722976470E+02 -0.17897754030E+03  0.18678050877E+03  0.12700000000E+01 0.  1.
          1    1    1    2  503    0  0.46521494704E+01  0.48568953108E+02 -0.89898909616E+03  0.90031215738E+03  0.00000000000E+00 0. -1.
         -1    1    1    2    0  501 -0.48459838153E+01 -0.15273952531E+03  0.22656707228E+03  0.27328645116E+03  0.00000000000E+00 0.  1.
<mgrwt>
<rscale>  0 0.85976055E+02</rscale>
<asrwt>0</asrwt>
<pdfrwt beam="2">  1        2 0.27135470E+00 0.48791246E+02</pdfrwt>
<pdfrwt beam="1">  1       -2 0.39763151E-01 0.15150017E+03</pdfrwt>
<totfact> 0.70842877E+01</totfact>
</mgrwt>
</event>
<event>
 7    1  0.5277388E-004  0.4457723E+02  0.7546771E-02  0.1480278E+00
          2   -1    0    0  503    0  0.00000000000E+00  0.00000000000E+00  0.45606842757E+03  0.45606842757E+03  0.00000000000E+00 0. -1.
          1   -1    0    0  502    0 -0.00000000000E+00 -0.00000000000E+00 -0.34619535764E+02  0.34619535764E+02  0.00000000000E+00 0. -1.
         25    2    1    2    0    0 -0.26545697786E+02 -0.34853028911E+02  0.25805237582E+03  0.29005923556E+03  0.12499569500E+03 0.  0.
          4    1    3    3  501    0 -0.75223698013E+02 -0.17211957603E+02  0.12068527077E+03  0.14325293613E+03  0.12700000000E+01 0. -1.
         -4    1    3    3    0  501  0.48678000228E+02 -0.17641071309E+02  0.13736710505E+03  0.14680629943E+03  0.12700000000E+01 0. -1.
          2    1    1    2  502    0 -0.20945695448E+02  0.39349811913E+02  0.18823182177E+02  0.48388449475E+02  0.00000000000E+00 0. -1.
          1    1    1    2  503    0  0.47491393234E+02 -0.44967830014E+01  0.14457333381E+03  0.15224027830E+03  0.00000000000E+00 0. -1.
<mgrwt>
<rscale>  0 0.44062975E+02</rscale>
<asrwt>0</asrwt>
<pdfrwt beam="1">  1        2 0.70164369E-01 0.43554648E+02</pdfrwt>
<pdfrwt beam="2">  1        1 0.53260828E-02 0.44577235E+02</pdfrwt>
<totfact> 0.12318785E+04</totfact>
</mgrwt>
</event>
<event>
 7    1  0.5277388E-004  0.1690769E+03  0.7546771E-02  0.1317567E+00
         -2   -1    0    0    0  501 -0.00000000000E+00  0.00000000000E+00  0.67312993785E+03  0.67312993785E+03  0.00000000000E+00 0.  1.
          2   -1    0    0  503    0  0.00000000000E+00 -0.00000000000E+00 -0.80647375329E+03  0.80647375329E+03  0.00000000000E+00 0. -1.
         25    2    1    2    0    0  0.16407727557E+03 -0.36401253225E+02 -0.24640881600E+03  0.32340266491E+03  0.12500230188E+03 0.  0.
          4    1    3    3  502    0  0.31023424252E+02  0.69476194738E+00  0.95980828146E+01  0.32506486125E+02  0.12700000000E+01 0.  1.
         -4    1    3    3    0  502  0.13305385132E+03 -0.37096015172E+02 -0.25600689882E+03  0.29089617879E+03  0.12700000000E+01 0.  1.
          1    1    1    2  503    0 -0.12919182213E+02 -0.39880054156E+02 -0.50939869008E+03  0.51112067992E+03  0.00000000000E+00 0. -1.
         -1    1    1    2    0  501 -0.15115809336E+03  0.76281307381E+02  0.62246369064E+03  0.64508034632E+03  0.00000000000E+00 0.  1.
<mgrwt>
<rscale>  0 0.84188952E+02</rscale>
<asrwt>0</asrwt>
<pdfrwt beam="2">  1        2 0.12407289E+00 0.41920448E+02</pdfrwt>
<pdfrwt beam="1">  1       -2 0.10355845E+00 0.16907691E+03</pdfrwt>
<totfact> 0.30670787E+01</totfact>
</mgrwt>
</event>
<event>
 7    1  0.5277388E-004  0.4914313E+02  0.7546771E-02  0.1472405E+00
          1   -1    0    0  502    0 -0.00000000000E+00  0.00000000000E+00  0.55085166806E+03  0.55085166806E+03  0.00000000000E+00 0. -1.
          2   -1    0    0  503    0  0.00000000000E+00 -0.00000000000E+00 -0.30586395776E+03  0.30586395776E+03  0.00000000000E+00 0. -1.
         25    2    1    2    0    0 -0.69452664654E+02  0.96296591011E+01  0.45371891367E+02  0.15033275370E+03  0.12499970139E+03 0.  0.
          4    1    3    3  501    0 -0.16351093395E+02  0.12678315456E+02 -0.42684139279E+02  0.47451518248E+02  0.12700000000E+01 0. -1.
         -4    1    3    3    0  501 -0.53101571259E+02 -0.30486563545E+01  0.88056030646E+02  0.10288123546E+03  0.12700000000E+01 0. -1.
          2    1    1    2  502    0  0.35381153856E+02 -0.33808650980E+02  0.44994136329E+03  0.45259483131E+03  0.00000000000E+00 0. -1.
          1    1    1    2  503    0  0.34071510798E+02  0.24178991879E+02 -0.25032554436E+03  0.25378804080E+03  0.00000000000E+00 0. -1.
<mgrwt>
<rscale>  0 0.45311752E+02</rscale>
<asrwt>0</asrwt>
<pdfrwt beam="2">  1        2 0.47055994E-01 0.41779080E+02</pdfrwt>
<pdfrwt beam="1">  1        1 0.84746410E-01 0.49143134E+02</pdfrwt>
<totfact> 0.59917286E+02</totfact>
</mgrwt>
</event>
<event>
 7    1  0.5277388E-004  0.5612005E+02  0.7546771E-02  0.1431391E+00
          2   -1    0    0  503    0  0.00000000000E+00  0.00000000000E+00  0.23199546129E+04  0.23199546129E+04  0.00000000000E+00 0. -1.
          1   -1    0    0  502    0 -0.00000000000E+00 -0.00000000000E+00 -0.18379716617E+03  0.18379716617E+03  0.00000000000E+00 0. -1.
         25    2    1    2    0    0  0.24580868266E+01  0.14227077384E+02  0.10683091529E+02  0.12628022665E+03  0.12499646106E+03 0.  0.
          4    1    3    3  501    0 -0.26472057915E+02  0.61977821560E+02 -0.68340499387E+01  0.67752028414E+02  0.12700000000E+01 0.  1.
         -4    1    3    3    0  501  0.28930144742E+02 -0.47750744176E+02  0.17517141467E+02  0.58528198241E+02  0.12700000000E+01 0.  1.
          2    1    1    2  502    0  0.24424311031E+02 -0.55736801782E+02 -0.11836263787E+03  0.13308963929E+03  0.00000000000E+00 0. -1.
          1    1    1    2  503    0 -0.26882397858E+02  0.41509724397E+02  0.22438369931E+04  0.22443819132E+04  0.00000000000E+00 0. -1.
<mgrwt>
<rscale>  0 0.52681817E+02</rscale>
<asrwt>0</asrwt>
<pdfrwt beam="1">  1        2 0.35691607E+00 0.49454227E+02</pdfrwt>
<pdfrwt beam="2">  1        1 0.28276489E-01 0.56120054E+02</pdfrwt>
<totfact> 0.13422872E+02</totfact>
</mgrwt>
</event>
<event>
 7    1  0.5277388E-004  0.5203139E+03  0.7546771E-02  0.1118878E+00
          2   -1    0    0  503    0  0.00000000000E+00  0.00000000000E+00  0.17137538119E+04  0.17137538119E+04  0.00000000000E+00 0. -1.
          1   -1    0    0  502    0 -0.00000000000E+00 -0.00000000000E+00 -0.88697954258E+03  0.88697954258E+03  0.00000000000E+00 0. -1.
         25    2    1    2    0    0  0.40211598958E+03 -0.25713963092E+03 -0.28690240469E+03  0.57075030207E+03  0.12499943454E+03 0.  0.
          4    1    3    3  501    0  0.34819321041E+03 -0.26599516818E+03 -0.24620608010E+03  0.50260420616E+03  0.12700000000E+01 0. -1.
         -4    1    3    3    0  501  0.53922779164E+02  0.88555372573E+01 -0.40696324588E+02  0.68146095910E+02  0.12700000000E+01 0. -1.
          2    1    1    2  502    0 -0.45376105936E+03  0.35649580912E+03 -0.27329599128E+03  0.63849750177E+03  0.00000000000E+00 0. -1.
          1    1    1    2  503    0  0.51645069787E+02 -0.99356178194E+02  0.13869726653E+04  0.13914855506E+04  0.00000000000E+00 0. -1.
<mgrwt>
<rscale>  0 0.24137777E+03</rscale>
<asrwt>0</asrwt>
<pdfrwt beam="1">  1        2 0.26365443E+00 0.11197707E+03</pdfrwt>
<pdfrwt beam="2">  1        1 0.13645839E+00 0.52031392E+03</pdfrwt>
<totfact> 0.29642774E+01</totfact>
</mgrwt>
</event>
<event>
 7    1  0.5277388E-004  0.8459250E+02  0.7546771E-02  0.1317805E+00
          2   -1    0    0  503    0  0.00000000000E+00  0.00000000000E+00  0.26712030570E+04  0.26712030570E+04  0.00000000000E+00 0. -1.
          1   -1    0    0  502    0 -0.00000000000E+00 -0.00000000000E+00 -0.17163547753E+03  0.17163547753E+03  0.00000000000E+00 0. -1.
         25    2    1    2    0    0  0.20138136092E+02  0.31156240422E+02  0.26153384127E+03  0.29223315709E+03  0.12499604846E+03 0.  0.
          4    1    3    3  501    0  0.10014333536E+02 -0.39117073438E+02  0.17832244155E+03  0.18284129285E+03  0.12700000000E+01 0.  1.
         -4    1    3    3    0  501  0.10123802556E+02  0.70273313860E+02  0.83211399727E+02  0.10939186425E+03  0.12700000000E+01 0.  1.
          2    1    1    2  502    0 -0.82993604237E+02  0.25457202372E+02 -0.14342179332E+03  0.16764789977E+03  0.00000000000E+00 0. -1.
          1    1    1    2  503    0  0.62855468145E+02 -0.56613442794E+02  0.23814555315E+04  0.23829574776E+04  0.00000000000E+00 0. -1.
<mgrwt>
<rscale>  0 0.84099314E+02</rscale>
<asrwt>0</asrwt>
<pdfrwt beam="1">  1        2 0.41095429E+00 0.84592504E+02</pdfrwt>
<pdfrwt beam="2">  1        1 0.26405460E-01 0.83608999E+02</pdfrwt>
<totfact> 0.89899180E+01</totfact>
</mgrwt>
</event>
<event>
 7    1  0.5277388E-004  0.7895063E+02  0.7546771E-02  0.1353529E+00
          1   -1    0    0  502    0 -0.00000000000E+00  0.00000000000E+00  0.70415809167E+03  0.70415809167E+03  0.00000000000E+00 0. -1.
          2   -1    0    0  503    0  0.00000000000E+00 -0.00000000000E+00 -0.52571839758E+03  0.52571839758E+03  0.00000000000E+00 0. -1.
         25    2    1    2    0    0 -0.36418610857E+02 -0.28711195359E+02 -0.23808813351E+03  0.27288026128E+03  0.12500811863E+03 0.  0.
          4    1    3    3  501    0 -0.51371246976E+02 -0.21659153848E+02 -0.28478758481E+02  0.62616104525E+02  0.12700000000E+01 0. -1.
         -4    1    3    3    0  501  0.14952636118E+02 -0.70520415109E+01 -0.20960937503E+03  0.21026415676E+03  0.12700000000E+01 0. -1.
          2    1    1    2  502    0 -0.54159348845E+01  0.79242327433E+02  0.68043637230E+03  0.68505644698E+03  0.00000000000E+00 0. -1.
          1    1    1    2  503    0  0.41834545742E+02 -0.50531132074E+02 -0.26390854469E+03  0.27193978099E+03  0.00000000000E+00 0. -1.
<mgrwt>
<rscale>  0 0.71967079E+02</rscale>
<asrwt>0</asrwt>
<pdfrwt beam="2">  1        2 0.80879753E-01 0.65601254E+02</pdfrwt>
<pdfrwt beam="1">  1        1 0.10833201E+00 0.78950632E+02</pdfrwt>
<totfact> 0.24232900E+02</totfact>
</mgrwt>
</event>
<event>
 7    1  0.5277388E-004  0.3897621E+02  0.7546771E-02  0.1551408E+00
          2   -1    0    0  503    0  0.00000000000E+00  0.00000000000E+00  0.12261811111E+04  0.12261811111E+04  0.00000000000E+00 0. -1.
         -2   -1    0    0    0  501 -0.00000000000E+00 -0.00000000000E+00 -0.11531255332E+02  0.11531255332E+02  0.00000000000E+00 0.  1.
         25    2    1    2    0    0 -0.93718028894E+01  0.15116483634E+02  0.50871741398E+03  0.52415199060E+03  0.12500225277E+03 0.  0.
          4    1    3    3  502    0 -0.26911020356E+02 -0.47078023132E+01  0.18048009268E+02  0.32767513756E+02  0.12700000000E+01 0.  1.
         -4    1    3    3    0  502  0.17539217466E+02  0.19824285947E+02  0.49066940472E+03  0.49138447685E+03  0.12700000000E+01 0.  1.
          1    1    1    2  503    0  0.39883668488E+02 -0.10442696865E+02  0.63330381436E+03  0.63464437145E+03  0.00000000000E+00 0. -1.
         -1    1    1    2    0  501 -0.30511865598E+02 -0.46737867683E+01  0.72628627390E+02  0.78916004344E+02  0.00000000000E+00 0.  1.
<mgrwt>
<rscale>  0 0.34685850E+02</rscale>
<asrwt>0</asrwt>
<pdfrwt beam="1">  1        2 0.18864314E+00 0.38976214E+02</pdfrwt>
<pdfrwt beam="2">  1       -2 0.17740402E-02 0.30867754E+02</pdfrwt>
<totfact> 0.14838831E+04</totfact>
</mgrwt>
</event>
<event>
 7    1  0.5277388E-004  0.1909323E+03  0.7546771E-02  0.1232776E+00
         -1   -1    0    0    0  501 -0.00000000000E+00  0.00000000000E+00  0.15792074466E+03  0.15792074466E+03  0.00000000000E+00 0.  1.
          1   -1    0    0  503    0  0.00000000000E+00 -0.00000000000E+00 -0.71532467539E+03  0.71532467539E+03  0.00000000000E+00 0. -1.
         25    2    1    2    0    0 -0.24376669707E+03 -0.98198436749E+02 -0.43434041780E+03  0.52282103453E+03  0.12500040015E+03 0.  0.
          4    1    3    3  502    0 -0.74809419402E+02  0.28075093262E+02 -0.11153128069E+03  0.13720604784E+03  0.12700000000E+01 0. -1.
         -4    1    3    3    0  502 -0.16895727766E+03 -0.12627353001E+03 -0.32280913711E+03  0.38561498669E+03  0.12700000000E+01 0. -1.
          2    1    1    2  503    0  0.79270846779E+02  0.27123333723E+02 -0.14743767697E+03  0.16958010193E+03  0.00000000000E+00 0. -1.
         -2    1    1    2    0  501  0.16449585029E+03  0.71075103026E+02  0.24374164045E+02  0.18084428358E+03  0.00000000000E+00 0.  1.
<mgrwt>
<rscale>  0 0.12647855E+03</rscale>
<asrwt>0</asrwt>
<pdfrwt beam="2">  1        1 0.11004995E+00 0.83782709E+02</pdfrwt>
<pdfrwt beam="1">  1       -1 0.24295500E-01 0.19093228E+03</pdfrwt>
<totfact> 0.41886439E+02</totfact>
</mgrwt>
</event>
<event>
 7    1  0.5277388E-004  0.7995048E+02  0.7546771E-02  0.1418066E+00
          2   -1    0    0  503    0  0.00000000000E+00  0.00000000000E+00  0.27811048533E+03  0.27811048533E+03  0.00000000000E+00 0. -1.
          1   -1    0    0  502    0 -0.00000000000E+00 -0.00000000000E+00 -0.31184955593E+03  0.31184955593E+03  0.00000000000E+00 0. -1.
         25    2    1    2    0    0  0.49019791183E+02 -0.96946931379E+02 -0.14007938539E+03  0.21690754428E+03  0.12500000450E+03 0.  0.
          4    1    3    3  501    0  0.89078356501E+02 -0.70368637962E+02 -0.11879132811E+03  0.16431582803E+03  0.12700000000E+01 0.  1.
         -4    1    3    3    0  501 -0.40058565318E+02 -0.26578293417E+02 -0.21288057274E+02  0.52591716256E+02  0.12700000000E+01 0.  1.
          2    1    1    2  502    0 -0.22496558629E+02  0.69133245537E+02 -0.12171868977E+03  0.14177778468E+03  0.00000000000E+00 0. -1.
          1    1    1    2  503    0 -0.26523232554E+02  0.27813685842E+02  0.22805900456E+03  0.23127471229E+03  0.00000000000E+00 0. -1.
<mgrwt>
<rscale>  0 0.55432154E+02</rscale>
<asrwt>0</asrwt>
<pdfrwt beam="1">  1        2 0.42786228E-01 0.38432837E+02</pdfrwt>
<pdfrwt beam="2">  1        1 0.47976855E-01 0.79950477E+02</pdfrwt>
<totfact> 0.13222917E+03</totfact>
</mgrwt>
</event>
<event>
 7    1  0.5277388E-004  0.3006802E+02  0.7546771E-02  0.1629929E+00
          2   -1    0    0  503    0  0.00000000000E+00  0.00000000000E+00  0.72991993870E+03  0.72991993870E+03  0.00000000000E+00 0. -1.
         -2   -1    0    0    0  501 -0.00000000000E+00 -0.00000000000E+00 -0.23195995802E+02  0.23195995802E+02  0.00000000000E+00 0.  1.
         25    2    1    2    0    0  0.47959728693E+01  0.97754298493E+01  0.56517542965E+03  0.57893590544E+03  0.12499982375E+03 0.  0.
          4    1    3    3  502    0 -0.55390990803E+02 -0.20264031484E+01  0.37591260838E+03  0.37997917076E+03  0.12700000000E+01 0. -1.
         -4    1    3    3    0  502  0.60186963673E+02  0.11801832998E+02  0.18926282127E+03  0.19895673468E+03  0.12700000000E+01 0. -1.
          1    1    1    2  503    0 -0.16339424921E+02  0.18653704780E+02  0.14133702570E+03  0.14349596630E+03  0.00000000000E+00 0. -1.
         -1    1    1    2    0  501  0.11543452052E+02 -0.28429134629E+02  0.21148754546E+00  0.30684062769E+02  0.00000000000E+00 0.  1.
<mgrwt>
<rscale>  0 0.27306128E+02</rscale>
<asrwt>0</asrwt>
<pdfrwt beam="1">  1        2 0.11229536E+00 0.24797934E+02</pdfrwt>
<pdfrwt beam="2">  1       -2 0.35686153E-02 0.30068016E+02</pdfrwt>
<totfact> 0.10900740E+04</totfact>
</mgrwt>
</event>
<event>
 7    1  0.5277388E-004  0.8642037E+02  0.7546771E-02  0.1367830E+00
         -2   -1    0    0    0  501 -0.00000000000E+00  0.00000000000E+00  0.45292863840E+03  0.45292863840E+03  0.00000000000E+00 0.  1.
          2   -1    0    0  503    0  0.00000000000E+00 -0.00000000000E+00 -0.33409693853E+03  0.33409693853E+03  0.00000000000E+00 0. -1.
         25    2    1    2    0    0 -0.32770174930E+02  0.99496290498E+02 -0.25488550968E+02  0.16506894402E+03  0.12499877544E+03 0.  0.
          4    1    3    3  502    0 -0.19261746997E+02  0.12833559229E+03 -0.11580284902E+02  0.13029487728E+03  0.12700000000E+01 0. -1.
         -4    1    3    3    0  502 -0.13508427933E+02 -0.28839301792E+02 -0.13908266066E+02  0.34774066746E+02  0.12700000000E+01 0. -1.
          1    1    1    2  503    0  0.64352303264E+02 -0.56745989201E+02 -0.22916952135E+03  0.24470389400E+03  0.00000000000E+00 0. -1.
         -1    1    1    2    0  501 -0.31582128333E+02 -0.42750301297E+02  0.37348977218E+03  0.37725273891E+03  0.00000000000E+00 0.  1.
<mgrwt>
<rscale>  0 0.67774047E+02</rscale>
<asrwt>0</asrwt>
<pdfrwt beam="2">  1        2 0.51399529E-01 0.86420375E+02</pdfrwt>
<pdfrwt beam="1">  1       -2 0.69681329E-01 0.53150909E+02</pdfrwt>
<totfact> 0.19270980E+02</totfact>
</mgrwt>
</event>
<event>
 7    1  0.5277388E-004  0.1529837E+03  0.7546771E-02  0.1309169E+00
          1   -1    0    0  502    0 -0.00000000000E+00  0.00000000000E+00  0.12204250064E+04  0.12204250064E+04  0.00000000000E+00 0. -1.
          2   -1    0    0  503    0  0.00000000000E+00 -0.00000000000E+00 -0.97136151229E+02  0.97136151229E+02  0.00000000000E+00 0. -1.
         25    2    1    2    0    0  0.91061738957E+02 -0.59752263797E+02  0.55312671905E+02  0.17478363876E+03  0.12500902117E+03 0.  0.
          4    1    3    3  501    0 -0.29101477005E+02 -0.30230778641E+02  0.16333857159E+02  0.45046683904E+02  0.12700000000E+01 0.  1.
         -4    1    3    3    0  501  0.12016321596E+03 -0.29521485157E+02  0.38978814746E+02  0.12973695486E+03  0.12700000000E+01 0.  1.
          2    1    1    2  502    0 -0.12240617055E+03  0.98680873532E+02  0.10799897450E+04  0.10913748369E+04  0.00000000000E+00 0. -1.
          1    1    1    2  503    0  0.31344431596E+02 -0.38928609734E+02 -0.12013561706E+02  0.51402681961E+02  0.00000000000E+00 0. -1.
<mgrwt>
<rscale>  0 0.87441327E+02</rscale>
<asrwt>0</asrwt>
<pdfrwt beam="2">  1        2 0.14944024E-01 0.49979096E+02</pdfrwt>
<pdfrwt beam="1">  1        1 0.18775768E+00 0.15298367E+03</pdfrwt>
<totfact> 0.56930629E+02</totfact>
</mgrwt>
</event>
<event>
 7    1  0.5277388E-004  0.4778695E+02  0.7546771E-02  0.1517669E+00
          2   -1    0    0  503    0  0.00000000000E+00  0.00000000000E+00  0.27144874040E+04  0.27144874040E+04  0.00000000000E+00 0. -1.
          1   -1    0    0  502    0 -0.00000000000E+00 -0.00000000000E+00 -0.19964704654E+02  0.19964704654E+02  0.00000000000E+00 0. -1.
         25    2    1    2    0    0 -0.81658157812E+00  0.18483160177E+02  0.16445360141E+04  0.16493768901E+04  0.12491248854E+03 0.  0.
          4    1    3    3  501    0 -0.50108187742E+02 -0.16471998457E+02  0.11421738567E+04  0.11433918353E+04  0.12700000000E+01 0.  1.
         -4    1    3    3    0  501  0.49291606164E+02  0.34955158634E+02  0.50236215742E+03  0.50598505478E+03  0.12700000000E+01 0.  1.
          2    1    1    2  502    0 -0.13290708069E+02 -0.46548089907E+02  0.16547019399E+02  0.51158297919E+02  0.00000000000E+00 0. -1.
          1    1    1    2  503    0  0.14107289647E+02  0.28064929730E+02  0.10334396658E+04  0.10339169207E+04  0.00000000000E+00 0. -1.
<mgrwt>
<rscale>  0 0.38743255E+02</rscale>
<asrwt>0</asrwt>
<pdfrwt beam="1">  1        2 0.41761315E+00 0.31411079E+02</pdfrwt>
<pdfrwt beam="2">  1        1 0.30714952E-02 0.47786953E+02</pdfrwt>
<totfact> 0.15531967E+03</totfact>
</mgrwt>
</event>
<event>
 7    1  0.5277388E-004  0.1018721E+03  0.7546771E-02  0.1425764E+00
          2   -1    0    0  503    0  0.00000000000E+00  0.00000000000E+00  0.94997580082E+03  0.94997580082E+03  0.00000000000E+00 0. -1.
         -2   -1    0    0    0  501 -0.00000000000E+00 -0.00000000000E+00 -0.80756503572E+03  0.80756503572E+03  0.00000000000E+00 0.  1.
         25    2    1    2    0    0 -0.78536232829E+02 -0.43073914564E+01 -0.16166818824E+03  0.21896950309E+03  0.12499818681E+03 0.  0.
          4    1    3    3  502    0 -0.76342067946E+02 -0.78435837764E+01 -0.22850515053E+02  0.80083656778E+02  0.12700000000E+01 0. -1.
         -4    1    3    3    0  502 -0.21941648828E+01  0.35361923199E+01 -0.13881767319E+03  0.13888584631E+03  0.12700000000E+01 0. -1.
          1    1    1    2  503    0 -0.25789099556E+02 -0.11974216589E+02  0.91658750822E+03  0.91702841817E+03  0.00000000000E+00 0. -1.
         -3    1    1    2    0  501  0.10432533238E+03  0.16281608045E+02 -0.61250855487E+03  0.62154291528E+03  0.00000000000E+00 0.  1.
<mgrwt>
<rscale>  0 0.53819812E+02</rscale>
<asrwt>0</asrwt>
<pdfrwt beam="1">  1        2 0.14615012E+00 0.28433423E+02</pdfrwt>
<pdfrwt beam="2">  1       -2 0.12424077E+00 0.10187209E+03</pdfrwt>
<totfact> 0.16929216E+01</totfact>
</mgrwt>
</event>
<event>
 7    1  0.5277388E-004  0.6778744E+02  0.7546771E-02  0.1486648E+00
          2   -1    0    0  503    0  0.00000000000E+00  0.00000000000E+00  0.20836628527E+04  0.20836628527E+04  0.00000000000E+00 0. -1.
          1   -1    0    0  502    0 -0.00000000000E+00 -0.00000000000E+00 -0.54295635932E+02  0.54295635932E+02  0.00000000000E+00 0. -1.
         25    2    1    2    0    0  0.31035861345E+02 -0.43434127800E+02  0.27705783135E+03  0.30860514052E+03  0.12500537067E+03 0.  0.
          4    1    3    3  501    0 -0.48741397587E+02 -0.13267543929E+02  0.97507976849E+02  0.10982335822E+03  0.12700000000E+01 0.  1.
         -4    1    3    3    0  501  0.79777258932E+02 -0.30166583870E+02  0.17954985450E+03  0.19878178231E+03  0.12700000000E+01 0.  1.
          2    1    1    2  502    0 -0.14672362487E+02 -0.23125352527E+02 -0.32912045091E+02  0.42816618999E+02  0.00000000000E+00 0. -1.
          1    1    1    2  503    0 -0.16363498858E+02  0.66559480326E+02  0.17852214305E+04  0.17865367291E+04  0.00000000000E+00 0. -1.
<mgrwt>
<rscale>  0 0.43087238E+02</rscale>
<asrwt>0</asrwt>
<pdfrwt beam="1">  1        2 0.32056345E+00 0.67787445E+02</pdfrwt>
<pdfrwt beam="2">  1        1 0.83531764E-02 0.27387226E+02</pdfrwt>
<totfact> 0.73250514E+02</totfact>
</mgrwt>
</event>
<event>
 7    1  0.5277388E-004  0.9528096E+02  0.7546771E-02  0.1396982E+00
         -2   -1    0    0    0  501 -0.00000000000E+00  0.00000000000E+00  0.23428636607E+02  0.23428636607E+02  0.00000000000E+00 0. -1.
          2   -1    0    0  503    0  0.00000000000E+00 -0.00000000000E+00 -0.19272977809E+04  0.19272977809E+04  0.00000000000E+00 0.  1.
         25    2    1    2    0    0 -0.57126367855E+02  0.95673104571E+02 -0.32775380250E+03  0.36805362890E+03  0.12499661535E+03 0.  0.
          4    1    3    3  502    0 -0.75472687519E+01  0.30414418567E+02 -0.25950674219E+03  0.26139502724E+03  0.12700000000E+01 0.  1.
         -4    1    3    3    0  502 -0.49579099103E+02  0.65258686004E+02 -0.68247060309E+02  0.10665860166E+03  0.12700000000E+01 0.  1.
          1    1    1    2  503    0  0.23795050888E+02 -0.29677539537E+02 -0.11165762222E+04  0.11172239797E+04  0.00000000000E+00 0. -1.
         -1    1    1    2    0  501  0.33331316968E+02 -0.65995565034E+02 -0.45953911962E+03  0.46544880895E+03  0.00000000000E+00 0.  1.
<mgrwt>
<rscale>  0 0.60202879E+02</rscale>
<asrwt>0</asrwt>
<pdfrwt beam="2">  1        2 0.29650739E+00 0.38038938E+02</pdfrwt>
<pdfrwt beam="1">  1       -2 0.36044052E-02 0.95280963E+02</pdfrwt>
<totfact> 0.28987980E+03</totfact>
</mgrwt>
</event>
<event>
 7    1  0.5277388E-004  0.5969306E+02  0.7546771E-02  0.1415069E+00
          2   -1    0    0  503    0  0.00000000000E+00  0.00000000000E+00  0.30039577164E+04  0.30039577164E+04  0.00000000000E+00 0. -1.
          3   -1    0    0  502    0 -0.00000000000E+00 -0.00000000000E+00 -0.38516436800E+02  0.38516436800E+02  0.00000000000E+00 0. -1.
         25    2    1    2    0    0 -0.34959705309E+02  0.10139297880E+03  0.77487552174E+03  0.79218730031E+03  0.12500370971E+03 0.  0.
          4    1    3    3  501    0 -0.38426954292E+02  0.37018844144E+02  0.64481876048E+03  0.64702385768E+03  0.12700000000E+01 0. -1.
         -4    1    3    3    0  501  0.34672489836E+01  0.64374134658E+02  0.13005676126E+03  0.14516344263E+03  0.12700000000E+01 0. -1.
          2    1    1    2  502    0  0.31420664946E+02 -0.48830428625E+02 -0.10130911056E+01  0.58074911097E+02  0.00000000000E+00 0. -1.
          1    1    1    2  503    0  0.35390403625E+01 -0.52562550177E+02  0.21915788490E+04  0.21922119418E+04  0.00000000000E+00 0. -1.
<mgrwt>
<rscale>  0 0.56077833E+02</rscale>
<asrwt>0</asrwt>
<pdfrwt beam="1">  1        2 0.46214716E+00 0.52681557E+02</pdfrwt>
<pdfrwt beam="2">  1        3 0.59256080E-02 0.59693060E+02</pdfrwt>
<totfact> 0.24538565E+02</totfact>
</mgrwt>
</event>
<event>
 7    1  0.5277388E-004  0.6352058E+02  0.7546771E-02  0.1406626E+00
          2   -1    0    0  503    0  0.00000000000E+00  0.00000000000E+00  0.36067229775E+04  0.36067229775E+04  0.00000000000E+00 0. -1.
         -2   -1    0    0    0  501 -0.00000000000E+00 -0.00000000000E+00 -0.21574370235E+02  0.21574370235E+02  0.00000000000E+00 0.  1.
         25    2    1    2    0    0  0.66418441406E+02 -0.74817405072E+02  0.13808185768E+04  0.13900721069E+04  0.12502586471E+03 0.  0.
          4    1    3    3  502    0  0.18818087728E+02 -0.65235476040E+02  0.12244921665E+04  0.12263737059E+04  0.12700000000E+01 0.  1.
         -4    1    3    3    0  502  0.47600353678E+02 -0.95819290324E+01  0.15632641033E+03  0.16369840103E+03  0.12700000000E+01 0.  1.
          1    1    1    2  503    0 -0.16012204326E+02  0.58851467337E+02  0.21785451129E+04  0.21793987002E+04  0.00000000000E+00 0. -1.
         -1    1    1    2    0  501 -0.50406237081E+02  0.15965937735E+02  0.25784917630E+02  0.58826540622E+02  0.00000000000E+00 0.  1.
<mgrwt>
<rscale>  0 0.57953525E+02</rscale>
<asrwt>0</asrwt>
<pdfrwt beam="1">  1        2 0.55487998E+00 0.63520578E+02</pdfrwt>
<pdfrwt beam="2">  1       -2 0.33191367E-02 0.52874379E+02</pdfrwt>
<totfact> 0.34506380E+02</totfact>
</mgrwt>
</event>
<event>
 7    1  0.5277388E-004  0.5380999E+02  0.7546771E-02  0.1432306E+00
         -1   -1    0    0    0  502 -0.00000000000E+00  0.00000000000E+00  0.44572577865E+03  0.44572577865E+03  0.00000000000E+00 0.  1.
         -2   -1    0    0    0  501  0.00000000000E+00 -0.00000000000E+00 -0.53066190651E+02  0.53066190651E+02  0.00000000000E+00 0.  1.
         25    2    1    2    0    0 -0.29154140434E+02  0.12135486191E+02  0.81488152034E+02  0.15251932227E+03  0.12499836325E+03 0.  0.
          4    1    3    3  503    0 -0.43510206071E+02  0.35961520909E+01  0.11061100250E+03  0.11892214729E+03  0.12700000000E+01 0. -1.
         -4    1    3    3    0  503  0.14356065637E+02  0.85393341001E+01 -0.29122850464E+02  0.33597174980E+02  0.12700000000E+01 0. -1.
         -2    1    1    2    0  502 -0.45800281696E+01 -0.54058284266E+02  0.27759426555E+03  0.28284598463E+03  0.00000000000E+00 0.  1.
         -1    1    1    2    0  501  0.33734168604E+02  0.41922798075E+02  0.33577170408E+02  0.63426662394E+02  0.00000000000E+00 0.  1.
<mgrwt>
<rscale>  0 0.52499985E+02</rscale>
<asrwt>0</asrwt>
<pdfrwt beam="2">  1       -2 0.81640297E-02 0.53809991E+02</pdfrwt>
<pdfrwt beam="1">  1       -1 0.68573194E-01 0.51221872E+02</pdfrwt>
<totfact> 0.13941290E+03</totfact>
</mgrwt>
</event>
<event>
 7    1  0.5277388E-004  0.1029034E+03  0.7546771E-02  0.1311087E+00
         -2   -1    0    0    0  501 -0.00000000000E+00  0.00000000000E+00  0.31843077598E+03  0.31843077598E+03  0.00000000000E+00 0.  1.
          2   -1    0    0  503    0  0.00000000000E+00 -0.00000000000E+00 -0.22660619632E+04  0.22660619632E+04  0.00000000000E+00 0. -1.
         25    2    1    2    0    0 -0.11104792079E+03 -0.10848690423E+03  0.14505125572E+03  0.24650766950E+03  0.12500046095E+03 0.  0.
          4    1    3    3  502    0 -0.12195891533E+03 -0.84411026555E+02  0.64541780423E+02  0.16176047958E+03  0.12700000000E+01 0. -1.
         -4    1    3    3    0  502  0.10910994545E+02 -0.24075877673E+02  0.80509475294E+02  0.84747189922E+02  0.12700000000E+01 0. -1.
          1    1    1    2  503    0  0.95724424420E+02  0.37091827835E+02 -0.22031632157E+04  0.22055537001E+04  0.00000000000E+00 0. -1.
         -1    1    1    2    0  501  0.15323496370E+02  0.71395076393E+02  0.11048077280E+03  0.13243136952E+03  0.00000000000E+00 0.  1.
<mgrwt>
<rscale>  0 0.86683952E+02</rscale>
<asrwt>0</asrwt>
<pdfrwt beam="2">  1        2 0.34862492E+00 0.10290338E+03</pdfrwt>
<pdfrwt beam="1">  1       -2 0.48989350E-01 0.73021000E+02</pdfrwt>
<totfact> 0.24415513E+01</totfact>
</mgrwt>
</event>
<event>
 7    1  0.5277388E-004  0.1109099E+03  0.7546771E-02  0.1283115E+00
          2   -1    0    0  503    0  0.00000000000E+00  0.00000000000E+00  0.14744889859E+04  0.14744889859E+04  0.00000000000E+00 0. -1.
         -2   -1    0    0    0  501 -0.00000000000E+00 -0.00000000000E+00 -0.15028606798E+04  0.15028606798E+04  0.00000000000E+00 0.  1.
         25    2    1    2    0    0 -0.12365830296E+03  0.14978858717E+03  0.16343981890E+03  0.28296085178E+03  0.12500508991E+03 0.  0.
          4    1    3    3  502    0 -0.53461523731E+01  0.95242290615E+02  0.39878649108E+02  0.10340016838E+03  0.12700000000E+01 0.  1.
         -4    1    3    3    0  502 -0.11831215058E+03  0.54546296555E+02  0.12356116979E+03  0.17956068340E+03  0.12700000000E+01 0.  1.
          1    1    1    2  503    0  0.76704578847E+02 -0.75618407687E+02  0.12476311132E+04  0.12522719875E+04  0.00000000000E+00 0. -1.
         -1    1    1    2    0  501  0.46953724108E+02 -0.74170179483E+02 -0.14394426259E+04  0.14421168264E+04  0.00000000000E+00 0.  1.
<mgrwt>
<rscale>  0 0.98671242E+02</rscale>
<asrwt>0</asrwt>
<pdfrwt beam="1">  1        2 0.22684446E+00 0.11090993E+03</pdfrwt>
<pdfrwt beam="2">  1       -2 0.23120934E+00 0.87783072E+02</pdfrwt>
<totfact> 0.15588825E+00</totfact>
</mgrwt>
</event>
<event>
 7    1  0.5277388E-004  0.4469845E+02  0.7546771E-02  0.1582409E+00
          1   -1    0    0  502    0 -0.00000000000E+00  0.00000000000E+00  0.32356327680E+03  0.32356327680E+03  0.00000000000E+00 0. -1.
          2   -1    0    0  503    0  0.00000000000E+00 -0.00000000000E+00 -0.36248907066E+03  0.36248907066E+03  0.00000000000E+00 0. -1.
         25    2    1    2    0    0  0.33992672776E+02  0.44413658220E+02 -0.72500585838E+01  0.13713131211E+03  0.12499743426E+03 0.  0.
          4    1    3    3  501    0  0.91254485515E+01 -0.34680052905E+02 -0.34569706348E+02  0.49826271964E+02  0.12700000000E+01 0.  1.
         -4    1    3    3    0  501  0.24867224224E+02  0.79093711125E+02  0.27319647765E+02  0.87305040141E+02  0.12700000000E+01 0.  1.
          2    1    1    2  502    0  0.43001542794E+01 -0.21731987499E+02  0.25643644607E+03  0.25739157228E+03  0.00000000000E+00 0. -1.
          1    1    1    2  503    0 -0.38292827055E+02 -0.22681670721E+02 -0.28811218136E+03  0.29152946307E+03  0.00000000000E+00 0. -1.
<mgrwt>
<rscale>  0 0.31467764E+02</rscale>
<asrwt>0</asrwt>
<pdfrwt beam="2">  1        2 0.55767549E-01 0.44698453E+02</pdfrwt>
<pdfrwt beam="1">  1        1 0.49778966E-01 0.22153343E+02</pdfrwt>
<totfact> 0.96509374E+02</totfact>
</mgrwt>
</event>
<event>
 7    1  0.5277388E-004  0.5692700E+02  0.7546771E-02  0.1458487E+00
          1   -1    0    0  502    0 -0.00000000000E+00  0.00000000000E+00  0.62110202226E+03  0.62110202226E+03  0.00000000000E+00 0. -1.
          2   -1    0    0  503    0  0.00000000000E+00 -0.00000000000E+00 -0.44608262745E+03  0.44608262745E+03  0.00000000000E+00 0. -1.
         25    2    1    2    0    0 -0.27410996923E+01  0.30342245645E+02  0.53519744467E+03  0.55044485773E+03  0.12500028447E+03 0.  0.
          4    1    3    3  501    0  0.49351459192E+01  0.64521551426E+02  0.48452954618E+03  0.48883318247E+03  0.12700000000E+01 0.  1.
         -4    1    3    3    0  501 -0.76762456115E+01 -0.34179305781E+02  0.50667898493E+02  0.61611675258E+02  0.12700000000E+01 0.  1.
          2    1    1    2  502    0 -0.38930901115E+02  0.86142410063E+01  0.71201059968E+02  0.81605215215E+02  0.00000000000E+00 0. -1.
          1    1    1    2  503    0  0.41672000807E+02 -0.38956486651E+02 -0.43137910982E+03  0.43513457676E+03  0.00000000000E+00 0. -1.
<mgrwt>
<rscale>  0 0.47642677E+02</rscale>
<asrwt>0</asrwt>
<pdfrwt beam="2">  1        2 0.68628097E-01 0.56927001E+02</pdfrwt>
<pdfrwt beam="1">  1        1 0.95554157E-01 0.39872550E+02</pdfrwt>
<totfact> 0.35129169E+02</totfact>
</mgrwt>
</event>
<event>
 7    1  0.5277388E-004  0.7182006E+02  0.7546771E-02  0.1402196E+00
          1   -1    0    0  502    0 -0.00000000000E+00  0.00000000000E+00  0.58380686914E+03  0.58380686914E+03  0.00000000000E+00 0. -1.
          2   -1    0    0  503    0  0.00000000000E+00 -0.00000000000E+00 -0.22176476310E+03  0.22176476310E+03  0.00000000000E+00 0. -1.
         25    2    1    2    0    0 -0.64025656935E+02 -0.70940692513E+02  0.41444053940E+03  0.44330341497E+03  0.12500036170E+03 0.  0.
          4    1    3    3  501    0 -0.89211548060E+02 -0.89048581745E+02  0.32235317465E+03  0.34612357956E+03  0.12700000000E+01 0. -1.
         -4    1    3    3    0  501  0.25185891125E+02  0.18107889231E+02  0.92087364751E+02  0.97179835413E+02  0.12700000000E+01 0. -1.
          2    1    1    2  502    0  0.59535290611E+02  0.22726731354E+02  0.14533490995E+03  0.15869212708E+03  0.00000000000E+00 0. -1.
          1    1    1    2  503    0  0.44903663244E+01  0.48213961160E+02 -0.19773334332E+03  0.20357609020E+03  0.00000000000E+00 0. -1.
<mgrwt>
<rscale>  0 0.58972156E+02</rscale>
<asrwt>0</asrwt>
<pdfrwt beam="2">  1        2 0.34117656E-01 0.48422613E+02</pdfrwt>
<pdfrwt beam="1">  1        1 0.89816441E-01 0.71820064E+02</pdfrwt>
<totfact> 0.76530757E+02</totfact>
</mgrwt>
</event>
<event>
 7    1  0.5277388E-004  0.8119368E+02  0.7546771E-02  0.1501844E+00
          2   -1    0    0  503    0  0.00000000000E+00  0.00000000000E+00  0.12576242940E+04  0.12576242940E+04  0.00000000000E+00 0. -1.
         -2   -1    0    0    0  501 -0.00000000000E+00 -0.00000000000E+00 -0.10073152318E+03  0.10073152318E+03  0.00000000000E+00 0.  1.
         25    2    1    2    0    0  0.76717101186E+02 -0.18309446283E+02  0.13540145696E+03  0.20044837482E+03  0.12500098793E+03 0.  0.
          4    1    3    3  502    0  0.15177710156E+02  0.50833812737E+02  0.66343512098E+02  0.84955952707E+02  0.12700000000E+01 0.  1.
         -4    1    3    3    0  502  0.61539391030E+02 -0.69143259020E+02  0.69057944865E+02  0.11549242211E+03  0.12700000000E+01 0.  1.
          1    1    1    2  503    0  0.51262622437E+01  0.19932424576E+02  0.10650033333E+04  0.10652021780E+04  0.00000000000E+00 0. -1.
         -1    1    1    2    0  501 -0.81843363430E+02 -0.16229782927E+01 -0.43512019463E+02  0.92705264326E+02  0.00000000000E+00 0.  1.
<mgrwt>
<rscale>  0 0.40878506E+02</rscale>
<asrwt>0</asrwt>
<pdfrwt beam="1">  1        2 0.19348065E+00 0.20581062E+02</pdfrwt>
<pdfrwt beam="2">  1       -2 0.15497158E-01 0.81193684E+02</pdfrwt>
<totfact> 0.68401268E+02</totfact>
</mgrwt>
</event>
<event>
 7    1  0.5277388E-004  0.1040876E+03  0.7546771E-02  0.1382343E+00
          1   -1    0    0  502    0 -0.00000000000E+00  0.00000000000E+00  0.34380891361E+03  0.34380891361E+03  0.00000000000E+00 0. -1.
          2   -1    0    0  503    0  0.00000000000E+00 -0.00000000000E+00 -0.11420533036E+04  0.11420533036E+04  0.00000000000E+00 0. -1.
         25    2    1    2    0    0 -0.11590685886E+03 -0.79049681217E+02 -0.12218154051E+03  0.22413306406E+03  0.12499619806E+03 0.  0.
          4    1    3    3  501    0 -0.12374976155E+03 -0.90116591214E+02 -0.13596628011E+03  0.20475215682E+03  0.12700000000E+01 0. -1.
         -4    1    3    3    0  501  0.78429026922E+01  0.11066909997E+02  0.13784739596E+02  0.19380907235E+02  0.12700000000E+01 0. -1.
          2    1    1    2  502    0  0.36079660653E+02  0.15248566943E+02  0.28881289442E+03  0.29145694140E+03  0.00000000000E+00 0. -1.
          1    1    1    2  503    0  0.79827198207E+02  0.63801114274E+02 -0.96487574387E+03  0.97027221174E+03  0.00000000000E+00 0. -1.
<mgrwt>
<rscale>  0 0.63851969E+02</rscale>
<asrwt>0</asrwt>
<pdfrwt beam="2">  1        2 0.17570051E+00 0.10408760E+03</pdfrwt>
<pdfrwt beam="1">  1        1 0.52893679E-01 0.39169640E+02</pdfrwt>
<totfact> 0.23228808E+02</totfact>
</mgrwt>
</event>
<event>
 7    1  0.5277388E-004  0.7708389E+02  0.7546771E-02  0.1408468E+00
          1   -1    0    0  502    0 -0.00000000000E+00  0.00000000000E+00  0.10325020422E+03  0.10325020422E+03  0.00000000000E+00 0. -1.
          2   -1    0    0  503    0  0.00000000000E+00 -0.00000000000E+00 -0.12195348610E+04  0.12195348610E+04  0.00000000000E+00 0. -1.
         25    2    1    2    0    0  0.72820525242E+01  0.37028502449E+02 -0.96854201463E+02  0.16258009508E+03  0.12500965040E+03 0.  0.
          4    1    3    3  501    0 -0.11065282695E+02  0.27710024236E+02 -0.12453446134E+03  0.12806533834E+03  0.12700000000E+01 0.  1.
         -4    1    3    3    0  501  0.18347335220E+02  0.93184782135E+01  0.27680259875E+02  0.34514756737E+02  0.12700000000E+01 0.  1.
          2    1    1    2  502    0 -0.99907755047E+01  0.41768684250E+02  0.62265093076E+02  0.75639806947E+02  0.00000000000E+00 0. -1.
          1    1    1    2  503    0  0.27087229805E+01 -0.78797186700E+02 -0.10816955484E+04  0.10845651632E+04  0.00000000000E+00 0. -1.
<mgrwt>
<rscale>  0 0.57537085E+02</rscale>
<asrwt>0</asrwt>
<pdfrwt beam="2">  1        2 0.18762075E+00 0.77083887E+02</pdfrwt>
<pdfrwt beam="1">  1        1 0.15884646E-01 0.42946927E+02</pdfrwt>
<totfact> 0.91323094E+02</totfact>
</mgrwt>
</event>
<event>
 7    1  0.5277388E-004  0.4898320E+02  0.7546771E-02  0.1468615E+00
          1   -1    0    0  502    0 -0.00000000000E+00  0.00000000000E+00  0.25569549092E+03  0.25569549092E+03  0.00000000000E+00 0. -1.
          2   -1    0    0  503    0  0.00000000000E+00 -0.00000000000E+00 -0.20544957068E+04  0.20544957068E+04  0.00000000000E+00 0. -1.
         25    2    1    2    0    0  0.21812228539E+02 -0.68133915495E+02 -0.71132058930E+03  0.72575444650E+03  0.12499812840E+03 0.  0.
          4    1    3    3  501    0 -0.41461304167E+02 -0.22177434259E+02 -0.11381538105E+03  0.12315206940E+03  0.12700000000E+01 0. -1.
         -4    1    3    3    0  501  0.63273532706E+02 -0.45956481235E+02 -0.59750520825E+03  0.60260237710E+03  0.12700000000E+01 0. -1.
          2    1    1    2  502    0  0.17177281466E+02  0.39494399565E+02  0.24617046129E+03  0.24990950884E+03  0.00000000000E+00 0. -1.
          1    1    1    2  503    0 -0.38989510005E+02  0.28639515930E+02 -0.13336500879E+04  0.13345272424E+04  0.00000000000E+00 0. -1.
<mgrwt>
<rscale>  0 0.45930562E+02</rscale>
<asrwt>0</asrwt>
<pdfrwt beam="2">  1        2 0.31607626E+00 0.48983202E+02</pdfrwt>
<pdfrwt beam="1">  1        1 0.39337768E-01 0.43068162E+02</pdfrwt>
<totfact> 0.12171977E+02</totfact>
</mgrwt>
</event>
<event>
 7    1  0.5277388E-004  0.1127030E+03  0.7546771E-02  0.1336351E+00
         -2   -1    0    0    0  501 -0.00000000000E+00  0.00000000000E+00  0.22911374732E+03  0.22911374732E+03  0.00000000000E+00 0.  1.
          2   -1    0    0  503    0  0.00000000000E+00 -0.00000000000E+00 -0.12451946288E+04  0.12451946288E+04  0.00000000000E+00 0. -1.
         25    2    1    2    0    0  0.58033420699E+02 -0.74090301219E+02 -0.43651002698E+03  0.46370891400E+03  0.12501081000E+03 0.  0.
          4    1    3    3  502    0 -0.23520352401E+02 -0.73117126518E+01 -0.23501531964E+03  0.23630590658E+03  0.12700000000E+01 0. -1.
         -4    1    3    3    0  502  0.81553773100E+02 -0.66778588567E+02 -0.20149470734E+03  0.22740300742E+03  0.12700000000E+01 0. -1.
          1    1    1    2  503    0 -0.10796744713E+03  0.55538876981E+02 -0.78706597252E+03  0.79637577913E+03  0.00000000000E+00 0. -1.
         -1    1    1    2    0  501  0.49934026427E+02  0.18551424238E+02  0.20749511803E+03  0.21422368297E+03  0.00000000000E+00 0.  1.
<mgrwt>
<rscale>  0 0.77482573E+02</rscale>
<asrwt>0</asrwt>
<pdfrwt beam="2">  1        2 0.19156841E+00 0.11270297E+03</pdfrwt>
<pdfrwt beam="1">  1       -2 0.35248268E-01 0.53268774E+02</pdfrwt>
<totfact> 0.14924684E+02</totfact>
</mgrwt>
</event>
<event>
 7    1  0.5277388E-004  0.6684857E+02  0.7546771E-02  0.1518965E+00
          2   -1    0    0  503    0  0.00000000000E+00  0.00000000000E+00  0.77908715955E+03  0.77908715955E+03  0.00000000000E+00 0. -1.
         -2   -1    0    0    0  501 -0.00000000000E+00 -0.00000000000E+00 -0.38810332421E+02  0.38810332421E+02  0.00000000000E+00 0.  1.
         25    2    1    2    0    0  0.43064792010E+02 -0.18748172018E+02  0.39470870878E+03  0.41668427053E+03  0.12499898502E+03 0.  0.
          4    1    3    3  502    0  0.52279019360E+02 -0.27899617027E+01  0.53110299408E+02  0.74586839018E+02  0.12700000000E+01 0.  1.
         -4    1    3    3    0  502 -0.92142273500E+01 -0.15958210315E+02  0.34159840937E+03  0.34209743151E+03  0.12700000000E+01 0.  1.
          1    1    1    2  503    0  0.21678690911E+02 -0.50542993781E+01  0.32967510349E+03  0.33042576389E+03  0.00000000000E+00 0. -1.
         -1    1    1    2    0  501 -0.64743482920E+02  0.23802471396E+02  0.15893014862E+02  0.70787457552E+02  0.00000000000E+00 0.  1.
<mgrwt>
<rscale>  0 0.38575319E+02</rscale>
<asrwt>0</asrwt>
<pdfrwt beam="1">  1        2 0.11985955E+00 0.22260089E+02</pdfrwt>
<pdfrwt beam="2">  1       -2 0.59708209E-02 0.66848575E+02</pdfrwt>
<totfact> 0.53223769E+03</totfact>
</mgrwt>
</event>
<event>
 7    1  0.5277388E-004  0.3229542E+02  0.7546771E-02  0.1580339E+00
         -2   -1    0    0    0  501 -0.00000000000E+00  0.00000000000E+00  0.69071640145E+03  0.69071640145E+03  0.00000000000E+00 0.  1.
          2   -1    0    0  503    0  0.00000000000E+00 -0.00000000000E+00 -0.52368506696E+03  0.52368506696E+03  0.00000000000E+00 0. -1.
         25    2    1    2    0    0 -0.23998829789E+02  0.29940528015E+02  0.51995953417E+02  0.14071423430E+03  0.12499815004E+03 0.  0.
          4    1    3    3  502    0 -0.29590701825E+02 -0.28678793830E+02 -0.21526373946E+02  0.46508929522E+02  0.12700000000E+01 0. -1.
         -4    1    3    3    0  502  0.55918720356E+01  0.58619321844E+02  0.73522327364E+02  0.94205304773E+02  0.12700000000E+01 0. -1.
          1    1    1    2  503    0  0.32341840778E+02 -0.27262839550E-01 -0.47837388619E+03  0.47946592204E+03  0.00000000000E+00 0. -1.
         -1    1    1    2    0  501 -0.83430109884E+01 -0.29913265175E+02  0.59340926726E+03  0.59422131209E+03  0.00000000000E+00 0.  1.
<mgrwt>
<rscale>  0 0.31669108E+02</rscale>
<asrwt>0</asrwt>
<pdfrwt beam="2">  1        2 0.80566933E-01 0.32295423E+02</pdfrwt>
<pdfrwt beam="1">  1       -2 0.10626406E+00 0.31054939E+02</pdfrwt>
<totfact> 0.48911541E+01</totfact>
</mgrwt>
</event>
<event>
 7    1  0.5277388E-004  0.6449472E+02  0.7546771E-02  0.1449629E+00
          2   -1    0    0  503    0  0.00000000000E+00  0.00000000000E+00  0.68115991450E+02  0.68115991450E+02  0.00000000000E+00 0. -1.
          1   -1    0    0  502    0 -0.00000000000E+00 -0.00000000000E+00 -0.63998875352E+03  0.63998875352E+03  0.00000000000E+00 0. -1.
         25    2    1    2    0    0  0.64996737057E+02 -0.52322789007E+02 -0.23699283821E+03  0.28063008249E+03  0.12500155102E+03 0.  0.
          4    1    3    3  501    0 -0.24763672931E+01 -0.55482553076E+02 -0.19096681930E+03  0.19888284255E+03  0.12700000000E+01 0.  1.
         -4    1    3    3    0  501  0.67473104350E+02  0.31597640686E+01 -0.46026018915E+02  0.81747239934E+02  0.12700000000E+01 0.  1.
          2    1    1    2  502    0 -0.37248355045E+02 -0.47769832972E+01 -0.35795990277E+03  0.35992436916E+03  0.00000000000E+00 0. -1.
          1    1    1    2  503    0 -0.27748382013E+02  0.57099772304E+02  0.23079978911E+02  0.67550293323E+02  0.00000000000E+00 0. -1.
<mgrwt>
<rscale>  0 0.49213793E+02</rscale>
<asrwt>0</asrwt>
<pdfrwt beam="1">  1        2 0.10479384E-01 0.64494719E+02</pdfrwt>
<pdfrwt beam="2">  1        1 0.98459806E-01 0.37553422E+02</pdfrwt>
<totfact> 0.25991086E+03</totfact>
</mgrwt>
</event>
<event>
 7    1  0.5277388E-004  0.6986850E+02  0.7546771E-02  0.1499859E+00
          1   -1    0    0  503    0  0.00000000000E+00  0.00000000000E+00  0.18726566830E+04  0.18726566830E+04  0.00000000000E+00 0. -1.
         -1   -1    0    0    0  501 -0.00000000000E+00 -0.00000000000E+00 -0.87958780322E+01  0.87958780322E+01  0.00000000000E+00 0.  1.
         25    2    1    2    0    0  0.14421343831E+02  0.63861596274E+02  0.10454820168E+04  0.10549611524E+04  0.12499642715E+03 0.  0.
          4    1    3    3  502    0  0.49716794008E+02  0.50559433345E+01  0.18143955959E+03  0.18820002352E+03  0.12700000000E+01 0.  1.
         -4    1    3    3    0  502 -0.35295450177E+02  0.58805652939E+02  0.86404245725E+03  0.86676112883E+03  0.12700000000E+01 0.  1.
          2    1    1    2  503    0 -0.38665083414E+02 -0.64136736523E+02  0.37248389152E+03  0.37993783583E+03  0.00000000000E+00 0.  1.
         -2    1    1    2    0  501  0.24243739582E+02  0.27514024974E+00  0.44589489655E+03  0.44655357280E+03  0.00000000000E+00 0. -1.
<mgrwt>
<rscale>  0 0.41158021E+02</rscale>
<asrwt>0</asrwt>
<pdfrwt beam="1">  1        1 0.28810071E+00 0.69868497E+02</pdfrwt>
<pdfrwt beam="2">  1       -1 0.13532135E-02 0.24245301E+02</pdfrwt>
<totfact> 0.39449586E+03</totfact>
</mgrwt>
</event>
<event>
 7    1  0.5277388E-004  0.9353756E+02  0.7546771E-02  0.1362270E+00
          2   -1    0    0  503    0  0.00000000000E+00  0.00000000000E+00  0.70644012940E+03  0.70644012940E+03  0.00000000000E+00 0. -1.
          1   -1    0    0  502    0 -0.00000000000E+00 -0.00000000000E+00 -0.13494357972E+04  0.13494357972E+04  0.00000000000E+00 0. -1.
         25    2    1    2    0    0  0.49830799407E+02  0.35847798626E+02 -0.60410112452E+03  0.61994698828E+03  0.12501170506E+03 0.  0.
          4    1    3    3  501    0  0.88804779680E+02  0.20819064141E+02 -0.49033249882E+03  0.49874572141E+03  0.12700000000E+01 0. -1.
         -4    1    3    3    0  501 -0.38973980273E+02  0.15028734485E+02 -0.11376862570E+03  0.12120126688E+03  0.12700000000E+01 0. -1.
          2    1    1    2  502    0 -0.99725586570E+02 -0.48350679677E+02 -0.73228950856E+03  0.74062872290E+03  0.00000000000E+00 0. -1.
          1    1    1    2  503    0  0.49894787163E+02  0.12502881051E+02  0.69339496522E+03  0.69530021546E+03  0.00000000000E+00 0. -1.
<mgrwt>
<rscale>  0 0.69363780E+02</rscale>
<asrwt>0</asrwt>
<pdfrwt beam="1">  1        2 0.10868310E+00 0.51437455E+02</pdfrwt>
<pdfrwt beam="2">  1        1 0.20760551E+00 0.93537559E+02</pdfrwt>
<totfact> 0.59199600E+01</totfact>
</mgrwt>
</event>
<event>
 7    1  0.5277388E-004  0.6953190E+02  0.7546771E-02  0.1372275E+00
          2   -1    0    0  503    0  0.00000000000E+00  0.00000000000E+00  0.88888388129E+03  0.88888388129E+03  0.00000000000E+00 0. -1.
          1   -1    0    0  502    0 -0.00000000000E+00 -0.00000000000E+00 -0.71452330511E+03  0.71452330511E+03  0.00000000000E+00 0. -1.
         25    2    1    2    0    0 -0.25662426745E+02 -0.12922888401E+03 -0.64315097703E+03  0.66830290336E+03  0.12500770683E+03 0.  0.
          4    1    3    3  501    0 -0.52075985678E+02 -0.22293244180E+02 -0.36084120374E+03  0.36526276054E+03  0.12700000000E+01 0.  1.
         -4    1    3    3    0  501  0.26413558933E+02 -0.10693563983E+03 -0.28230977329E+03  0.30304014281E+03  0.12700000000E+01 0.  1.
          2    1    1    2  502    0  0.21441175062E+02  0.59955982682E+02 -0.39733424039E+02  0.75054572368E+02  0.00000000000E+00 0. -1.
          1    1    1    2  503    0  0.42212516828E+01  0.69272901328E+02  0.85724497724E+03  0.86004971068E+03  0.00000000000E+00 0. -1.
<mgrwt>
<rscale>  0 0.66538788E+02</rscale>
<asrwt>0</asrwt>
<pdfrwt beam="1">  1        2 0.13675137E+00 0.69531904E+02</pdfrwt>
<pdfrwt beam="2">  1        1 0.10992666E+00 0.63674515E+02</pdfrwt>
<totfact> 0.13073779E+02</totfact>
</mgrwt>
</event>
<event>
 7    1  0.5277388E-004  0.4500524E+02  0.7546771E-02  0.1532722E+00
          1   -1    0    0  503    0  0.00000000000E+00  0.00000000000E+00  0.13708448358E+04  0.13708448358E+04  0.00000000000E+00 0. -1.
         -1   -1    0    0    0  501 -0.00000000000E+00 -0.00000000000E+00 -0.72465828741E+03  0.72465828741E+03  0.00000000000E+00 0.  1.
         25    2    1    2    0    0  0.55630581720E+02 -0.50067465140E+02  0.54026759318E+01  0.14579467297E+03  0.12500154027E+03 0.  0.
          4    1    3    3  502    0  0.27965408965E+02  0.39271658004E+02  0.17874174259E+02  0.51433707104E+02  0.12700000000E+01 0. -1.
         -4    1    3    3    0  502  0.27665172756E+02 -0.89339123144E+02 -0.12471498328E+02  0.94360965862E+02  0.12700000000E+01 0. -1.
          2    1    1    2  503    0 -0.23228007482E+02  0.19269219000E+02  0.12943066501E+04  0.12946584676E+04  0.00000000000E+00 0. -1.
         -2    1    1    2    0  501 -0.32402574238E+02  0.30798246140E+02 -0.65352277769E+03  0.65504998263E+03  0.00000000000E+00 0.  1.
<mgrwt>
<rscale>  0 0.36854661E+02</rscale>
<asrwt>0</asrwt>
<pdfrwt beam="1">  1        1 0.21089920E+00 0.30180178E+02</pdfrwt>
<pdfrwt beam="2">  1       -1 0.11148589E+00 0.45005236E+02</pdfrwt>
<totfact> 0.92898559E+00</totfact>
</mgrwt>
</event>
<event>
 7    1  0.5277388E-004  0.9538741E+02  0.7546771E-02  0.1295160E+00
          1   -1    0    0  502    0 -0.00000000000E+00  0.00000000000E+00  0.80163054919E+03  0.80163054919E+03  0.00000000000E+00 0. -1.
          2   -1    0    0  503    0  0.00000000000E+00 -0.00000000000E+00 -0.20640005257E+04  0.20640005257E+04  0.00000000000E+00 0. -1.
         25    2    1    2    0    0  0.10597375787E+03 -0.53604568566E+02 -0.79696955184E+03  0.81540824113E+03  0.12500498395E+03 0.  0.
          4    1    3    3  501    0  0.90563151675E+02  0.23534773733E+02 -0.45096294907E+03  0.46057004283E+03  0.12700000000E+01 0. -1.
         -4    1    3    3    0  501  0.15410606196E+02 -0.77139342299E+02 -0.34600660277E+03  0.35483819830E+03  0.12700000000E+01 0. -1.
          2    1    1    2  502    0 -0.15561014559E+02  0.89828239810E+02  0.78789330667E+03  0.79315012484E+03  0.00000000000E+00 0. -1.
          1    1    1    2  503    0 -0.90412743312E+02 -0.36223671244E+02 -0.12532937314E+04  0.12570727090E+04  0.00000000000E+00 0. -1.
<mgrwt>
<rscale>  0 0.93252874E+02</rscale>
<asrwt>0</asrwt>
<pdfrwt beam="2">  1        2 0.31753854E+00 0.95387413E+02</pdfrwt>
<pdfrwt beam="1">  1        1 0.12332778E+00 0.91166100E+02</pdfrwt>
<totfact> 0.25637367E+01</totfact>
</mgrwt>
</event>
<event>
 7    1  0.5277388E-004  0.1073963E+03  0.7546771E-02  0.1391437E+00
          2   -1    0    0  503    0  0.00000000000E+00  0.00000000000E+00  0.32284747607E+03  0.32284747607E+03  0.00000000000E+00 0. -1.
          1   -1    0    0  502    0 -0.00000000000E+00 -0.00000000000E+00 -0.69541256165E+03  0.69541256165E+03  0.00000000000E+00 0. -1.
         25    2    1    2    0    0 -0.11757386744E+03  0.77953794355E+02 -0.58557818618E+03  0.61516308962E+03  0.12499362522E+03 0.  0.
          4    1    3    3  501    0  0.16396584415E+02 -0.92753598732E+01 -0.20346629365E+02  0.27757494624E+02  0.12700000000E+01 0. -1.
         -4    1    3    3    0  501 -0.13397045186E+03  0.87229154228E+02 -0.56523155681E+03  0.58740559500E+03  0.12700000000E+01 0. -1.
          2    1    1    2  502    0  0.32889324842E+02 -0.12754753003E+02 -0.82029867338E+02  0.89293283892E+02  0.00000000000E+00 0. -1.
          1    1    1    2  503    0  0.84684542600E+02 -0.65199041352E+02  0.29504296793E+03  0.31380366421E+03  0.00000000000E+00 0. -1.
<mgrwt>
<rscale>  0 0.61550826E+02</rscale>
<asrwt>0</asrwt>
<pdfrwt beam="1">  1        2 0.49668843E-01 0.10739629E+03</pdfrwt>
<pdfrwt beam="2">  1        1 0.10698655E+00 0.35275932E+02</pdfrwt>
<totfact> 0.42572865E+02</totfact>
</mgrwt>
</event>
<event>
 7    1  0.5277388E-004  0.1306909E+03  0.7546771E-02  0.1254062E+00
         -2   -1    0    0    0  501 -0.00000000000E+00  0.00000000000E+00  0.26286408052E+03  0.26286408052E+03  0.00000000000E+00 0.  1.
          2   -1    0    0  503    0  0.00000000000E+00 -0.00000000000E+00 -0.12142860749E+04  0.12142860749E+04  0.00000000000E+00 0. -1.
         25    2    1    2    0    0 -0.99683597532E+02 -0.66053664049E+02 -0.28159086005E+03  0.33049491476E+03  0.12503427557E+03 0.  0.
          4    1    3    3  502    0 -0.80022990127E+02 -0.63041013295E+02 -0.29109921150E+03  0.30841240595E+03  0.12700000000E+01 0. -1.
         -4    1    3    3    0  502 -0.19660607405E+02 -0.30126507541E+01  0.95083514526E+01  0.22082508812E+02  0.12700000000E+01 0. -1.
          3    1    1    2  503    0 -0.30894662641E+02  0.93769003549E+02 -0.88660107196E+03  0.89208103164E+03  0.00000000000E+00 0. -1.
         -1    1    1    2    0  501  0.13057826017E+03 -0.27715339500E+02  0.21676993760E+03  0.25457420906E+03  0.00000000000E+00 0.  1.
<mgrwt>
<rscale>  0 0.11359040E+03</rscale>
<asrwt>0</asrwt>
<pdfrwt beam="2">  1        2 0.18681324E+00 0.98727434E+02</pdfrwt>
<pdfrwt beam="1">  1       -2 0.40440628E-01 0.13069092E+03</pdfrwt>
<totfact> 0.12287134E+02</totfact>
</mgrwt>
</event>
<event>
 7    1  0.5277388E-004  0.5846013E+02  0.7546771E-02  0.1487607E+00
          1   -1    0    0  502    0 -0.00000000000E+00  0.00000000000E+00  0.42335095154E+02  0.42335095154E+02  0.00000000000E+00 0. -1.
          2   -1    0    0  503    0  0.00000000000E+00 -0.00000000000E+00 -0.61463297210E+03  0.61463297210E+03  0.00000000000E+00 0. -1.
         25    2    1    2    0    0 -0.33089072506E+02  0.11951401800E+02 -0.20300351269E+03  0.24098810245E+03  0.12500846625E+03 0.  0.
          4    1    3    3  501    0 -0.47078202313E+02  0.37829046338E+02 -0.33756691872E+02  0.69199140356E+02  0.12700000000E+01 0.  1.
         -4    1    3    3    0  501  0.13989129807E+02 -0.25877644538E+02 -0.16924682082E+03  0.17178896210E+03  0.12700000000E+01 0.  1.
          2    1    1    2  502    0  0.50614295654E+02 -0.38179973382E+02 -0.21779420409E+02  0.67036262167E+02  0.00000000000E+00 0. -1.
          1    1    1    2  503    0 -0.17525223147E+02  0.26228571582E+02 -0.34751494384E+03  0.34894370263E+03  0.00000000000E+00 0. -1.
<mgrwt>
<rscale>  0 0.42943106E+02</rscale>
<asrwt>0</asrwt>
<pdfrwt beam="2">  1        2 0.94558917E-01 0.31544753E+02</pdfrwt>
<pdfrwt beam="1">  1        1 0.65130917E-02 0.58460131E+02</pdfrwt>
<totfact> 0.71360014E+03</totfact>
</mgrwt>
</event>
<event>
 7    1  0.5277388E-004  0.4479512E+02  0.7546771E-02  0.1477602E+00
          2   -1    0    0  503    0  0.00000000000E+00  0.00000000000E+00  0.21049686629E+04  0.21049686629E+04  0.00000000000E+00 0. -1.
          1   -1    0    0  502    0 -0.00000000000E+00 -0.00000000000E+00 -0.67376782501E+02  0.67376782501E+02  0.00000000000E+00 0. -1.
         25    2    1    2    0    0  0.31341835605E+02 -0.27615495424E+02  0.24347504325E+03  0.27685689061E+03  0.12499885978E+03 0.  0.
          4    1    3    3  501    0 -0.37278495645E+02 -0.40609444239E+02  0.15247451520E+03  0.16213853300E+03  0.12700000000E+01 0.  1.
         -4    1    3    3    0  501  0.68620331250E+02  0.12993948816E+02  0.91000528053E+02  0.11471835761E+03  0.12700000000E+01 0.  1.
          2    1    1    2  502    0 -0.43232927894E+02 -0.14924819940E+02 -0.40047898029E+02  0.60792026131E+02  0.00000000000E+00 0. -1.
          1    1    1    2  503    0  0.11891092289E+02  0.42540315364E+02  0.18341647352E+04  0.18346965286E+04  0.00000000000E+00 0. -1.
<mgrwt>
<rscale>  0 0.44481959E+02</rscale>
<asrwt>0</asrwt>
<pdfrwt beam="1">  1        2 0.32384128E+00 0.44170992E+02</pdfrwt>
<pdfrwt beam="2">  1        1 0.10365660E-01 0.44795116E+02</pdfrwt>
<totfact> 0.59821522E+02</totfact>
</mgrwt>
</event>
<event>
 7    1  0.5277388E-004  0.3391627E+02  0.7546771E-02  0.1575665E+00
          1   -1    0    0  502    0 -0.00000000000E+00  0.00000000000E+00  0.59605491580E+03  0.59605491580E+03  0.00000000000E+00 0. -1.
          2   -1    0    0  503    0  0.00000000000E+00 -0.00000000000E+00 -0.16106108058E+04  0.16106108058E+04  0.00000000000E+00 0. -1.
         25    2    1    2    0    0  0.30551507181E+02 -0.44444981690E+02  0.65387017581E+02  0.15103026112E+03  0.12500370681E+03 0.  0.
          4    1    3    3  501    0 -0.44028505902E+02 -0.14542282591E+00  0.42727357543E+02  0.61365873761E+02  0.12700000000E+01 0. -1.
         -4    1    3    3    0  501  0.74580013083E+02 -0.44299558864E+02  0.22659660038E+02  0.89664387356E+02  0.12700000000E+01 0. -1.
          2    1    1    2  502    0  0.31418625702E+00  0.30437448680E+02  0.48718802843E+03  0.48813800511E+03  0.00000000000E+00 0. -1.
          1    1    1    2  503    0 -0.30865693438E+02  0.14007533010E+02 -0.15671309360E+04  0.15674974554E+04  0.00000000000E+00 0. -1.
<mgrwt>
<rscale>  0 0.32130668E+02</rscale>
<asrwt>0</asrwt>
<pdfrwt beam="2">  1        2 0.24778628E+00 0.33916273E+02</pdfrwt>
<pdfrwt beam="1">  1        1 0.91700757E-01 0.30439070E+02</pdfrwt>
<totfact> 0.74974042E+01</totfact>
</mgrwt>
</event>
<event>
 7    1  0.5277388E-004  0.3542316E+02  0.7546771E-02  0.1594371E+00
          1   -1    0    0  502    0 -0.00000000000E+00  0.00000000000E+00  0.12671724478E+03  0.12671724478E+03  0.00000000000E+00 0. -1.
          2   -1    0    0  503    0  0.00000000000E+00 -0.00000000000E+00 -0.23805409834E+04  0.23805409834E+04  0.00000000000E+00 0. -1.
         25    2    1    2    0    0 -0.11353414060E+02  0.60933432668E+01  0.36450207917E+02  0.13083552429E+03  0.12499315147E+03 0.  0.
          4    1    3    3  501    0 -0.43729700479E+02  0.19167496797E+02 -0.29544802744E+02  0.56162157247E+02  0.12700000000E+01 0. -1.
         -4    1    3    3    0  501  0.32376286420E+02 -0.13074153530E+02  0.65995010660E+02  0.74673367039E+02  0.12700000000E+01 0. -1.
          2    1    1    2  502    0 -0.23860842570E+02 -0.10288732071E+02  0.39008296037E+02  0.46870512858E+02  0.00000000000E+00 0. -1.
          1    1    1    2  503    0  0.35214256630E+02  0.41953888046E+01 -0.23292822425E+04  0.23295521910E+04  0.00000000000E+00 0. -1.
<mgrwt>
<rscale>  0 0.30339011E+02</rscale>
<asrwt>0</asrwt>
<pdfrwt beam="2">  1        2 0.36623703E+00 0.35423162E+02</pdfrwt>
<pdfrwt beam="1">  1        1 0.19494963E-01 0.25984569E+02</pdfrwt>
<totfact> 0.19925501E+02</totfact>
</mgrwt>
</event>
<event>
 7    1  0.5277388E-004  0.5968857E+02  0.7546771E-02  0.1449684E+00
          2   -1    0    0  503    0  0.00000000000E+00  0.00000000000E+00  0.56789457424E+02  0.56789457424E+02  0.00000000000E+00 0. -1.
          1   -1    0    0  502    0 -0.00000000000E+00 -0.00000000000E+00 -0.12983497950E+04  0.12983497950E+04  0.00000000000E+00 0. -1.
         25    2    1    2    0    0  0.59688517628E+02 -0.18648356433E+01 -0.23597568472E+03  0.27363367552E+03  0.12499867140E+03 0.  0.
          4    1    3    3  501    0  0.43413358657E+02 -0.61763861898E+02 -0.14519253829E+03  0.16365201013E+03  0.12700000000E+01 0.  1.
         -4    1    3    3    0  501  0.16275158971E+02  0.59899026255E+02 -0.90783146434E+02  0.10998166539E+03  0.12700000000E+01 0.  1.
          2    1    1    2  502    0 -0.13788098996E+02 -0.38145426273E+02 -0.10184610075E+04  0.10192683694E+04  0.00000000000E+00 0. -1.
          1    1    1    2  503    0 -0.45900418632E+02  0.40010261917E+02  0.12876354575E+02  0.62237207492E+02  0.00000000000E+00 0. -1.
<mgrwt>
<rscale>  0 0.49203871E+02</rscale>
<asrwt>0</asrwt>
<pdfrwt beam="1">  1        2 0.87368398E-02 0.59688565E+02</pdfrwt>
<pdfrwt beam="2">  1        1 0.19974612E+00 0.40560883E+02</pdfrwt>
<totfact> 0.10732195E+03</totfact>
</mgrwt>
</event>
<event>
 7    1  0.5277388E-004  0.6812202E+02  0.7546771E-02  0.1444168E+00
          1   -1    0    0  503    0  0.00000000000E+00  0.00000000000E+00  0.16418573481E+03  0.16418573481E+03  0.00000000000E+00 0. -1.
         -1   -1    0    0    0  501 -0.00000000000E+00 -0.00000000000E+00 -0.22657444956E+03  0.22657444956E+03  0.00000000000E+00 0.  1.
         25    2    1    2    0    0  0.86491499652E+02 -0.47691266662E+02  0.48712214874E+02  0.16659794547E+03  0.12500703632E+03 0.  0.
          4    1    3    3  502    0  0.26147493842E+02 -0.84427060133E+02  0.31852909464E+02  0.93956589223E+02  0.12700000000E+01 0.  1.
         -4    1    3    3    0  502  0.60344005810E+02  0.36735793471E+02  0.16859305409E+02  0.72641356251E+02  0.12700000000E+01 0.  1.
          2    1    1    2  503    0 -0.36829885593E+02  0.37452294106E+01  0.42796057150E+02  0.56585949879E+02  0.00000000000E+00 0. -1.
         -2    1    1    2    0  501 -0.49661614059E+02  0.43946037252E+02 -0.15389698678E+03  0.16757628901E+03  0.00000000000E+00 0.  1.
<mgrwt>
<rscale>  0 0.50218173E+02</rscale>
<asrwt>0</asrwt>
<pdfrwt beam="1">  1        1 0.25259344E-01 0.37019822E+02</pdfrwt>
<pdfrwt beam="2">  1       -1 0.34857607E-01 0.68122017E+02</pdfrwt>
<totfact> 0.13958485E+03</totfact>
</mgrwt>
</event>
<event>
 7    1  0.5277388E-004  0.5645555E+02  0.7546771E-02  0.1420577E+00
         -1   -1    0    0    0  501 -0.00000000000E+00  0.00000000000E+00  0.27594447917E+03  0.27594447917E+03  0.00000000000E+00 0.  1.
          1   -1    0    0  503    0  0.00000000000E+00 -0.00000000000E+00 -0.21691991832E+03  0.21691991832E+03  0.00000000000E+00 0. -1.
         25    2    1    2    0    0  0.21881428050E+02 -0.59544430152E+01  0.12248484610E+03  0.17646179785E+03  0.12498790458E+03 0.  0.
          4    1    3    3  502    0 -0.33556801018E+02 -0.12138817770E+01 -0.80534282718E+01  0.34554348647E+02  0.12700000000E+01 0. -1.
         -4    1    3    3    0  502  0.55438229068E+02 -0.47405612382E+01  0.13053827437E+03  0.14190744920E+03  0.12700000000E+01 0. -1.
          2    1    1    2  503    0  0.44658454994E+02  0.29251108212E+02 -0.17582567513E+03  0.18375166113E+03  0.00000000000E+00 0. -1.
         -2    1    1    2    0  501 -0.66539883044E+02 -0.23296665197E+02  0.11236538988E+03  0.13265093851E+03  0.00000000000E+00 0.  1.
<mgrwt>
<rscale>  0 0.54899035E+02</rscale>
<asrwt>0</asrwt>
<pdfrwt beam="2">  1        1 0.33372295E-01 0.53385437E+02</pdfrwt>
<pdfrwt beam="1">  1       -1 0.42452997E-01 0.56455545E+02</pdfrwt>
<totfact> 0.72018365E+02</totfact>
</mgrwt>
</event>
<event>
 7    1  0.5277388E-004  0.1607113E+03  0.7546771E-02  0.1368367E+00
          2   -1    0    0  503    0  0.00000000000E+00  0.00000000000E+00  0.18961136494E+03  0.18961136494E+03  0.00000000000E+00 0. -1.
          1   -1    0    0  502    0 -0.00000000000E+00 -0.00000000000E+00 -0.78453528245E+03  0.78453528245E+03  0.00000000000E+00 0. -1.
         25    2    1    2    0    0  0.10684608538E+03  0.82908520791E+02 -0.40241251948E+03  0.44255187051E+03  0.12500565376E+03 0.  0.
          4    1    3    3  501    0  0.10531199650E+02  0.80204845795E+02 -0.12516293286E+03  0.14903387574E+03  0.12700000000E+01 0.  1.
         -4    1    3    3    0  501  0.96314885730E+02  0.27036749956E+01 -0.27724958662E+03  0.29351799477E+03  0.12700000000E+01 0.  1.
          2    1    1    2  502    0  0.17992823681E+02  0.22043045081E+02 -0.32205738779E+03  0.32331192148E+03  0.00000000000E+00 0. -1.
          1    1    1    2  503    0 -0.12483890906E+03 -0.10495156587E+03  0.12954598976E+03  0.20828285541E+03  0.00000000000E+00 0. -1.
<mgrwt>
<rscale>  0 0.67623229E+02</rscale>
<asrwt>0</asrwt>
<pdfrwt beam="1">  1        2 0.29170979E-01 0.16071133E+03</pdfrwt>
<pdfrwt beam="2">  1        1 0.12069774E+00 0.28454130E+02</pdfrwt>
<totfact> 0.64651766E+02</totfact>
</mgrwt>
</event>
<event>
 7    1  0.5277388E-004  0.1233627E+03  0.7546771E-02  0.1349700E+00
         -2   -1    0    0    0  501 -0.00000000000E+00  0.00000000000E+00  0.14060951549E+04  0.14060951549E+04  0.00000000000E+00 0.  1.
          2   -1    0    0  503    0  0.00000000000E+00 -0.00000000000E+00 -0.30225660563E+03  0.30225660563E+03  0.00000000000E+00 0. -1.
         25    2    1    2    0    0  0.81417850499E+02 -0.40400911036E+02  0.23549499973E+03  0.28167600183E+03  0.12498950003E+03 0.  0.
          4    1    3    3  502    0  0.23970045751E+02 -0.86878722078E+01  0.20955415779E+03  0.21110329264E+03  0.12700000000E+01 0.  1.
         -4    1    3    3    0  502  0.57447804748E+02 -0.31713038828E+02  0.25940841940E+02  0.70572709191E+02  0.12700000000E+01 0.  1.
          3    1    1    2  503    0  0.20437316688E+02 -0.38258136164E+02 -0.27384563600E+03  0.27725944754E+03  0.00000000000E+00 0. -1.
         -1    1    1    2    0  501 -0.10185516719E+03  0.78659047200E+02  0.11421891856E+04  0.11494163112E+04  0.00000000000E+00 0.  1.
<mgrwt>
<rscale>  0 0.73149342E+02</rscale>
<asrwt>0</asrwt>
<pdfrwt beam="2">  1        2 0.46501017E-01 0.43374750E+02</pdfrwt>
<pdfrwt beam="1">  1       -2 0.21632233E+00 0.12336270E+03</pdfrwt>
<totfact> 0.13089321E+01</totfact>
</mgrwt>
</event>
<event>
 7    1  0.5277388E-004  0.5705302E+02  0.7546771E-02  0.1422100E+00
         -2   -1    0    0    0  501 -0.00000000000E+00  0.00000000000E+00  0.27933320157E+02  0.27933320157E+02  0.00000000000E+00 0.  1.
          2   -1    0    0  503    0  0.00000000000E+00 -0.00000000000E+00 -0.10975557600E+04  0.10975557600E+04  0.00000000000E+00 0. -1.
         25    2    1    2    0    0 -0.39243341429E+02  0.94003162592E+00 -0.38352459261E+03  0.40528833390E+03  0.12500638765E+03 0.  0.
          4    1    3    3  502    0 -0.35286126887E+02  0.11812005230E+02 -0.39013184785E+03  0.39190446007E+03  0.12700000000E+01 0. -1.
         -4    1    3    3    0  502 -0.39572145415E+01 -0.10871973604E+02  0.66072552356E+01  0.13383873831E+02  0.12700000000E+01 0. -1.
          1    1    1    2  503    0  0.20878422193E+02  0.53095560998E+02 -0.65037238685E+03  0.65287003966E+03  0.00000000000E+00 0. -1.
         -1    1    1    2    0  501  0.18364919236E+02 -0.54035592624E+02 -0.35725460346E+02  0.67330706559E+02  0.00000000000E+00 0.  1.
<mgrwt>
<rscale>  0 0.54579130E+02</rscale>
<asrwt>0</asrwt>
<pdfrwt beam="2">  1        2 0.16885474E+00 0.57053020E+02</pdfrwt>
<pdfrwt beam="1">  1       -2 0.42974337E-02 0.52212511E+02</pdfrwt>
<totfact> 0.52450737E+03</totfact>
</mgrwt>
</event>
<event>
 7    1  0.5277388E-004  0.8851978E+02  0.7546771E-02  0.1406388E+00
          2   -1    0    0  503    0  0.00000000000E+00  0.00000000000E+00  0.15171510771E+03  0.15171510771E+03  0.00000000000E+00 0. -1.
         -2   -1    0    0    0  501 -0.00000000000E+00 -0.00000000000E+00 -0.14862961652E+03  0.14862961652E+03  0.00000000000E+00 0.  1.
         25    2    1    2    0    0 -0.26607212512E+02 -0.78564441498E+02  0.32094239522E+02  0.15340611543E+03  0.12499232302E+03 0.  0.
          4    1    3    3  502    0 -0.22876253138E+02  0.31357561690E+02  0.32807819293E-01  0.38835983432E+02  0.12700000000E+01 0.  1.
         -4    1    3    3    0  502 -0.37309593735E+01 -0.10992200319E+03  0.32061431703E+02  0.11457013200E+03  0.12700000000E+01 0.  1.
          3    1    1    2  503    0  0.63919934748E+02  0.71302622732E+02  0.50603203491E+01  0.95892799045E+02  0.00000000000E+00 0. -1.
         -3    1    1    2    0  501 -0.37312722236E+02  0.72618187654E+01 -0.34069068678E+02  0.51045809750E+02  0.00000000000E+00 0.  1.
<mgrwt>
<rscale>  0 0.58007630E+02</rscale>
<asrwt>0</asrwt>
<pdfrwt beam="1">  1        2 0.23340786E-01 0.88519784E+02</pdfrwt>
<pdfrwt beam="2">  1       -2 0.22866095E-01 0.38012804E+02</pdfrwt>
<totfact> 0.34977982E+03</totfact>
</mgrwt>
</event>
<event>
 7    1  0.5277388E-004  0.4939769E+02  0.7546771E-02  0.1480371E+00
          2   -1    0    0  503    0  0.00000000000E+00  0.00000000000E+00  0.29459906268E+04  0.29459906268E+04  0.00000000000E+00 0. -1.
         -2   -1    0    0    0  501 -0.00000000000E+00 -0.00000000000E+00 -0.11565655145E+03  0.11565655145E+03  0.00000000000E+00 0.  1.
         25    2    1    2    0    0 -0.60291517061E+02  0.13074577186E+02  0.67056893576E+02  0.15469598928E+03  0.12501284144E+03 0.  0.
          4    1    3    3  502    0 -0.30137953138E+02 -0.27575138029E+02  0.90201276890E+02  0.99028115751E+02  0.12700000000E+01 0.  1.
         -4    1    3    3    0  502 -0.30153563923E+02  0.40649715215E+02 -0.23144383314E+02  0.55667873530E+02  0.12700000000E+01 0.  1.
          1    1    1    2  503    0  0.29662603229E+02  0.25747242674E+02  0.28264517721E+04  0.28267246789E+04  0.00000000000E+00 0. -1.
         -3    1    1    2    0  501  0.30628913832E+02 -0.38821819860E+02 -0.63174590288E+02  0.80226510069E+02  0.00000000000E+00 0.  1.
<mgrwt>
<rscale>  0 0.44048391E+02</rscale>
<asrwt>0</asrwt>
<pdfrwt beam="1">  1        2 0.45322927E+00 0.39278372E+02</pdfrwt>
<pdfrwt beam="2">  1       -2 0.17793318E-01 0.49397687E+02</pdfrwt>
<totfact> 0.73390261E+01</totfact>
</mgrwt>
</event>
<event>
 7    1  0.5277388E-004  0.1332874E+03  0.7546771E-02  0.1322841E+00
          2   -1    0    0  503    0  0.00000000000E+00  0.00000000000E+00  0.10780730306E+03  0.10780730306E+03  0.00000000000E+00 0. -1.
          1   -1    0    0  502    0 -0.00000000000E+00 -0.00000000000E+00 -0.17339945134E+04  0.17339945134E+04  0.00000000000E+00 0. -1.
         25    2    1    2    0    0 -0.29377176373E+02  0.10310318743E+03 -0.61458828138E+03  0.63626737731E+03  0.12499653625E+03 0.  0.
          4    1    3    3  501    0  0.41428546423E+02  0.60257522643E+02 -0.18802659682E+03  0.20174961588E+03  0.12700000000E+01 0. -1.
         -4    1    3    3    0  501 -0.70805722796E+02  0.42845664783E+02 -0.42656168456E+03  0.43451776144E+03  0.12700000000E+01 0. -1.
          2    1    1    2  502    0  0.25385965029E+01 -0.14615219408E+03 -0.10967332710E+04  0.11064315506E+04  0.00000000000E+00 0. -1.
          1    1    1    2  503    0  0.26838579870E+02  0.43049006656E+02  0.85134342019E+02  0.99102888629E+02  0.00000000000E+00 0. -1.
<mgrwt>
<rscale>  0 0.82229329E+02</rscale>
<asrwt>0</asrwt>
<pdfrwt beam="1">  1        2 0.16585741E-01 0.50729935E+02</pdfrwt>
<pdfrwt beam="2">  1        1 0.26676836E+00 0.13328743E+03</pdfrwt>
<totfact> 0.23668229E+02</totfact>
</mgrwt>
</event>
<event>
 7    1  0.5277388E-004  0.8775356E+02  0.7546771E-02  0.1408817E+00
          1   -1    0    0  502    0 -0.00000000000E+00  0.00000000000E+00  0.69170103180E+03  0.69170103180E+03  0.00000000000E+00 0. -1.
          2   -1    0    0  503    0  0.00000000000E+00 -0.00000000000E+00 -0.92828454040E+03  0.92828454040E+03  0.00000000000E+00 0. -1.
         25    2    1    2    0    0 -0.56399278802E+02 -0.24091838378E+02  0.27634492955E+02  0.14195011253E+03  0.12499949568E+03 0.  0.
          4    1    3    3  501    0 -0.73750905630E+02  0.20585803597E+02  0.47429872686E+02  0.90078727311E+02  0.12700000000E+01 0.  1.
         -4    1    3    3    0  501  0.17351626828E+02 -0.44677641974E+02 -0.19795379731E+02  0.51871385220E+02  0.12700000000E+01 0.  1.
          2    1    1    2  502    0 -0.32046900976E+02  0.19709068452E+02  0.60407147176E+03  0.60524193034E+03  0.00000000000E+00 0. -1.
          1    1    1    2  503    0  0.88446179778E+02  0.43827699261E+01 -0.86828947331E+03  0.87279352934E+03  0.00000000000E+00 0. -1.
<mgrwt>
<rscale>  0 0.57458740E+02</rscale>
<asrwt>0</asrwt>
<pdfrwt beam="2">  1        2 0.14281301E+00 0.87753558E+02</pdfrwt>
<pdfrwt beam="1">  1        1 0.10641554E+00 0.37622483E+02</pdfrwt>
<totfact> 0.13086162E+02</totfact>
</mgrwt>
</event>
<event>
 7    1  0.5277388E-004  0.5711538E+02  0.7546771E-02  0.1427596E+00
          1   -1    0    0  502    0 -0.00000000000E+00  0.00000000000E+00  0.14475984856E+02  0.14475984856E+02  0.00000000000E+00 0. -1.
          2   -1    0    0  503    0  0.00000000000E+00 -0.00000000000E+00 -0.17873625704E+04  0.17873625704E+04  0.00000000000E+00 0. -1.
         25    2    1    2    0    0 -0.38463010899E+02 -0.37761491494E+02 -0.73846290696E+03  0.75090581206E+03  0.12500696051E+03 0.  0.
          4    1    3    3  501    0 -0.69466328219E+02  0.11653347444E+02 -0.27918345655E+03  0.28793469150E+03  0.12700000000E+01 0. -1.
         -4    1    3    3    0  501  0.31003317319E+02 -0.49414838938E+02 -0.45927945042E+03  0.46297112056E+03  0.12700000000E+01 0. -1.
          2    1    1    2  502    0 -0.21490531789E+02  0.45158864505E+02 -0.78339932098E+02  0.92942514282E+02  0.00000000000E+00 0. -1.
          1    1    1    2  503    0  0.59953542689E+02 -0.73973730114E+01 -0.95608374651E+03  0.95799022894E+03  0.00000000000E+00 0. -1.
<mgrwt>
<rscale>  0 0.53445624E+02</rscale>
<asrwt>0</asrwt>
<pdfrwt beam="2">  1        2 0.27497882E+00 0.57115376E+02</pdfrwt>
<pdfrwt beam="1">  1        1 0.22270749E-02 0.50011659E+02</pdfrwt>
<totfact> 0.63874460E+03</totfact>
</mgrwt>
</event>
<event>
 7    1  0.5277388E-004  0.4890063E+02  0.7546771E-02  0.1492440E+00
          2   -1    0    0  503    0  0.00000000000E+00  0.00000000000E+00  0.77691520683E+03  0.77691520683E+03  0.00000000000E+00 0. -1.
          1   -1    0    0  502    0 -0.00000000000E+00 -0.00000000000E+00 -0.31366886120E+02  0.31366886120E+02  0.00000000000E+00 0. -1.
         25    2    1    2    0    0  0.40253128039E+02 -0.34992017415E+02  0.62147812734E+03  0.63616367014E+03  0.12499758735E+03 0.  0.
          4    1    3    3  501    0  0.44160171688E+02  0.30432169448E+02  0.13466771995E+03  0.14495946122E+03  0.12700000000E+01 0.  1.
         -4    1    3    3    0  501 -0.39070436494E+01 -0.65424186862E+02  0.48681040739E+03  0.49120420892E+03  0.12700000000E+01 0.  1.
          2    1    1    2  502    0 -0.49278268375E+02 -0.33611127629E+00  0.73365034836E+01  0.49822534943E+02  0.00000000000E+00 0. -1.
          1    1    1    2  503    0  0.90251403359E+01  0.35328128691E+02  0.11673368989E+03  0.12229588787E+03  0.00000000000E+00 0. -1.
<mgrwt>
<rscale>  0 0.42226177E+02</rscale>
<asrwt>0</asrwt>
<pdfrwt beam="1">  1        2 0.11952540E+00 0.36462718E+02</pdfrwt>
<pdfrwt beam="2">  1        1 0.48256753E-02 0.48900633E+02</pdfrwt>
<totfact> 0.80019432E+03</totfact>
</mgrwt>
</event>
<event>
 7    1  0.5277388E-004  0.3879833E+02  0.7546771E-02  0.1518239E+00
          2   -1    0    0  503    0  0.00000000000E+00  0.00000000000E+00  0.97448341351E+03  0.97448341351E+03  0.00000000000E+00 0. -1.
         -2   -1    0    0    0  501 -0.00000000000E+00 -0.00000000000E+00 -0.63569377207E+03  0.63569377207E+03  0.00000000000E+00 0.  1.
         25    2    1    2    0    0 -0.18619319472E+02  0.18854788417E+02 -0.42095141768E+03  0.43991589448E+03  0.12499486416E+03 0.  0.
          4    1    3    3  502    0 -0.61738295566E+02  0.53473649663E+01 -0.35235395230E+03  0.35776407317E+03  0.12700000000E+01 0. -1.
         -4    1    3    3    0  502  0.43118976094E+02  0.13507423450E+02 -0.68597465377E+02  0.82151821306E+02  0.12700000000E+01 0. -1.
          1    1    1    2  503    0  0.29543443812E+02  0.24749864914E+02  0.96214959589E+03  0.96292118876E+03  0.00000000000E+00 0. -1.
         -1    1    1    2    0  501 -0.10924124341E+02 -0.43604653331E+02 -0.20240853677E+03  0.20734010235E+03  0.00000000000E+00 0.  1.
<mgrwt>
<rscale>  0 0.38669205E+02</rscale>
<asrwt>0</asrwt>
<pdfrwt beam="1">  1        2 0.14992052E+00 0.38540510E+02</pdfrwt>
<pdfrwt beam="2">  1       -2 0.97799042E-01 0.38798329E+02</pdfrwt>
<totfact> 0.28923279E+01</totfact>
</mgrwt>
</event>
<event>
 7    1  0.5758038E-004  0.1849480E+03  0.7546771E-02  0.1293529E+00
          1   -1    0    0  502    0 -0.00000000000E+00  0.00000000000E+00  0.99267345214E+03  0.99267345214E+03  0.00000000000E+00 0. -1.
          2   -1    0    0  503    0  0.00000000000E+00 -0.00000000000E+00 -0.31361574555E+04  0.31361574555E+04  0.00000000000E+00 0. -1.
         25    2    1    2    0    0  0.11746572398E+03 -0.13032213161E+03  0.29667779984E+03  0.36664133319E+03  0.12500438387E+03 0.  0.
          4    1    3    3  501    0  0.12932189884E+03 -0.71535282167E+02  0.16244973243E+03  0.21962007782E+03  0.12700000000E+01 0.  1.
         -4    1    3    3    0  501 -0.11856174861E+02 -0.58786849441E+02  0.13422806742E+03  0.14702125537E+03  0.12700000000E+01 0.  1.
          2    1    1    2  502    0  0.37644337839E+02  0.29357048082E+02  0.65738629231E+03  0.65911734142E+03  0.00000000000E+00 0. -1.
          1    1    1    2  503    0 -0.15511006182E+03  0.10096508353E+03 -0.30975480955E+04  0.31030722330E+04  0.00000000000E+00 0. -1.
<mgrwt>
<rscale>  0 0.93963162E+02</rscale>
<asrwt>0</asrwt>
<pdfrwt beam="2">  1        2 0.48248577E+00 0.18494795E+03</pdfrwt>
<pdfrwt beam="1">  1        1 0.15271899E+00 0.47738165E+02</pdfrwt>
<totfact> 0.45651410E+00</totfact>
</mgrwt>
</event>
<event>
 7    1  0.5277388E-004  0.8259834E+02  0.7546771E-02  0.1376850E+00
          1   -1    0    0  502    0 -0.00000000000E+00  0.00000000000E+00  0.11071818987E+04  0.11071818987E+04  0.00000000000E+00 0. -1.
          2   -1    0    0  503    0  0.00000000000E+00 -0.00000000000E+00 -0.12085363285E+03  0.12085363285E+03  0.00000000000E+00 0. -1.
         25    2    1    2    0    0 -0.10816301483E+03  0.60408767729E+02  0.55291459537E+02  0.18446243374E+03  0.12498314672E+03 0.  0.
          4    1    3    3  501    0 -0.29602686489E+01  0.12347327506E+02 -0.35303374645E+02  0.37538791248E+02  0.12700000000E+01 0.  1.
         -4    1    3    3    0  501 -0.10520274619E+03  0.48061440223E+02  0.90594834182E+02  0.14692364249E+03  0.12700000000E+01 0.  1.
          2    1    1    2  502    0  0.49392341140E+02 -0.15010574486E+02  0.96180442611E+03  0.96318880537E+03  0.00000000000E+00 0. -1.
          1    1    1    2  503    0  0.58770673694E+02 -0.45398193242E+02 -0.30767619832E+02  0.80384292410E+02  0.00000000000E+00 0. -1.
<mgrwt>
<rscale>  0 0.65299030E+02</rscale>
<asrwt>0</asrwt>
<pdfrwt beam="2">  1        2 0.18592867E-01 0.82598338E+02</pdfrwt>
<pdfrwt beam="1">  1        1 0.17033567E+00 0.51622870E+02</pdfrwt>
<totfact> 0.59100389E+02</totfact>
</mgrwt>
</event>
<event>
 7    1  0.5277388E-004  0.8517824E+02  0.7546771E-02  0.1432579E+00
          1   -1    0    0  502    0 -0.00000000000E+00  0.00000000000E+00  0.45358806843E+02  0.45358806843E+02  0.00000000000E+00 0. -1.
          2   -1    0    0  503    0  0.00000000000E+00 -0.00000000000E+00 -0.73953341829E+03  0.73953341829E+03  0.00000000000E+00 0. -1.
         25    2    1    2    0    0 -0.90437407525E+02  0.66244121064E+02 -0.31661167962E+03  0.35837855190E+03  0.12500009013E+03 0.  0.
          4    1    3    3  501    0 -0.10736398970E+03  0.39459784326E+02 -0.30299267867E+03  0.32386768454E+03  0.12700000000E+01 0.  1.
         -4    1    3    3    0  501  0.16926582177E+02  0.26784336738E+02 -0.13619000949E+02  0.34510867354E+02  0.12700000000E+01 0.  1.
          2    1    1    2  502    0  0.64111654495E+02 -0.47543359115E+02 -0.43513532624E+02  0.90907110610E+02  0.00000000000E+00 0. -1.
          1    1    1    2  503    0  0.26325753030E+02 -0.18700761949E+02 -0.33404939920E+03  0.33560656263E+03  0.00000000000E+00 0. -1.
<mgrwt>
<rscale>  0 0.52445812E+02</rscale>
<asrwt>0</asrwt>
<pdfrwt beam="2">  1        2 0.11377436E+00 0.32291853E+02</pdfrwt>
<pdfrwt beam="1">  1        1 0.69782788E-02 0.85178239E+02</pdfrwt>
<totfact> 0.54893104E+03</totfact>
</mgrwt>
</event>
<event>
 7    1  0.5277388E-004  0.1210596E+03  0.7546771E-02  0.1286710E+00
          2   -1    0    0  503    0  0.00000000000E+00  0.00000000000E+00  0.31014413160E+04  0.31014413160E+04  0.00000000000E+00 0. -1.
          1   -1    0    0  502    0 -0.00000000000E+00 -0.00000000000E+00 -0.39229168042E+03  0.39229168042E+03  0.00000000000E+00 0. -1.
         25    2    1    2    0    0  0.42247540810E+02  0.94836192537E+02  0.14409834158E+04  0.14501148633E+04  0.12498461444E+03 0.  0.
          4    1    3    3  501    0  0.68854550323E+02  0.36221461953E+02  0.42297726028E+03  0.43007478306E+03  0.12700000000E+01 0. -1.
         -4    1    3    3    0  501 -0.26607009513E+02  0.58614730584E+02  0.10180061555E+04  0.10200400802E+04  0.12700000000E+01 0. -1.
          2    1    1    2  502    0  0.75327523042E+02 -0.19216141646E+02 -0.38084181809E+03  0.38869523567E+03  0.00000000000E+00 0. -1.
          1    1    1    2  503    0 -0.11757506385E+03 -0.75620050891E+02  0.16490080379E+04  0.16549228975E+04  0.00000000000E+00 0. -1.
<mgrwt>
<rscale>  0 0.97011158E+02</rscale>
<asrwt>0</asrwt>
<pdfrwt beam="1">  1        2 0.47714480E+00 0.12105961E+03</pdfrwt>
<pdfrwt beam="2">  1        1 0.60352568E-01 0.77739924E+02</pdfrwt>
<totfact> 0.17786086E+01</totfact>
</mgrwt>
</event>
<event>
 7    1  0.5277388E-004  0.6279101E+02  0.7546771E-02  0.1407090E+00
          2   -1    0    0  503    0  0.00000000000E+00  0.00000000000E+00  0.20422096491E+03  0.20422096491E+03  0.00000000000E+00 0. -1.
          1   -1    0    0  502    0 -0.00000000000E+00 -0.00000000000E+00 -0.25171205161E+03  0.25171205161E+03  0.00000000000E+00 0. -1.
         25    2    1    2    0    0  0.13194027819E+01  0.30278932274E+02 -0.16360365262E+02  0.12965922314E+03  0.12500119211E+03 0.  0.
          4    1    3    3  501    0  0.58158813509E+02  0.84292512613E+01  0.15683620092E+02  0.60836573743E+02  0.12700000000E+01 0.  1.
         -4    1    3    3    0  501 -0.56839410727E+02  0.21849681013E+02 -0.32043985354E+02  0.68822649393E+02  0.12700000000E+01 0.  1.
          2    1    1    2  502    0 -0.51056638092E+02  0.15281139633E+02 -0.16661346450E+03  0.17492952888E+03  0.00000000000E+00 0. -1.
          1    1    1    2  503    0  0.49737235310E+02 -0.45560071907E+02  0.13548274306E+03  0.15134426450E+03  0.00000000000E+00 0. -1.
<mgrwt>
<rscale>  0 0.57848161E+02</rscale>
<asrwt>0</asrwt>
<pdfrwt beam="1">  1        2 0.31418610E-01 0.62791015E+02</pdfrwt>
<pdfrwt beam="2">  1        1 0.38724931E-01 0.53294404E+02</pdfrwt>
<totfact> 0.23726051E+03</totfact>
</mgrwt>
</event>
<event>
 7    1  0.5277388E-004  0.1050135E+03  0.7546771E-02  0.1277545E+00
          2   -1    0    0  503    0  0.00000000000E+00  0.00000000000E+00  0.23378767781E+03  0.23378767781E+03  0.00000000000E+00 0. -1.
          1   -1    0    0  502    0 -0.00000000000E+00 -0.00000000000E+00 -0.23258238126E+03  0.23258238126E+03  0.00000000000E+00 0. -1.
         25    2    1    2    0    0  0.74258620933E+02 -0.38088330287E+02  0.27097108632E+02  0.15272006270E+03  0.12499640222E+03 0.  0.
          4    1    3    3  501    0 -0.20597440635E+02  0.31794906546E+01  0.43238771148E+02  0.48016330055E+02  0.12700000000E+01 0.  1.
         -4    1    3    3    0  501  0.94856061568E+02 -0.41267820942E+02 -0.16141662515E+02  0.10470373265E+03  0.12700000000E+01 0.  1.
          2    1    1    2  502    0 -0.10526744545E+03 -0.54619173986E+02 -0.12648149346E+03  0.17338413257E+03  0.00000000000E+00 0. -1.
          1    1    1    2  503    0  0.31008824521E+02  0.92707504274E+02  0.10058968138E+03  0.14026586380E+03  0.00000000000E+00 0. -1.
<mgrwt>
<rscale>  0 0.10131976E+03</rscale>
<asrwt>0</asrwt>
<pdfrwt beam="1">  1        2 0.35967335E-01 0.97755964E+02</pdfrwt>
<pdfrwt beam="2">  1        1 0.35781905E-01 0.10501349E+03</pdfrwt>
<totfact> 0.23018957E+03</totfact>
</mgrwt>
</event>
<event>
 7    1  0.5277388E-004  0.7044795E+02  0.7546771E-02  0.1444067E+00
         -2   -1    0    0    0  501  0.00000000000E+00  0.00000000000E+00  0.18698738322E+03  0.18698738322E+03  0.00000000000E+00 0.  1.
         -1   -1    0    0    0  502 -0.00000000000E+00 -0.00000000000E+00 -0.29480966924E+03  0.29480966924E+03  0.00000000000E+00 0.  1.
         25    2    1    2    0    0 -0.31182811319E+02  0.55963480761E+02 -0.24718878379E+02  0.14261111016E+03  0.12499050721E+03 0.  0.
          4    1    3    3  503    0 -0.42664084035E+02 -0.30924035100E+02 -0.11792690968E+02  0.54011114353E+02  0.12700000000E+01 0.  1.
         -4    1    3    3    0  503  0.11481272716E+02  0.86887515861E+02 -0.12926187411E+02  0.88599995805E+02  0.12700000000E+01 0.  1.
         -2    1    1    2    0  502  0.61637852548E+02 -0.37098709316E+02 -0.20230588950E+03  0.21471658535E+03  0.00000000000E+00 0.  1.
         -1    1    1    2    0  501 -0.30455041229E+02 -0.18864771444E+02  0.11920248186E+03  0.12446935695E+03  0.00000000000E+00 0.  1.
<mgrwt>
<rscale>  0 0.50237007E+02</rscale>
<asrwt>0</asrwt>
<pdfrwt beam="1">  1       -2 0.28767290E-01 0.35824421E+02</pdfrwt>
<pdfrwt beam="2">  1       -1 0.45355334E-01 0.70447946E+02</pdfrwt>
<totfact> 0.38528583E+02</totfact>
</mgrwt>
</event>
<event>
 7    1  0.5277388E-004  0.7210222E+02  0.7546771E-02  0.1479439E+00
         -2   -1    0    0    0  501 -0.00000000000E+00  0.00000000000E+00  0.12856171537E+03  0.12856171537E+03  0.00000000000E+00 0.  1.
          2   -1    0    0  503    0  0.00000000000E+00 -0.00000000000E+00 -0.80430168564E+03  0.80430168564E+03  0.00000000000E+00 0. -1.
         25    2    1    2    0    0 -0.10388194542E+02  0.56353995556E+02 -0.16938141735E+03  0.21817077389E+03  0.12499893853E+03 0.  0.
          4    1    3    3  502    0  0.46860127799E+02 -0.89287037458E+01 -0.39569437824E+02  0.61991504561E+02  0.12700000000E+01 0. -1.
         -4    1    3    3    0  502 -0.57248322342E+02  0.65282699302E+02 -0.12981197953E+03  0.15617926933E+03  0.12700000000E+01 0. -1.
          1    1    1    2  503    0 -0.11066129721E+02 -0.72890518346E+02 -0.60649372393E+03  0.61095836524E+03  0.00000000000E+00 0. -1.
         -1    1    1    2    0  501  0.21454324263E+02  0.16536522790E+02  0.10013517101E+03  0.10373426188E+03  0.00000000000E+00 0.  1.
<mgrwt>
<rscale>  0 0.44193718E+02</rscale>
<asrwt>0</asrwt>
<pdfrwt beam="2">  1        2 0.12373872E+00 0.72102216E+02</pdfrwt>
<pdfrwt beam="1">  1       -2 0.19778726E-01 0.27087721E+02</pdfrwt>
<totfact> 0.72179645E+02</totfact>
</mgrwt>
</event>
<event>
 7    1  0.5277388E-004  0.5058740E+02  0.7546771E-02  0.1478757E+00
          1   -1    0    0  502    0 -0.00000000000E+00  0.00000000000E+00  0.54546906180E+02  0.54546906180E+02  0.00000000000E+00 0. -1.
          2   -1    0    0  503    0  0.00000000000E+00 -0.00000000000E+00 -0.13887332675E+04  0.13887332675E+04  0.00000000000E+00 0. -1.
         25    2    1    2    0    0 -0.57763378652E+02  0.22612444316E+02 -0.25674991078E+03  0.29222165093E+03  0.12500018413E+03 0.  0.
          4    1    3    3  501    0 -0.39312665582E+02  0.70892175810E+02 -0.19804097972E+03  0.21399305787E+03  0.12700000000E+01 0. -1.
         -4    1    3    3    0  501 -0.18450713070E+02 -0.48279731494E+02 -0.58708931060E+02  0.78228593060E+02  0.12700000000E+01 0. -1.
          2    1    1    2  502    0  0.48385673788E+02  0.15031924596E+02  0.18869379655E+02  0.54066493076E+02  0.00000000000E+00 0. -1.
          1    1    1    2  503    0  0.93777048644E+01 -0.37644368912E+02 -0.10963058302E+04  0.10969920297E+04  0.00000000000E+00 0. -1.
<mgrwt>
<rscale>  0 0.44300454E+02</rscale>
<asrwt>0</asrwt>
<pdfrwt beam="2">  1        2 0.21365131E+00 0.38794843E+02</pdfrwt>
<pdfrwt beam="1">  1        1 0.83918304E-02 0.50587399E+02</pdfrwt>
<totfact> 0.17870980E+03</totfact>
</mgrwt>
</event>
<event>
 7    1  0.5277388E-004  0.8314961E+02  0.7546771E-02  0.1454417E+00
          3   -1    0    0  503    0  0.00000000000E+00  0.00000000000E+00  0.84458816827E+02  0.84458816827E+02  0.00000000000E+00 0. -1.
         -1   -1    0    0    0  501 -0.00000000000E+00 -0.00000000000E+00 -0.56332866566E+03  0.56332866566E+03  0.00000000000E+00 0.  1.
         25    2    1    2    0    0 -0.60008346161E+02  0.22513022766E+02 -0.20699109483E+03  0.25015701820E+03  0.12500153043E+03 0.  0.
          4    1    3    3  502    0 -0.43179865111E+02  0.66245378630E+02 -0.17866847378E+03  0.19538932255E+03  0.12700000000E+01 0.  1.
         -4    1    3    3    0  502 -0.16828481050E+02 -0.43732355864E+02 -0.28322621050E+02  0.54767695652E+02  0.12700000000E+01 0.  1.
          2    1    1    2  503    0  0.70847730710E+02 -0.48461390129E+02  0.32627516731E+02  0.91828438558E+02  0.00000000000E+00 0. -1.
         -2    1    1    2    0  501 -0.10839384550E+02  0.25948367363E+02 -0.30450627073E+03  0.30580202573E+03  0.00000000000E+00 0.  1.
<mgrwt>
<rscale>  0 0.48355753E+02</rscale>
<asrwt>0</asrwt>
<pdfrwt beam="1">  1        3 0.12993664E-01 0.83149610E+02</pdfrwt>
<pdfrwt beam="2">  1       -1 0.86665948E-01 0.28121345E+02</pdfrwt>
<totfact> 0.29534607E+02</totfact>
</mgrwt>
</event>
<event>
 7    1  0.5277388E-004  0.2254699E+03  0.7546771E-02  0.1218127E+00
          2   -1    0    0  503    0  0.00000000000E+00  0.00000000000E+00  0.64279677230E+03  0.64279677230E+03  0.00000000000E+00 0. -1.
          1   -1    0    0  502    0 -0.00000000000E+00 -0.00000000000E+00 -0.10563346656E+04  0.10563346656E+04  0.00000000000E+00 0. -1.
         25    2    1    2    0    0  0.17853116679E+03 -0.52497227215E+02 -0.23749365356E+03  0.32658339687E+03  0.12499657295E+03 0.  0.
          4    1    3    3  501    0  0.14044792600E+03  0.19477533483E+02 -0.16494265269E+03  0.21751479445E+03  0.12700000000E+01 0. -1.
         -4    1    3    3    0  501  0.38083240790E+02 -0.71974760698E+02 -0.72551000877E+02  0.10906860242E+03  0.12700000000E+01 0. -1.
          2    1    1    2  502    0  0.69975552793E+01 -0.82332551661E+02 -0.74996263516E+03  0.75450087408E+03  0.00000000000E+00 0. -1.
          1    1    1    2  503    0 -0.18552872207E+03  0.13482977888E+03  0.57391839542E+03  0.61804716696E+03  0.00000000000E+00 0. -1.
<mgrwt>
<rscale>  0 0.13649336E+03</rscale>
<asrwt>0</asrwt>
<pdfrwt beam="1">  1        2 0.98891812E-01 0.22546988E+03</pdfrwt>
<pdfrwt beam="2">  1        1 0.16251302E+00 0.82629382E+02</pdfrwt>
<totfact> 0.10078498E+02</totfact>
</mgrwt>
</event>
<event>
 7    1  0.5848418E-004  0.8414570E+02  0.7546771E-02  0.1328842E+00
          1   -1    0    0  502    0 -0.00000000000E+00  0.00000000000E+00  0.52658640003E+03  0.52658640003E+03  0.00000000000E+00 0. -1.
          2   -1    0    0  503    0  0.00000000000E+00 -0.00000000000E+00 -0.22212152224E+04  0.22212152224E+04  0.00000000000E+00 0. -1.
         25    2    1    2    0    0  0.31554928517E+02  0.29524169165E+02  0.78152300766E+00  0.13226178486E+03  0.12500071550E+03 0.  0.
          4    1    3    3  501    0  0.77070904168E+02  0.37750150057E+02 -0.25930732536E+01  0.85868125795E+02  0.12700000000E+01 0. -1.
         -4    1    3    3    0  501 -0.45515975652E+02 -0.82259808917E+01  0.33745962613E+01  0.46393659061E+02  0.12700000000E+01 0. -1.
          2    1    1    2  502    0  0.48090223114E+02 -0.59106750061E+02  0.45606538838E+03  0.46238719267E+03  0.00000000000E+00 0. -1.
          1    1    1    2  503    0 -0.79645151631E+02  0.29582580896E+02 -0.21514757337E+04  0.21531526449E+04  0.00000000000E+00 0. -1.
<mgrwt>
<rscale>  0 0.80073795E+02</rscale>
<asrwt>0</asrwt>
<pdfrwt beam="2">  1        2 0.34172542E+00 0.84145702E+02</pdfrwt>
<pdfrwt beam="1">  1        1 0.81013292E-01 0.76198933E+02</pdfrwt>
<totfact> 0.38837928E+01</totfact>
</mgrwt>
</event>
<event>
 7    1  0.5277388E-004  0.6283626E+02  0.7546771E-02  0.1510502E+00
          1   -1    0    0  502    0 -0.00000000000E+00  0.00000000000E+00  0.74358366854E+02  0.74358366854E+02  0.00000000000E+00 0. -1.
          2   -1    0    0  503    0  0.00000000000E+00 -0.00000000000E+00 -0.11975359862E+04  0.11975359862E+04  0.00000000000E+00 0. -1.
         25    2    1    2    0    0  0.42821878743E+02  0.29357253529E+02 -0.28812025922E+02  0.13838969923E+03  0.12500405746E+03 0.  0.
          4    1    3    3  501    0  0.42423669219E+02 -0.12742530574E+02  0.38687766844E+02  0.58825980644E+02  0.12700000000E+01 0. -1.
         -4    1    3    3    0  501  0.39820952489E+00  0.42099784103E+02 -0.67499792766E+02  0.79563718589E+02  0.12700000000E+01 0. -1.
          2    1    1    2  502    0 -0.85168841274E+01  0.23579455470E+02  0.10253277753E+02  0.27086117111E+02  0.00000000000E+00 0. -1.
          1    1    1    2  503    0 -0.34304994616E+02 -0.52936708999E+02 -0.11046188712E+04  0.11064185368E+04  0.00000000000E+00 0. -1.
<mgrwt>
<rscale>  0 0.39690478E+02</rscale>
<asrwt>0</asrwt>
<pdfrwt beam="2">  1        2 0.18423630E+00 0.62836262E+02</pdfrwt>
<pdfrwt beam="1">  1        1 0.11439749E-01 0.25070461E+02</pdfrwt>
<totfact> 0.13750595E+03</totfact>
</mgrwt>
</event>
<event>
 7    1  0.5277388E-004  0.8770967E+02  0.7546771E-02  0.1320184E+00
         -1   -1    0    0    0  502 -0.00000000000E+00  0.00000000000E+00  0.18151577895E+02  0.18151577895E+02  0.00000000000E+00 0.  1.
         -2   -1    0    0    0  501  0.00000000000E+00 -0.00000000000E+00 -0.29549276316E+04  0.29549276316E+04  0.00000000000E+00 0.  1.
         25    2    1    2    0    0  0.20885179698E+02  0.48185361015E+02 -0.90246003633E+03  0.91258854006E+03  0.12500282609E+03 0.  0.
          4    1    3    3  503    0 -0.20674366805E+02  0.78198360120E+02 -0.44804732330E+03  0.45529158765E+03  0.12700000000E+01 0. -1.
         -4    1    3    3    0  503  0.41559546503E+02 -0.30012999105E+02 -0.45441271303E+03  0.45729695241E+03  0.12700000000E+01 0. -1.
         -2    1    1    2    0  502 -0.96420330224E+02 -0.25253526568E+02 -0.19062473459E+03  0.21511022784E+03  0.00000000000E+00 0.  1.
         -1    1    1    2    0  501  0.75535150526E+02 -0.22931834447E+02 -0.18436912828E+04  0.18453804416E+04  0.00000000000E+00 0.  1.
<mgrwt>
<rscale>  0 0.83209061E+02</rscale>
<asrwt>0</asrwt>
<pdfrwt beam="2">  1       -2 0.45460425E+00 0.78939394E+02</pdfrwt>
<pdfrwt beam="1">  1       -1 0.27925505E-02 0.87709665E+02</pdfrwt>
<totfact> 0.13353860E+01</totfact>
</mgrwt>
</event>
<event>
 7    1  0.5277388E-004  0.1261209E+03  0.7546771E-02  0.1254065E+00
         -1   -1    0    0    0  501 -0.00000000000E+00  0.00000000000E+00  0.60098479792E+03  0.60098479792E+03  0.00000000000E+00 0.  1.
          1   -1    0    0  503    0  0.00000000000E+00 -0.00000000000E+00 -0.17531153285E+03  0.17531153285E+03  0.00000000000E+00 0. -1.
         25    2    1    2    0    0 -0.44791213633E+02  0.84395649195E+02  0.24218318709E+03  0.28880452435E+03  0.12500591488E+03 0.  0.
          4    1    3    3  502    0 -0.77481352152E+02  0.50886394538E+02  0.21622443431E+03  0.23526028984E+03  0.12700000000E+01 0.  1.
         -4    1    3    3    0  502  0.32690138519E+02  0.33509254657E+02  0.25958752774E+02  0.53544234514E+02  0.12700000000E+01 0.  1.
          2    1    1    2  503    0  0.13035124411E+03 -0.28314476048E+02 -0.11238912862E+03  0.17442612370E+03  0.00000000000E+00 0. -1.
         -2    1    1    2    0  501 -0.85560030478E+02 -0.56081173147E+02  0.29587920661E+03  0.31306568272E+03  0.00000000000E+00 0.  1.
<mgrwt>
<rscale>  0 0.11358861E+03</rscale>
<asrwt>0</asrwt>
<pdfrwt beam="2">  1        1 0.26971005E-01 0.12612092E+03</pdfrwt>
<pdfrwt beam="1">  1       -1 0.92459199E-01 0.10230160E+03</pdfrwt>
<totfact> 0.21427689E+02</totfact>
</mgrwt>
</event>
<event>
 7    1  0.5277388E-004  0.4320885E+02  0.7546771E-02  0.1501853E+00
          3   -1    0    0  502    0 -0.00000000000E+00  0.00000000000E+00  0.45171913756E+02  0.45171913756E+02  0.00000000000E+00 0. -1.
          2   -1    0    0  503    0  0.00000000000E+00 -0.00000000000E+00 -0.12182005719E+04  0.12182005719E+04  0.00000000000E+00 0. -1.
         25    2    1    2    0    0  0.54151208653E+02 -0.26127541917E+02 -0.41445254726E+03  0.43702237738E+03  0.12491053821E+03 0.  0.
          4    1    3    3  501    0  0.49364007474E+01 -0.23967353588E+02 -0.36952828468E+03  0.37033980095E+03  0.12700000000E+01 0.  1.
         -4    1    3    3    0  501  0.49214807905E+02 -0.21601883298E+01 -0.44924262579E+02  0.66682576428E+02  0.12700000000E+01 0.  1.
          2    1    1    2  502    0 -0.36403136824E+02 -0.13049674922E+02  0.22066015737E+02  0.44524054585E+02  0.00000000000E+00 0. -1.
          1    1    1    2  503    0 -0.17748071828E+02  0.39177216839E+02 -0.78064212661E+03  0.78182605368E+03  0.00000000000E+00 0. -1.
<mgrwt>
<rscale>  0 0.40877248E+02</rscale>
<asrwt>0</asrwt>
<pdfrwt beam="2">  1        2 0.18741546E+00 0.43208845E+02</pdfrwt>
<pdfrwt beam="1">  1        3 0.69495256E-02 0.38671467E+02</pdfrwt>
<totfact> 0.14467992E+03</totfact>
</mgrwt>
</event>
<event>
 7    1  0.5277388E-004  0.5491356E+02  0.7546771E-02  0.1500943E+00
         -2   -1    0    0    0  501 -0.00000000000E+00  0.00000000000E+00  0.22319606442E+03  0.22319606442E+03  0.00000000000E+00 0.  1.
          2   -1    0    0  503    0  0.00000000000E+00 -0.00000000000E+00 -0.41807359709E+03  0.41807359709E+03  0.00000000000E+00 0. -1.
         25    2    1    2    0    0  0.21614766831E+02  0.67272945453E+02 -0.18610540945E+03  0.23506286126E+03  0.12500591179E+03 0.  0.
          4    1    3    3  502    0  0.63899623865E+02  0.75287560319E+02 -0.11169361385E+03  0.14909210222E+03  0.12700000000E+01 0.  1.
         -4    1    3    3    0  502 -0.42284857034E+02 -0.80146148660E+01 -0.74411795594E+02  0.85970759037E+02  0.12700000000E+01 0.  1.
          1    1    1    2  503    0  0.15076719202E+02 -0.26650136509E+02 -0.20254708468E+03  0.20484837991E+03  0.00000000000E+00 0. -1.
         -1    1    1    2    0  501 -0.36691486033E+02 -0.40622808944E+02  0.19377496146E+03  0.20135842035E+03  0.00000000000E+00 0.  1.
<mgrwt>
<rscale>  0 0.41005010E+02</rscale>
<asrwt>0</asrwt>
<pdfrwt beam="2">  1        2 0.64319015E-01 0.30619230E+02</pdfrwt>
<pdfrwt beam="1">  1       -2 0.34337856E-01 0.54913559E+02</pdfrwt>
<totfact> 0.60126717E+02</totfact>
</mgrwt>
</event>
<event>
 7    1  0.5277388E-004  0.9172225E+02  0.7546771E-02  0.1390092E+00
          1   -1    0    0  502    0 -0.00000000000E+00  0.00000000000E+00  0.92962253795E+03  0.92962253795E+03  0.00000000000E+00 0. -1.
          2   -1    0    0  503    0  0.00000000000E+00 -0.00000000000E+00 -0.65161974781E+03  0.65161974781E+03  0.00000000000E+00 0. -1.
         25    2    1    2    0    0  0.13227639586E+03 -0.98185534581E+01  0.54240997691E+03  0.57221145492E+03  0.12499566871E+03 0.  0.
          4    1    3    3  501    0  0.42380831094E+02 -0.62470301797E+02  0.18185104918E+03  0.19690122000E+03  0.12700000000E+01 0. -1.
         -4    1    3    3    0  501  0.89895564769E+02  0.52651748339E+02  0.36055892773E+03  0.37531023492E+03  0.12700000000E+01 0. -1.
          2    1    1    2  502    0 -0.41661736604E+02 -0.27497102866E+01  0.36783873001E+03  0.37020074622E+03  0.00000000000E+00 0. -1.
          1    1    1    2  503    0 -0.90614659258E+02  0.12568263745E+02 -0.63224591678E+03  0.63883008462E+03  0.00000000000E+00 0. -1.
<mgrwt>
<rscale>  0 0.61883940E+02</rscale>
<asrwt>0</asrwt>
<pdfrwt beam="2">  1        2 0.10024919E+00 0.91722246E+02</pdfrwt>
<pdfrwt beam="1">  1        1 0.14301885E+00 0.41752380E+02</pdfrwt>
<totfact> 0.13068629E+02</totfact>
</mgrwt>
</event>
<event>
 7    1  0.5277388E-004  0.2120606E+03  0.7546771E-02  0.1225489E+00
          2   -1    0    0  503    0  0.00000000000E+00  0.00000000000E+00  0.95361831369E+03  0.95361831369E+03  0.00000000000E+00 0. -1.
          1   -1    0    0  502    0 -0.00000000000E+00 -0.00000000000E+00 -0.19060124886E+04  0.19060124886E+04  0.00000000000E+00 0. -1.
         25    2    1    2    0    0  0.14021404447E+03  0.15555306153E+02 -0.10641645335E+03  0.21645097204E+03  0.12499846373E+03 0.  0.
          4    1    3    3  501    0  0.15614236494E+03  0.47564685055E+01 -0.62082434653E+02  0.16810384801E+03  0.12700000000E+01 0.  1.
         -4    1    3    3    0  501 -0.15928320470E+02  0.10798837647E+02 -0.44334018702E+02  0.48347124028E+02  0.12700000000E+01 0.  1.
          2    1    1    2  502    0 -0.22106704296E+03 -0.66831684587E+01 -0.17357065958E+04  0.17497407490E+04  0.00000000000E+00 0. -1.
          1    1    1    2  503    0  0.80852998484E+02 -0.88721376942E+01  0.88972887422E+03  0.89343908120E+03  0.00000000000E+00 0. -1.
<mgrwt>
<rscale>  0 0.13133414E+03</rscale>
<asrwt>0</asrwt>
<pdfrwt beam="1">  1        2 0.14671051E+00 0.81338319E+02</pdfrwt>
<pdfrwt beam="2">  1        1 0.29323269E+00 0.21206063E+03</pdfrwt>
<totfact> 0.16311218E+01</totfact>
</mgrwt>
</event>
<event>
 7    1  0.5277388E-004  0.1208201E+03  0.7546771E-02  0.1328931E+00
         -2   -1    0    0    0  501 -0.00000000000E+00  0.00000000000E+00  0.47275306090E+03  0.47275306090E+03  0.00000000000E+00 0.  1.
          2   -1    0    0  503    0  0.00000000000E+00 -0.00000000000E+00 -0.41512432585E+03  0.41512432585E+03  0.00000000000E+00 0. -1.
         25    2    1    2    0    0 -0.83402339225E+02 -0.65551693749E+02  0.61833537317E+02  0.17520438917E+03  0.12498086616E+03 0.  0.
          4    1    3    3  502    0 -0.21802873743E+02 -0.93661265917E+02  0.34506717640E+02  0.10217692743E+03  0.12700000000E+01 0. -1.
         -4    1    3    3    0  502 -0.61599465482E+02  0.28109572168E+02  0.27326819678E+02  0.73027461744E+02  0.12700000000E+01 0. -1.
          1    1    1    2  503    0  0.11996360026E+03  0.27143344883E+02 -0.34578120515E+03  0.36700499778E+03  0.00000000000E+00 0. -1.
         -1    1    1    2    0  501 -0.36561261032E+02  0.38408348867E+02  0.34157640289E+03  0.34566799980E+03  0.00000000000E+00 0.  1.
<mgrwt>
<rscale>  0 0.80042477E+02</rscale>
<asrwt>0</asrwt>
<pdfrwt beam="2">  1        2 0.63865281E-01 0.12082005E+03</pdfrwt>
<pdfrwt beam="1">  1       -2 0.72731240E-01 0.53027607E+02</pdfrwt>
<totfact> 0.14004008E+02</totfact>
</mgrwt>
</event>
<event>
 7    1  0.5277388E-004  0.3985162E+02  0.7546771E-02  0.1525872E+00
          2   -1    0    0  503    0  0.00000000000E+00  0.00000000000E+00  0.20094826933E+03  0.20094826933E+03  0.00000000000E+00 0. -1.
         -2   -1    0    0    0  501 -0.00000000000E+00 -0.00000000000E+00 -0.69042230684E+02  0.69042230684E+02  0.00000000000E+00 0.  1.
         25    2    1    2    0    0 -0.86497876509E+01  0.20686274671E+02  0.89111566808E+02  0.15514093167E+03  0.12500038622E+03 0.  0.
          4    1    3    3  502    0  0.29158932747E+02  0.43555653844E+02  0.96975420748E+02  0.11024147799E+03  0.12700000000E+01 0. -1.
         -4    1    3    3    0  502 -0.37808720397E+02 -0.22869379173E+02 -0.78638539402E+01  0.44899453679E+02  0.12700000000E+01 0. -1.
          1    1    1    2  503    0 -0.33590552465E+02 -0.11971303698E+02  0.58864149159E+02  0.68823145695E+02  0.00000000000E+00 0. -1.
         -1    1    1    2    0  501  0.42240340116E+02 -0.87149709735E+01 -0.16069677324E+02  0.46026422645E+02  0.00000000000E+00 0.  1.
<mgrwt>
<rscale>  0 0.37697609E+02</rscale>
<asrwt>0</asrwt>
<pdfrwt beam="1">  1        2 0.30915118E-01 0.35660024E+02</pdfrwt>
<pdfrwt beam="2">  1       -2 0.10621882E-01 0.39851619E+02</pdfrwt>
<totfact> 0.85529314E+03</totfact>
</mgrwt>
</event>
<event>
 7    1  0.5277388E-004  0.1837862E+03  0.7546771E-02  0.1271393E+00
          2   -1    0    0  503    0  0.00000000000E+00  0.00000000000E+00  0.36845984234E+04  0.36845984234E+04  0.00000000000E+00 0. -1.
         -2   -1    0    0    0  501 -0.00000000000E+00 -0.00000000000E+00 -0.53877586913E+03  0.53877586913E+03  0.00000000000E+00 0.  1.
         25    2    1    2    0    0  0.11959440754E+03  0.18076351163E+03  0.98256452119E+03  0.10139280135E+04  0.12505482350E+03 0.  0.
          4    1    3    3  502    0  0.12547847226E+03  0.19096451156E+03  0.82925064050E+03  0.86015727012E+03  0.12700000000E+01 0. -1.
         -4    1    3    3    0  502 -0.58840647232E+01 -0.10200999933E+02  0.15331388069E+03  0.15377074341E+03  0.12700000000E+01 0. -1.
          3    1    1    2  503    0 -0.58739398407E+02 -0.77979958981E+01  0.26699452828E+04  0.26706027295E+04  0.00000000000E+00 0. -1.
         -1    1    1    2    0  501 -0.60855009130E+02 -0.17296551573E+03 -0.50668724974E+03  0.53884354948E+03  0.00000000000E+00 0.  1.
<mgrwt>
<rscale>  0 0.10435615E+03</rscale>
<asrwt>0</asrwt>
<pdfrwt beam="1">  1        2 0.56686128E+00 0.59254752E+02</pdfrwt>
<pdfrwt beam="2">  1       -2 0.82888597E-01 0.18378620E+03</pdfrwt>
<totfact> 0.13792327E+00</totfact>
</mgrwt>
</event>
<event>
 7    1  0.5277388E-004  0.3903076E+02  0.7546771E-02  0.1564239E+00
          2   -1    0    0  503    0  0.00000000000E+00  0.00000000000E+00  0.28694970472E+03  0.28694970472E+03  0.00000000000E+00 0. -1.
          1   -1    0    0  502    0 -0.00000000000E+00 -0.00000000000E+00 -0.18102778779E+03  0.18102778779E+03  0.00000000000E+00 0. -1.
         25    2    1    2    0    0  0.26565932854E+01 -0.56343337643E+02  0.13896656189E+03  0.19523744476E+03  0.12499730128E+03 0.  0.
          4    1    3    3  501    0 -0.18540701708E+02  0.34107759754E+02  0.18276540540E+02  0.42927167731E+02  0.12700000000E+01 0. -1.
         -4    1    3    3    0  501  0.21197294994E+02 -0.90451097397E+02  0.12069002135E+03  0.15231027703E+03  0.12700000000E+01 0. -1.
          2    1    1    2  502    0 -0.19616992484E+02  0.33551052422E+02 -0.14867485286E+03  0.15367078898E+03  0.00000000000E+00 0. -1.
          1    1    1    2  503    0  0.16960399199E+02  0.22792285221E+02  0.11563020789E+03  0.11906925877E+03  0.00000000000E+00 0. -1.
<mgrwt>
<rscale>  0 0.33299764E+02</rscale>
<asrwt>0</asrwt>
<pdfrwt beam="1">  1        2 0.44146109E-01 0.28410269E+02</pdfrwt>
<pdfrwt beam="2">  1        1 0.27850429E-01 0.39030756E+02</pdfrwt>
<totfact> 0.24235423E+03</totfact>
</mgrwt>
</event>
<event>
 7    1  0.5277388E-004  0.8576318E+02  0.7546771E-02  0.1359422E+00
         -2   -1    0    0    0  501 -0.00000000000E+00  0.00000000000E+00  0.74210749894E+02  0.74210749894E+02  0.00000000000E+00 0.  1.
          2   -1    0    0  503    0  0.00000000000E+00 -0.00000000000E+00 -0.20452221735E+04  0.20452221735E+04  0.00000000000E+00 0. -1.
         25    2    1    2    0    0  0.43547240514E+02 -0.37139121902E+02 -0.61571417350E+02  0.15064043023E+03  0.12500329297E+03 0.  0.
          4    1    3    3  502    0 -0.27833713561E+02 -0.33459790702E+02 -0.65941429539E+02  0.79019986295E+02  0.12700000000E+01 0. -1.
         -4    1    3    3    0  502  0.71380954075E+02 -0.36793312005E+01  0.43700121895E+01  0.71620443934E+02  0.12700000000E+01 0. -1.
          1    1    1    2  503    0 -0.86695660979E+02 -0.80260289379E+00 -0.19093675971E+04  0.19113349792E+04  0.00000000000E+00 0. -1.
         -1    1    1    2    0  501  0.43148420465E+02  0.37941724796E+02 -0.72409153721E-01  0.57457513976E+02  0.00000000000E+00 0.  1.
<mgrwt>
<rscale>  0 0.70197831E+02</rscale>
<asrwt>0</asrwt>
<pdfrwt beam="2">  1        2 0.31464957E+00 0.85763185E+02</pdfrwt>
<pdfrwt beam="1">  1       -2 0.11417038E-01 0.57457468E+02</pdfrwt>
<totfact> 0.39047517E+02</totfact>
</mgrwt>
</event>
<event>
 7    1  0.5277388E-004  0.4329011E+02  0.7546771E-02  0.1581309E+00
          2   -1    0    0  503    0  0.00000000000E+00  0.00000000000E+00  0.29709676972E+03  0.29709676972E+03  0.00000000000E+00 0. -1.
          1   -1    0    0  502    0 -0.00000000000E+00 -0.00000000000E+00 -0.14936554938E+04  0.14936554938E+04  0.00000000000E+00 0. -1.
         25    2    1    2    0    0 -0.26649911471E+02 -0.10756922309E+02 -0.13592116148E+03  0.18688247606E+03  0.12499827424E+03 0.  0.
          4    1    3    3  501    0 -0.70594829357E+02 -0.47734309721E+01 -0.40224171219E+02  0.81400322023E+02  0.12700000000E+01 0.  1.
         -4    1    3    3    0  501  0.43944917886E+02 -0.59834913368E+01 -0.95696990257E+02  0.10548215404E+03  0.12700000000E+01 0.  1.
          2    1    1    2  502    0  0.43227786847E+02 -0.52285724899E+01 -0.13314089657E+04  0.13321207954E+04  0.00000000000E+00 0. -1.
          1    1    1    2  503    0 -0.16577875376E+02  0.15985494799E+02  0.27077140307E+03  0.27174899211E+03  0.00000000000E+00 0. -1.
<mgrwt>
<rscale>  0 0.31574569E+02</rscale>
<asrwt>0</asrwt>
<pdfrwt beam="1">  1        2 0.45707196E-01 0.23029590E+02</pdfrwt>
<pdfrwt beam="2">  1        1 0.22979315E+00 0.43290109E+02</pdfrwt>
<totfact> 0.12702342E+02</totfact>
</mgrwt>
</event>
<event>
 7    1  0.5277388E-004  0.1903439E+03  0.7546771E-02  0.1235084E+00
          1   -1    0    0  503    0  0.00000000000E+00  0.00000000000E+00  0.28132950902E+03  0.28132950902E+03  0.00000000000E+00 0. -1.
         -1   -1    0    0    0  501 -0.00000000000E+00 -0.00000000000E+00 -0.13867853818E+04  0.13867853818E+04  0.00000000000E+00 0.  1.
         25    2    1    2    0    0 -0.13583937395E+03  0.74294154107E+02 -0.45061217655E+03  0.49259412646E+03  0.12500273165E+03 0.  0.
          4    1    3    3  502    0 -0.57086620274E+02 -0.24769016272E+02 -0.22984733233E+03  0.23812558758E+03  0.12700000000E+01 0.  1.
         -4    1    3    3    0  502 -0.78752753673E+02  0.99063170379E+02 -0.22076484423E+03  0.25446853889E+03  0.12700000000E+01 0.  1.
          2    1    1    2  503    0 -0.12658664869E+02  0.81093532019E+02  0.24082340539E+03  0.25442546122E+03  0.00000000000E+00 0. -1.
         -2    1    1    2    0  501  0.14849803882E+03 -0.15538768613E+03 -0.89566710167E+03  0.92109530318E+03  0.00000000000E+00 0.  1.
<mgrwt>
<rscale>  0 0.12499036E+03</rscale>
<asrwt>0</asrwt>
<pdfrwt beam="1">  1        1 0.43281463E-01 0.82075592E+02</pdfrwt>
<pdfrwt beam="2">  1       -1 0.21335160E+00 0.19034393E+03</pdfrwt>
<totfact> 0.13499071E+01</totfact>
</mgrwt>
</event>
<event>
 7    1  0.5277388E-004  0.1523128E+03  0.7546771E-02  0.1345567E+00
          1   -1    0    0  502    0 -0.00000000000E+00  0.00000000000E+00  0.17803235765E+03  0.17803235765E+03  0.00000000000E+00 0. -1.
          2   -1    0    0  503    0  0.00000000000E+00 -0.00000000000E+00 -0.86984340447E+03  0.86984340447E+03  0.00000000000E+00 0. -1.
         25    2    1    2    0    0  0.54200861345E+02  0.15873480403E+03 -0.70313163536E+02  0.22069016994E+03  0.12500295500E+03 0.  0.
          4    1    3    3  501    0  0.35710401638E+02  0.17195871284E+03 -0.35642864542E+02  0.17921232770E+03  0.12700000000E+01 0.  1.
         -4    1    3    3    0  501  0.18490459707E+02 -0.13223908810E+02 -0.34670298995E+02  0.41477842238E+02  0.12700000000E+01 0.  1.
          2    1    1    2  502    0 -0.20063932433E+02 -0.14611244268E+03  0.49220754644E+02  0.15548019160E+03  0.00000000000E+00 0. -1.
          1    1    1    2  503    0 -0.34136928912E+02 -0.12622361343E+02 -0.67071863793E+03  0.67170540059E+03  0.00000000000E+00 0. -1.
<mgrwt>
<rscale>  0 0.74454997E+02</rscale>
<asrwt>0</asrwt>
<pdfrwt beam="2">  1        2 0.13382206E+00 0.36395795E+02</pdfrwt>
<pdfrwt beam="1">  1        1 0.27389594E-01 0.15231283E+03</pdfrwt>
<totfact> 0.79344637E+02</totfact>
</mgrwt>
</event>
<event>
 7    1  0.5277388E-004  0.8046069E+02  0.7546771E-02  0.1377232E+00
          2   -1    0    0  503    0  0.00000000000E+00  0.00000000000E+00  0.24863729775E+03  0.24863729775E+03  0.00000000000E+00 0. -1.
          1   -1    0    0  502    0 -0.00000000000E+00 -0.00000000000E+00 -0.10778497039E+04  0.10778497039E+04  0.00000000000E+00 0. -1.
         25    2    1    2    0    0  0.28256104448E+02  0.29147124721E+01 -0.48213479978E+03  0.49888544663E+03  0.12500328279E+03 0.  0.
          4    1    3    3  501    0  0.62963661611E+02 -0.35803481066E+02 -0.21935753899E+03  0.23101007500E+03  0.12700000000E+01 0. -1.
         -4    1    3    3    0  501 -0.34707557163E+02  0.38718193538E+02 -0.26277726079E+03  0.26787537162E+03  0.12700000000E+01 0. -1.
          2    1    1    2  502    0  0.52796219426E+02  0.18573843342E+01 -0.57924360161E+03  0.58164769463E+03  0.00000000000E+00 0. -1.
          1    1    1    2  503    0 -0.81052323874E+02 -0.47720968063E+01  0.23216599522E+03  0.24595386041E+03  0.00000000000E+00 0. -1.
<mgrwt>
<rscale>  0 0.65196996E+02</rscale>
<asrwt>0</asrwt>
<pdfrwt beam="1">  1        2 0.38251892E-01 0.80460693E+02</pdfrwt>
<pdfrwt beam="2">  1        1 0.16582303E+00 0.52828881E+02</pdfrwt>
<totfact> 0.28313779E+02</totfact>
</mgrwt>
</event>
<event>
 7    1  0.5277388E-004  0.1672554E+03  0.7546771E-02  0.1306248E+00
         -2   -1    0    0    0  501 -0.00000000000E+00  0.00000000000E+00  0.32052932542E+03  0.32052932542E+03  0.00000000000E+00 0.  1.
          2   -1    0    0  503    0  0.00000000000E+00 -0.00000000000E+00 -0.30514948767E+03  0.30514948767E+03  0.00000000000E+00 0. -1.
         25    2    1    2    0    0  0.13071670104E+03 -0.34606361972E+02  0.17870004230E+02  0.18500805992E+03  0.12499675582E+03 0.  0.
          4    1    3    3  502    0  0.14743169207E+03 -0.51283272247E+02  0.29165694563E+02  0.15880279745E+03  0.12700000000E+01 0.  1.
         -4    1    3    3    0  502 -0.16714991024E+02  0.16676910275E+02 -0.11295690332E+02  0.26205262474E+02  0.12700000000E+01 0.  1.
          1    1    1    2  503    0  0.43798246865E+02 -0.16902440466E+02 -0.18026879513E+03  0.18628155416E+03  0.00000000000E+00 0. -1.
         -1    1    1    2    0  501 -0.17451494791E+03  0.51508802439E+02  0.17777862864E+03  0.25438919901E+03  0.00000000000E+00 0.  1.
<mgrwt>
<rscale>  0 0.88611879E+02</rscale>
<asrwt>0</asrwt>
<pdfrwt beam="2">  1        2 0.46946075E-01 0.46946554E+02</pdfrwt>
<pdfrwt beam="1">  1       -2 0.49312204E-01 0.16725541E+03</pdfrwt>
<totfact> 0.42270007E+02</totfact>
</mgrwt>
</event>
<event>
 7    1  0.5277388E-004  0.7105984E+02  0.7546771E-02  0.1481190E+00
         -1   -1    0    0    0  501 -0.00000000000E+00  0.00000000000E+00  0.11637315824E+02  0.11637315824E+02  0.00000000000E+00 0.  1.
          1   -1    0    0  503    0  0.00000000000E+00 -0.00000000000E+00 -0.33496938894E+04  0.33496938894E+04  0.00000000000E+00 0. -1.
         25    2    1    2    0    0  0.75269113441E+02  0.57565144616E+02 -0.11621757186E+04  0.11727184021E+04  0.12504744831E+03 0.  0.
          4    1    3    3  502    0 -0.14150783878E+02  0.39154121451E+01 -0.64316909884E+03  0.64333791877E+03  0.12700000000E+01 0. -1.
         -4    1    3    3    0  502  0.89419897319E+02  0.53649732471E+02 -0.51900661979E+03  0.52938048332E+03  0.12700000000E+01 0. -1.
          2    1    1    2  503    0 -0.58101665397E+02 -0.36535273803E+02 -0.21500333082E+04  0.21511285076E+04  0.00000000000E+00 0. -1.
         -2    1    1    2    0  501 -0.17167448044E+02 -0.21029870813E+02 -0.25847546694E+02  0.37484295496E+02  0.00000000000E+00 0.  1.
<mgrwt>
<rscale>  0 0.43921337E+02</rscale>
<asrwt>0</asrwt>
<pdfrwt beam="2">  1        1 0.51533726E+00 0.71059838E+02</pdfrwt>
<pdfrwt beam="1">  1       -1 0.17903572E-02 0.27147315E+02</pdfrwt>
<totfact> 0.30014231E+02</totfact>
</mgrwt>
</event>
<event>
 7    1  0.5277388E-004  0.1173068E+03  0.7546771E-02  0.1324193E+00
          1   -1    0    0  502    0 -0.00000000000E+00  0.00000000000E+00  0.36951745242E+04  0.36951745242E+04  0.00000000000E+00 0. -1.
          2   -1    0    0  503    0  0.00000000000E+00 -0.00000000000E+00 -0.68847894822E+02  0.68847894822E+02  0.00000000000E+00 0. -1.
         25    2    1    2    0    0  0.37618053756E+02  0.52723477690E+02  0.20596352242E+03  0.24948052101E+03  0.12499869890E+03 0.  0.
          4    1    3    3  501    0  0.64928388639E+02 -0.59354005692E+01  0.15134261616E+03  0.16479418982E+03  0.12700000000E+01 0.  1.
         -4    1    3    3    0  501 -0.27310334883E+02  0.58658878260E+02  0.54620906259E+02  0.84686331192E+02  0.12700000000E+01 0.  1.
          2    1    1    2  502    0 -0.84613190176E+02 -0.84895977953E+02  0.34488015422E+04  0.34508837704E+04  0.00000000000E+00 0. -1.
          1    1    1    2  503    0  0.46995136420E+02  0.32172500263E+02 -0.28438435229E+02  0.63658127671E+02  0.00000000000E+00 0. -1.
<mgrwt>
<rscale>  0 0.81737025E+02</rscale>
<asrwt>0</asrwt>
<pdfrwt beam="2">  1        2 0.10591987E-01 0.56952723E+02</pdfrwt>
<pdfrwt beam="1">  1        1 0.56848823E+00 0.11730679E+03</pdfrwt>
<totfact> 0.19273619E+01</totfact>
</mgrwt>
</event>
<event>
 7    1  0.5277388E-004  0.7473644E+02  0.7546771E-02  0.1368098E+00
          2   -1    0    0  503    0  0.00000000000E+00  0.00000000000E+00  0.43890416681E+03  0.43890416681E+03  0.00000000000E+00 0. -1.
         -2   -1    0    0    0  501 -0.00000000000E+00 -0.00000000000E+00 -0.43631911550E+03  0.43631911550E+03  0.00000000000E+00 0.  1.
         25    2    1    2    0    0 -0.67423192424E+01 -0.91555784190E+02  0.63591505945E+02  0.16763591228E+03  0.12501999429E+03 0.  0.
          4    1    3    3  502    0  0.73254093383E+01 -0.74270063974E+02 -0.23086120571E+02  0.78129929525E+02  0.12700000000E+01 0.  1.
         -4    1    3    3    0  502 -0.14067728581E+02 -0.17285720216E+02  0.86677626516E+02  0.89505982757E+02  0.12700000000E+01 0.  1.
          1    1    1    2  503    0 -0.45621938280E+02  0.59640505502E+02  0.31642198651E+03  0.32520950892E+03  0.00000000000E+00 0. -1.
         -1    1    1    2    0  501  0.52364257522E+02  0.31915278687E+02 -0.37742844114E+03  0.38237786111E+03  0.00000000000E+00 0.  1.
<mgrwt>
<rscale>  0 0.67698728E+02</rscale>
<asrwt>0</asrwt>
<pdfrwt beam="1">  1        2 0.67523718E-01 0.74736442E+02</pdfrwt>
<pdfrwt beam="2">  1       -2 0.67126018E-01 0.61323735E+02</pdfrwt>
<totfact> 0.15642071E+02</totfact>
</mgrwt>
</event>
<event>
 7    1  0.5277388E-004  0.4196540E+02  0.7546771E-02  0.1547281E+00
          1   -1    0    0  502    0 -0.00000000000E+00  0.00000000000E+00  0.86772838252E+02  0.86772838252E+02  0.00000000000E+00 0. -1.
          2   -1    0    0  503    0  0.00000000000E+00 -0.00000000000E+00 -0.13511986853E+04  0.13511986853E+04  0.00000000000E+00 0. -1.
         25    2    1    2    0    0 -0.81805917067E+01  0.12611101175E+02 -0.22437186892E+03  0.25728271205E+03  0.12500278558E+03 0.  0.
          4    1    3    3  501    0  0.19803154555E+02 -0.47980508199E+02 -0.14238855911E+03  0.15155991806E+03  0.12700000000E+01 0. -1.
         -4    1    3    3    0  501 -0.27983746261E+02  0.60591609374E+02 -0.81983309818E+02  0.10572279399E+03  0.12700000000E+01 0. -1.
          2    1    1    2  502    0 -0.27227377452E+02  0.11197291797E+02  0.66806832835E+02  0.73005906199E+02  0.00000000000E+00 0. -1.
          1    1    1    2  503    0  0.35407969159E+02 -0.23808392971E+02 -0.11068608110E+04  0.11076829053E+04  0.00000000000E+00 0. -1.
<mgrwt>
<rscale>  0 0.35149088E+02</rscale>
<asrwt>0</asrwt>
<pdfrwt beam="2">  1        2 0.20787672E+00 0.41965400E+02</pdfrwt>
<pdfrwt beam="1">  1        1 0.13349667E-01 0.29439929E+02</pdfrwt>
<totfact> 0.98678343E+02</totfact>
</mgrwt>
</event>
<event>
 7    1  0.5277388E-004  0.3453492E+02  0.7546771E-02  0.1595543E+00
          2   -1    0    0  503    0  0.00000000000E+00  0.00000000000E+00  0.21284347401E+03  0.21284347401E+03  0.00000000000E+00 0. -1.
          1   -1    0    0  502    0 -0.00000000000E+00 -0.00000000000E+00 -0.51035963978E+03  0.51035963978E+03  0.00000000000E+00 0. -1.
         25    2    1    2    0    0  0.14801401170E+02  0.65703801878E+01 -0.24323849127E+03  0.27395817714E+03  0.12500347121E+03 0.  0.
          4    1    3    3  501    0  0.32615756072E+02  0.49658667320E+02 -0.20562188792E+03  0.21403678300E+03  0.12700000000E+01 0. -1.
         -4    1    3    3    0  501 -0.17814354902E+02 -0.43088287133E+02 -0.37616603346E+02  0.59921394142E+02  0.12700000000E+01 0. -1.
          2    1    1    2  502    0 -0.15413962778E+02 -0.33027765325E+02 -0.24954488276E+03  0.25219252971E+03  0.00000000000E+00 0. -1.
          1    1    1    2  503    0  0.61256160819E+00  0.26457385137E+02  0.19526720826E+03  0.19705240694E+03  0.00000000000E+00 0. -1.
<mgrwt>
<rscale>  0 0.30231583E+02</rscale>
<asrwt>0</asrwt>
<pdfrwt beam="1">  1        2 0.32745150E-01 0.26464475E+02</pdfrwt>
<pdfrwt beam="2">  1        1 0.78516867E-01 0.34534923E+02</pdfrwt>
<totfact> 0.94931778E+02</totfact>
</mgrwt>
</event>
<event>
 7    1  0.5277388E-004  0.5250795E+02  0.7546771E-02  0.1460564E+00
          2   -1    0    0  503    0  0.00000000000E+00  0.00000000000E+00  0.86419122801E+03  0.86419122801E+03  0.00000000000E+00 0. -1.
          1   -1    0    0  502    0 -0.00000000000E+00 -0.00000000000E+00 -0.75850964556E+03  0.75850964556E+03  0.00000000000E+00 0. -1.
         25    2    1    2    0    0  0.30821371162E+02 -0.37143403961E+02 -0.43027997160E+02  0.14072031641E+03  0.12498483721E+03 0.  0.
          4    1    3    3  501    0  0.35193218208E+02 -0.50637729395E+02 -0.80048464742E+02  0.10105499420E+03  0.12700000000E+01 0.  1.
         -4    1    3    3    0  501 -0.43718470461E+01  0.13494325434E+02  0.37020467582E+02  0.39665322203E+02  0.12700000000E+01 0.  1.
          2    1    1    2  502    0  0.21879120796E+02  0.36529453662E+02 -0.66510226296E+03  0.66646389032E+03  0.00000000000E+00 0. -1.
          1    1    1    2  503    0 -0.52700491957E+02  0.61395029911E+00  0.81381184257E+03  0.81551666684E+03  0.00000000000E+00 0. -1.
<mgrwt>
<rscale>  0 0.47284391E+02</rscale>
<asrwt>0</asrwt>
<pdfrwt beam="1">  1        2 0.13295250E+00 0.52507953E+02</pdfrwt>
<pdfrwt beam="2">  1        1 0.11669379E+00 0.42580476E+02</pdfrwt>
<totfact> 0.12842399E+02</totfact>
</mgrwt>
</event>
<event>
 7    1  0.5277388E-004  0.2020601E+03  0.7546771E-02  0.1338622E+00
         -2   -1    0    0    0  501 -0.00000000000E+00  0.00000000000E+00  0.28285987300E+03  0.28285987300E+03  0.00000000000E+00 0.  1.
          2   -1    0    0  503    0  0.00000000000E+00 -0.00000000000E+00 -0.18794232898E+04  0.18794232898E+04  0.00000000000E+00 0. -1.
         25    2    1    2    0    0 -0.90782482915E+02  0.15254937936E+03 -0.12281929577E+03  0.24944533559E+03  0.12500249472E+03 0.  0.
          4    1    3    3  502    0 -0.10065832401E+03  0.78493200812E+02 -0.11917247770E+03  0.17463382578E+03  0.12700000000E+01 0. -1.
         -4    1    3    3    0  502  0.98758410935E+01  0.74056178545E+02 -0.36468180752E+01  0.74811509810E+02  0.12700000000E+01 0. -1.
          1    1    1    2  503    0  0.11456225860E+03 -0.16937547349E+03 -0.16861198014E+04  0.16984735932E+04  0.00000000000E+00 0. -1.
         -1    1    1    2    0  501 -0.23779775688E+02  0.16826094135E+02  0.21237568042E+03  0.21436423398E+03  0.00000000000E+00 0.  1.
<mgrwt>
<rscale>  0 0.76721212E+02</rscale>
<asrwt>0</asrwt>
<pdfrwt beam="2">  1        2 0.28914205E+00 0.20206013E+03</pdfrwt>
<pdfrwt beam="1">  1       -2 0.43516903E-01 0.29130657E+02</pdfrwt>
<totfact> 0.44467654E+01</totfact>
</mgrwt>
</event>
<event>
 7    1  0.5277388E-004  0.1334911E+03  0.7546771E-02  0.1359125E+00
          2   -1    0    0  503    0  0.00000000000E+00  0.00000000000E+00  0.19215471326E+04  0.19215471326E+04  0.00000000000E+00 0. -1.
          1   -1    0    0  502    0 -0.00000000000E+00 -0.00000000000E+00 -0.17584308037E+03  0.17584308037E+03  0.00000000000E+00 0. -1.
         25    2    1    2    0    0  0.10312838408E+03 -0.33321321581E+02  0.12932714014E+04  0.13038105837E+04  0.12500138542E+03 0.  0.
          4    1    3    3  501    0 -0.25008073352E+02  0.34076469551E+01  0.38270756333E+03  0.38354101179E+03  0.12700000000E+01 0. -1.
         -4    1    3    3    0  501  0.12813645743E+03 -0.36728968536E+02  0.91056383810E+03  0.92026957193E+03  0.12700000000E+01 0. -1.
          2    1    1    2  502    0 -0.11538785764E+03  0.68238118004E+02 -0.14357189420E+03  0.19642730779E+03  0.00000000000E+00 0. -1.
          1    1    1    2  503    0  0.12259473562E+02 -0.34916796423E+02  0.59600454501E+03  0.59715232147E+03  0.00000000000E+00 0. -1.
<mgrwt>
<rscale>  0 0.70285350E+02</rscale>
<asrwt>0</asrwt>
<pdfrwt beam="1">  1        2 0.29562262E+00 0.37006450E+02</pdfrwt>
<pdfrwt beam="2">  1        1 0.27052783E-01 0.13349106E+03</pdfrwt>
<totfact> 0.23457203E+02</totfact>
</mgrwt>
</event>
<event>
 7    1  0.5277388E-004  0.6630246E+02  0.7546771E-02  0.1401803E+00
          2   -1    0    0  503    0  0.00000000000E+00  0.00000000000E+00  0.27617968236E+04  0.27617968236E+04  0.00000000000E+00 0. -1.
         -2   -1    0    0    0  501 -0.00000000000E+00 -0.00000000000E+00 -0.12538590864E+02  0.12538590864E+02  0.00000000000E+00 0.  1.
         25    2    1    2    0    0  0.87810276049E+02 -0.48278785725E+02  0.14568330807E+04  0.14656152354E+04  0.12499562953E+03 0.  0.
          4    1    3    3  502    0  0.85657134922E+02 -0.30638515546E+02  0.47580037703E+03  0.48442076243E+03  0.12700000000E+01 0. -1.
         -4    1    3    3    0  502  0.21531411270E+01 -0.17640270179E+02  0.98103270370E+03  0.98119447296E+03  0.12700000000E+01 0. -1.
          1    1    1    2  503    0 -0.23742097311E+02  0.46954071880E+02  0.11640608495E+04  0.11652493439E+04  0.00000000000E+00 0. -1.
         -1    1    1    2    0  501 -0.64068178738E+02  0.13247138444E+01  0.12836430254E+03  0.14347083523E+03  0.00000000000E+00 0.  1.
<mgrwt>
<rscale>  0 0.59063741E+02</rscale>
<asrwt>0</asrwt>
<pdfrwt beam="1">  1        2 0.42489134E+00 0.52615321E+02</pdfrwt>
<pdfrwt beam="2">  1       -2 0.19290162E-02 0.66302464E+02</pdfrwt>
<totfact> 0.24904565E+03</totfact>
</mgrwt>
</event>
<event>
 7    1  0.5277388E-004  0.6861925E+02  0.7546771E-02  0.1502538E+00
          1   -1    0    0  502    0 -0.00000000000E+00  0.00000000000E+00  0.12260498209E+03  0.12260498209E+03  0.00000000000E+00 0. -1.
          2   -1    0    0  503    0  0.00000000000E+00 -0.00000000000E+00 -0.11107467340E+04  0.11107467340E+04  0.00000000000E+00 0. -1.
         25    2    1    2    0    0  0.64496840116E+02 -0.13893210376E+01  0.57171169423E+01  0.14078281515E+03  0.12500137207E+03 0.  0.
          4    1    3    3  501    0  0.89181521387E+02  0.33442954053E+02 -0.88292050567E+01  0.95662650469E+02  0.12700000000E+01 0.  1.
         -4    1    3    3    0  501 -0.24684681271E+02 -0.34832275091E+02  0.14546321999E+02  0.45120164685E+02  0.12700000000E+01 0.  1.
          2    1    1    2  502    0 -0.70137697221E+00 -0.24226879966E+02  0.45173483648E+02  0.51264776089E+02  0.00000000000E+00 0. -1.
          1    1    1    2  503    0 -0.63795463144E+02  0.25616201004E+02 -0.10390323525E+04  0.10413041248E+04  0.00000000000E+00 0. -1.
<mgrwt>
<rscale>  0 0.40781451E+02</rscale>
<asrwt>0</asrwt>
<pdfrwt beam="2">  1        2 0.17088411E+00 0.68619246E+02</pdfrwt>
<pdfrwt beam="1">  1        1 0.18862305E-01 0.24237030E+02</pdfrwt>
<totfact> 0.82644402E+02</totfact>
</mgrwt>
</event>
<event>
 7    1  0.5277388E-004  0.2848728E+03  0.7546771E-02  0.1195147E+00
          1   -1    0    0  502    0 -0.00000000000E+00  0.00000000000E+00  0.36162316374E+03  0.36162316374E+03  0.00000000000E+00 0. -1.
          2   -1    0    0  503    0  0.00000000000E+00 -0.00000000000E+00 -0.12406280032E+04  0.12406280032E+04  0.00000000000E+00 0. -1.
         25    2    1    2    0    0  0.30319923448E+03  0.15813520650E+03 -0.38625799901E+03  0.53080742870E+03  0.12499906097E+03 0.  0.
          4    1    3    3  501    0  0.34572415505E+02  0.75251267376E+02 -0.81786497089E+02  0.11639866478E+03  0.12700000000E+01 0.  1.
         -4    1    3    3    0  501  0.26862681897E+03  0.82883939129E+02 -0.30447150192E+03  0.41440876393E+03  0.12700000000E+01 0.  1.
          2    1    1    2  502    0 -0.22012912554E+03 -0.16841667121E+03  0.21995844169E+03  0.35383996824E+03  0.00000000000E+00 0. -1.
          1    1    1    2  503    0 -0.83070108936E+02  0.10281464701E+02 -0.71270528215E+03  0.71760377000E+03  0.00000000000E+00 0. -1.
<mgrwt>
<rscale>  0 0.15441820E+03</rscale>
<asrwt>0</asrwt>
<pdfrwt beam="2">  1        2 0.19086584E+00 0.83703952E+02</pdfrwt>
<pdfrwt beam="1">  1        1 0.55634334E-01 0.28487283E+03</pdfrwt>
<totfact> 0.19287036E+02</totfact>
</mgrwt>
</event>
<event>
 7    1  0.5277388E-004  0.6207704E+02  0.7546771E-02  0.1416977E+00
          2   -1    0    0  503    0  0.00000000000E+00  0.00000000000E+00  0.45478225326E+03  0.45478225326E+03  0.00000000000E+00 0. -1.
          1   -1    0    0  502    0 -0.00000000000E+00 -0.00000000000E+00 -0.12098609701E+04  0.12098609701E+04  0.00000000000E+00 0. -1.
         25    2    1    2    0    0 -0.31449011699E+02  0.74594113830E+01 -0.27167175750E+03  0.30078630010E+03  0.12498868488E+03 0.  0.
          4    1    3    3  501    0 -0.38870896471E+02  0.60658354170E+02 -0.18814490948E+03  0.20147084748E+03  0.12700000000E+01 0.  1.
         -4    1    3    3    0  501  0.74218847716E+01 -0.53198942787E+02 -0.83526848020E+02  0.99315452611E+02  0.12700000000E+01 0.  1.
          2    1    1    2  502    0  0.53560862175E+02  0.37292176132E+02 -0.92105855244E+03  0.92336792741E+03  0.00000000000E+00 0. -1.
          1    1    1    2  503    0 -0.22111850476E+02 -0.44751587515E+02  0.43765159310E+03  0.44048899585E+03  0.00000000000E+00 0. -1.
<mgrwt>
<rscale>  0 0.55665581E+02</rscale>
<asrwt>0</asrwt>
<pdfrwt beam="1">  1        2 0.69966502E-01 0.49916315E+02</pdfrwt>
<pdfrwt beam="2">  1        1 0.18613245E+00 0.62077037E+02</pdfrwt>
<totfact> 0.12183604E+02</totfact>
</mgrwt>
</event>
<event>
 7    1  0.5277388E-004  0.4657671E+02  0.7546771E-02  0.1501243E+00
          2   -1    0    0  503    0  0.00000000000E+00  0.00000000000E+00  0.21572317770E+03  0.21572317770E+03  0.00000000000E+00 0. -1.
          1   -1    0    0  502    0 -0.00000000000E+00 -0.00000000000E+00 -0.18073909228E+04  0.18073909228E+04  0.00000000000E+00 0. -1.
         25    2    1    2    0    0 -0.22118783804E+02  0.11212743677E+02  0.99076065198E+01  0.12782086283E+03  0.12500018436E+03 0.  0.
          4    1    3    3  501    0 -0.49836794001E+02 -0.85604942208E+01 -0.41988783689E+02  0.65739325775E+02  0.12700000000E+01 0. -1.
         -4    1    3    3    0  501  0.27718010198E+02  0.19773237898E+02  0.51896390209E+02  0.62081537054E+02  0.12700000000E+01 0. -1.
          2    1    1    2  502    0 -0.23784739438E+02 -0.27057878982E+02 -0.17442288048E+04  0.17446008042E+04  0.00000000000E+00 0. -1.
          1    1    1    2  503    0  0.45903523242E+02  0.15845135304E+02  0.14265345323E+03  0.15069243338E+03  0.00000000000E+00 0. -1.
<mgrwt>
<rscale>  0 0.40962827E+02</rscale>
<asrwt>0</asrwt>
<pdfrwt beam="1">  1        2 0.33188182E-01 0.46576712E+02</pdfrwt>
<pdfrwt beam="2">  1        1 0.27806014E+00 0.36025583E+02</pdfrwt>
<totfact> 0.11739817E+02</totfact>
</mgrwt>
</event>
<event>
 7    1  0.5277388E-004  0.9029927E+02  0.7546771E-02  0.1331951E+00
         -2   -1    0    0    0  501 -0.00000000000E+00  0.00000000000E+00  0.10759521174E+03  0.10759521174E+03  0.00000000000E+00 0.  1.
          2   -1    0    0  503    0  0.00000000000E+00 -0.00000000000E+00 -0.46504756049E+03  0.46504756049E+03  0.00000000000E+00 0. -1.
         25    2    1    2    0    0  0.82124613620E+00 -0.26824293871E+02 -0.12427926670E+02  0.12844968188E+03  0.12499860090E+03 0.  0.
          4    1    3    3  502    0 -0.52600112659E+01 -0.29433482213E+02 -0.67043708918E+02  0.73419816121E+02  0.12700000000E+01 0. -1.
         -4    1    3    3    0  502  0.60812574021E+01  0.26091883425E+01  0.54615782248E+02  0.55029865764E+02  0.12700000000E+01 0. -1.
          1    1    1    2  503    0  0.19799529527E+02 -0.88101857481E+02 -0.30911540078E+03  0.32203460941E+03  0.00000000000E+00 0. -1.
         -3    1    1    2    0  501 -0.20620775663E+02  0.11492615135E+03 -0.35909021298E+02  0.12215848093E+03  0.00000000000E+00 0.  1.
<mgrwt>
<rscale>  0 0.78987120E+02</rscale>
<asrwt>0</asrwt>
<pdfrwt beam="2">  1        2 0.71545779E-01 0.90299273E+02</pdfrwt>
<pdfrwt beam="1">  1       -2 0.16553109E-01 0.69092085E+02</pdfrwt>
<totfact> 0.18734115E+03</totfact>
</mgrwt>
</event>
<event>
 7    1  0.5277388E-004  0.5639083E+02  0.7546771E-02  0.1439874E+00
          1   -1    0    0  502    0 -0.00000000000E+00  0.00000000000E+00  0.17843527570E+04  0.17843527570E+04  0.00000000000E+00 0. -1.
          2   -1    0    0  503    0  0.00000000000E+00 -0.00000000000E+00 -0.74764473198E+03  0.74764473198E+03  0.00000000000E+00 0. -1.
         25    2    1    2    0    0 -0.25159258275E+02 -0.18618621228E+02 -0.15865965655E+03  0.20438355031E+03  0.12498042921E+03 0.  0.
          4    1    3    3  501    0 -0.41707102799E+02 -0.55135419280E+02 -0.14725750627E+03  0.16268307514E+03  0.12700000000E+01 0. -1.
         -4    1    3    3    0  501  0.16547844524E+02  0.36516798051E+02 -0.11402150282E+02  0.41700475169E+02  0.12700000000E+01 0. -1.
          2    1    1    2  502    0  0.53630284952E+02 -0.17734669665E+02  0.17600954065E+04  0.17610015804E+04  0.00000000000E+00 0. -1.
          1    1    1    2  503    0 -0.28471026677E+02  0.36353290893E+02 -0.56472772502E+03  0.56661235825E+03  0.00000000000E+00 0. -1.
<mgrwt>
<rscale>  0 0.51028080E+02</rscale>
<asrwt>0</asrwt>
<pdfrwt beam="2">  1        2 0.11502227E+00 0.46175330E+02</pdfrwt>
<pdfrwt beam="1">  1        1 0.27451581E+00 0.56390826E+02</pdfrwt>
<totfact> 0.31211092E+01</totfact>
</mgrwt>
</event>
<event>
 7    1  0.5277388E-004  0.9252436E+02  0.7546771E-02  0.1438660E+00
          2   -1    0    0  503    0  0.00000000000E+00  0.00000000000E+00  0.72650294226E+03  0.72650294226E+03  0.00000000000E+00 0. -1.
          1   -1    0    0  502    0 -0.00000000000E+00 -0.00000000000E+00 -0.27158508764E+03  0.27158508764E+03  0.00000000000E+00 0. -1.
         25    2    1    2    0    0 -0.41918140961E+02  0.82682774803E+02  0.21711056056E+03  0.26712623406E+03  0.12500343046E+03 0.  0.
          4    1    3    3  501    0  0.37774640525E+02 -0.27948427901E+01  0.65819863577E+02  0.75951313052E+02  0.12700000000E+01 0. -1.
         -4    1    3    3    0  501 -0.79692781486E+02  0.85477617594E+02  0.15129069698E+03  0.19117492101E+03  0.12700000000E+01 0. -1.
          2    1    1    2  502    0  0.26852494268E+02  0.92442341878E+01 -0.24125802932E+03  0.24292375146E+03  0.00000000000E+00 0. -1.
          1    1    1    2  503    0  0.15065646693E+02 -0.91927008991E+02  0.47906532338E+03  0.48803804437E+03  0.00000000000E+00 0. -1.
<mgrwt>
<rscale>  0 0.51260259E+02</rscale>
<asrwt>0</asrwt>
<pdfrwt beam="1">  1        2 0.11176968E+00 0.92524359E+02</pdfrwt>
<pdfrwt beam="2">  1        1 0.41782321E-01 0.28399160E+02</pdfrwt>
<totfact> 0.55430873E+02</totfact>
</mgrwt>
</event>
<event>
 7    1  0.5277388E-004  0.5809660E+02  0.7546771E-02  0.1471374E+00
          1   -1    0    0  503    0  0.00000000000E+00  0.00000000000E+00  0.11620672895E+04  0.11620672895E+04  0.00000000000E+00 0. -1.
         -1   -1    0    0    0  501 -0.00000000000E+00 -0.00000000000E+00 -0.83837203070E+03  0.83837203070E+03  0.00000000000E+00 0.  1.
         25    2    1    2    0    0 -0.65657540898E+02  0.48123084812E+02  0.12816615667E+01  0.14917755668E+03  0.12500222715E+03 0.  0.
          4    1    3    3  502    0 -0.96412145929E+02  0.15084266061E+02  0.21126407927E+02  0.99853767967E+02  0.12700000000E+01 0.  1.
         -4    1    3    3    0  502  0.30754605031E+02  0.33038818751E+02 -0.19844746361E+02  0.49323788715E+02  0.12700000000E+01 0.  1.
          2    1    1    2  503    0  0.35578230835E+02  0.12865658140E+01  0.10854511059E+04  0.10860347919E+04  0.00000000000E+00 0. -1.
         -2    1    1    2    0  501  0.30079310062E+02 -0.49409650626E+02 -0.76303750870E+03  0.76522697166E+03  0.00000000000E+00 0.  1.
<mgrwt>
<rscale>  0 0.45478844E+02</rscale>
<asrwt>0</asrwt>
<pdfrwt beam="1">  1        1 0.17877958E+00 0.35601485E+02</pdfrwt>
<pdfrwt beam="2">  1       -1 0.12898031E+00 0.58096599E+02</pdfrwt>
<totfact> 0.87591318E+00</totfact>
</mgrwt>
</event>
<event>
 7    1  0.5277388E-004  0.9925197E+02  0.7546771E-02  0.1388115E+00
          2   -1    0    0  503    0  0.00000000000E+00  0.00000000000E+00  0.34123173101E+03  0.34123173101E+03  0.00000000000E+00 0. -1.
          1   -1    0    0  502    0 -0.00000000000E+00 -0.00000000000E+00 -0.17489778034E+04  0.17489778034E+04  0.00000000000E+00 0. -1.
         25    2    1    2    0    0 -0.55150132090E+02 -0.28226588282E+02 -0.10060618640E+04  0.10156891353E+04  0.12500267182E+03 0.  0.
          4    1    3    3  501    0 -0.87869373317E+02 -0.46546286874E+02 -0.63564178061E+03  0.64337366262E+03  0.12700000000E+01 0. -1.
         -4    1    3    3    0  501  0.32719241227E+02  0.18319698592E+02 -0.37042008337E+03  0.37231547264E+03  0.12700000000E+01 0. -1.
          2    1    1    2  502    0 -0.26108874689E+02 -0.29244350068E+02 -0.73020364084E+03  0.73125526491E+03  0.00000000000E+00 0. -1.
          1    1    1    2  503    0  0.81259006779E+02  0.57470938350E+02  0.32851943241E+03  0.34326513428E+03  0.00000000000E+00 0. -1.
<mgrwt>
<rscale>  0 0.62377985E+02</rscale>
<asrwt>0</asrwt>
<pdfrwt beam="1">  1        2 0.52497191E-01 0.99251967E+02</pdfrwt>
<pdfrwt beam="2">  1        1 0.26907350E+00 0.39203384E+02</pdfrwt>
<totfact> 0.79067553E+01</totfact>
</mgrwt>
</event>
<event>
 7    1  0.8878833E-004  0.5733784E+02  0.7546771E-02  0.1503376E+00
          1   -1    0    0  502    0 -0.00000000000E+00  0.00000000000E+00  0.10122327157E+04  0.10122327157E+04  0.00000000000E+00 0. -1.
          2   -1    0    0  503    0  0.00000000000E+00 -0.00000000000E+00 -0.17471249090E+04  0.17471249090E+04  0.00000000000E+00 0. -1.
         25    2    1    2    0    0  0.54257410797E+01  0.30068900814E+02  0.84966978104E+02  0.15420399104E+03  0.12500362403E+03 0.  0.
          4    1    3    3  501    0  0.45760014263E+02  0.54032204412E+02  0.80259065306E+02  0.10703545433E+03  0.12700000000E+01 0.  1.
         -4    1    3    3    0  501 -0.40334273183E+02 -0.23963303597E+02  0.47079127974E+01  0.47168536711E+02  0.12700000000E+01 0.  1.
          2    1    1    2  502    0  0.18401728259E+02  0.22206366776E+02  0.89193227997E+03  0.89239841908E+03  0.00000000000E+00 0. -1.
          3    1    1    2  503    0 -0.23827469339E+02 -0.52275267590E+02 -0.17117914514E+04  0.17127552146E+04  0.00000000000E+00 0. -1.
<mgrwt>
<rscale>  0 0.40664776E+02</rscale>
<asrwt>0</asrwt>
<pdfrwt beam="2">  1        2 0.26878845E+00 0.57337840E+02</pdfrwt>
<pdfrwt beam="1">  1        1 0.15572811E+00 0.28840013E+02</pdfrwt>
<totfact> 0.29194419E+01</totfact>
</mgrwt>
</event>
<event>
 7    1  0.5277388E-004  0.4269362E+02  0.7546771E-02  0.1504481E+00
          1   -1    0    0  503    0  0.00000000000E+00  0.00000000000E+00  0.91713020434E+03  0.91713020434E+03  0.00000000000E+00 0. -1.
         -1   -1    0    0    0  501 -0.00000000000E+00 -0.00000000000E+00 -0.21069945498E+03  0.21069945498E+03  0.00000000000E+00 0.  1.
         25    2    1    2    0    0  0.12669071966E+02 -0.95332123007E+01  0.11037426990E+03  0.16750824892E+03  0.12500058591E+03 0.  0.
          4    1    3    3  502    0  0.65582345962E+02 -0.20344215065E+02  0.80361623447E+02  0.10570967132E+03  0.12700000000E+01 0.  1.
         -4    1    3    3    0  502 -0.52913273996E+02  0.10811002764E+02  0.30012646456E+02  0.61798577597E+02  0.12700000000E+01 0.  1.
          2    1    1    2  503    0  0.62709963684E+01  0.42984141840E+02  0.77554604222E+03  0.77676162717E+03  0.00000000000E+00 0. -1.
         -2    1    1    2    0  501 -0.18940068334E+02 -0.33450929539E+02 -0.17948956277E+03  0.18355978322E+03  0.00000000000E+00 0.  1.
<mgrwt>
<rscale>  0 0.40511412E+02</rscale>
<asrwt>0</asrwt>
<pdfrwt beam="1">  1        1 0.14109695E+00 0.42693619E+02</pdfrwt>
<pdfrwt beam="2">  1       -1 0.32415301E-01 0.38440745E+02</pdfrwt>
<totfact> 0.18085551E+02</totfact>
</mgrwt>
</event>
<event>
 7    1  0.5277388E-004  0.1513210E+03  0.7546771E-02  0.1300036E+00
          1   -1    0    0  502    0 -0.00000000000E+00  0.00000000000E+00  0.10047344687E+03  0.10047344687E+03  0.00000000000E+00 0. -1.
          2   -1    0    0  503    0  0.00000000000E+00 -0.00000000000E+00 -0.12825775747E+04  0.12825775747E+04  0.00000000000E+00 0. -1.
         25    2    1    2    0    0  0.44984161924E+02  0.10130177213E+03 -0.44522367855E+02  0.17289451392E+03  0.12499859137E+03 0.  0.
          4    1    3    3  501    0  0.13797377913E+02  0.47389595706E+02  0.42994935792E+02  0.65469984132E+02  0.12700000000E+01 0.  1.
         -4    1    3    3    0  501  0.31186784011E+02  0.53912176421E+02 -0.87517303647E+02  0.10742452979E+03  0.12700000000E+01 0.  1.
          2    1    1    2  502    0  0.51094852641E+02  0.20173181214E+02  0.67905604635E+01  0.55351178109E+02  0.00000000000E+00 0. -1.
          1    1    1    2  503    0 -0.96079014565E+02 -0.12147495334E+03 -0.11443723205E+04  0.11548053295E+04  0.00000000000E+00 0. -1.
<mgrwt>
<rscale>  0 0.91173047E+02</rscale>
<asrwt>0</asrwt>
<pdfrwt beam="2">  1        2 0.19731962E+00 0.15132098E+03</pdfrwt>
<pdfrwt beam="1">  1        1 0.15457454E-01 0.54933061E+02</pdfrwt>
<totfact> 0.84704617E+02</totfact>
</mgrwt>
</event>
<event>
 7    1  0.5277388E-004  0.7998502E+02  0.7546771E-02  0.1507016E+00
          1   -1    0    0  502    0 -0.00000000000E+00  0.00000000000E+00  0.41000671803E+03  0.41000671803E+03  0.00000000000E+00 0. -1.
          2   -1    0    0  503    0  0.00000000000E+00 -0.00000000000E+00 -0.63085129045E+03  0.63085129045E+03  0.00000000000E+00 0. -1.
         25    2    1    2    0    0 -0.27115452814E+02 -0.95632389214E+02 -0.81637619121E+02  0.17936832622E+03  0.12500997540E+03 0.  0.
          4    1    3    3  501    0 -0.60717561268E+01 -0.12224165238E+03 -0.47698656967E+02  0.13136461690E+03  0.12700000000E+01 0.  1.
         -4    1    3    3    0  501 -0.21043696687E+02  0.26609263162E+02 -0.33938962154E+02  0.48003709319E+02  0.12700000000E+01 0.  1.
          2    1    1    2  502    0  0.23377266219E+02  0.75814845815E+02  0.35657660269E+03  0.36529612783E+03  0.00000000000E+00 0. -1.
          1    1    1    2  503    0  0.37381865947E+01  0.19817543399E+02 -0.49578355599E+03  0.49619355443E+03  0.00000000000E+00 0. -1.
<mgrwt>
<rscale>  0 0.40162922E+02</rscale>
<asrwt>0</asrwt>
<pdfrwt beam="2">  1        2 0.97054044E-01 0.20167029E+02</pdfrwt>
<pdfrwt beam="1">  1        1 0.63077957E-01 0.79985024E+02</pdfrwt>
<totfact> 0.41298211E+02</totfact>
</mgrwt>
</event>
<event>
 7    1  0.5277388E-004  0.2037749E+03  0.7546771E-02  0.1178400E+00
          1   -1    0    0  503    0  0.00000000000E+00  0.00000000000E+00  0.13565412823E+04  0.13565412823E+04  0.00000000000E+00 0. -1.
         -1   -1    0    0    0  501 -0.00000000000E+00 -0.00000000000E+00 -0.25549426246E+03  0.25549426246E+03  0.00000000000E+00 0.  1.
         25    2    1    2    0    0  0.54798911115E+02 -0.20207670269E+03 -0.50780367343E+02  0.24907959147E+03  0.12499633095E+03 0.  0.
          4    1    3    3  502    0 -0.72293837432E+01  0.12707527440E+02 -0.17840655963E+02  0.23100804058E+02  0.12700000000E+01 0. -1.
         -4    1    3    3    0  502  0.62028294858E+02 -0.21478423013E+03 -0.32939711381E+02  0.22597878742E+03  0.12700000000E+01 0. -1.
          2    1    1    2  503    0 -0.16848081760E+03  0.11876329594E+03  0.11972575324E+04  0.12148728762E+04  0.00000000000E+00 0. -1.
         -2    1    1    2    0  501  0.11368190649E+03  0.83313406753E+02 -0.45430145280E+02  0.14808307705E+03  0.00000000000E+00 0.  1.
<mgrwt>
<rscale>  0 0.16947118E+03</rscale>
<asrwt>0</asrwt>
<pdfrwt beam="1">  1        1 0.20869865E+00 0.20377492E+03</pdfrwt>
<pdfrwt beam="2">  1       -1 0.39306811E-01 0.14094219E+03</pdfrwt>
<totfact> 0.58984254E+01</totfact>
</mgrwt>
</event>
<event>
 7    1  0.5277388E-004  0.9180781E+02  0.7546771E-02  0.1369659E+00
         -2   -1    0    0    0  501 -0.00000000000E+00  0.00000000000E+00  0.34548121661E+03  0.34548121661E+03  0.00000000000E+00 0.  1.
          2   -1    0    0  503    0  0.00000000000E+00 -0.00000000000E+00 -0.71996965747E+03  0.71996965747E+03  0.00000000000E+00 0. -1.
         25    2    1    2    0    0  0.84504054777E+02  0.10690319656E+03  0.93122150176E+02  0.20704089321E+03  0.12499987161E+03 0.  0.
          4    1    3    3  502    0  0.98377947663E+02  0.11555373757E+03  0.10689006817E+03  0.18562862502E+03  0.12700000000E+01 0.  1.
         -4    1    3    3    0  502 -0.13873892886E+02 -0.86505410127E+01 -0.13767917990E+02  0.21412268198E+02  0.12700000000E+01 0.  1.
          1    1    1    2  503    0 -0.67849212738E+02 -0.60524197879E+02 -0.65672069249E+03  0.66298473749E+03  0.00000000000E+00 0. -1.
         -1    1    1    2    0  501 -0.16654842039E+02 -0.46378998680E+02  0.18911010144E+03  0.19542524338E+03  0.00000000000E+00 0.  1.
<mgrwt>
<rscale>  0 0.67261981E+02</rscale>
<asrwt>0</asrwt>
<pdfrwt beam="2">  1        2 0.11076456E+00 0.91807809E+02</pdfrwt>
<pdfrwt beam="1">  1       -2 0.53150957E-01 0.49278751E+02</pdfrwt>
<totfact> 0.14441632E+02</totfact>
</mgrwt>
</event>
<event>
 7    1  0.5277388E-004  0.7351491E+02  0.7546771E-02  0.1361727E+00
          2   -1    0    0  503    0  0.00000000000E+00  0.00000000000E+00  0.11362710685E+04  0.11362710685E+04  0.00000000000E+00 0. -1.
          1   -1    0    0  502    0 -0.00000000000E+00 -0.00000000000E+00 -0.13192496017E+04  0.13192496017E+04  0.00000000000E+00 0. -1.
         25    2    1    2    0    0 -0.76390558383E+02  0.66837452821E+02  0.97598543336E+02  0.18829153002E+03  0.12500184841E+03 0.  0.
          4    1    3    3  501    0  0.23261082370E+02 -0.18521697221E+02  0.19742819146E+02  0.35714465260E+02  0.12700000000E+01 0.  1.
         -4    1    3    3    0  501 -0.99651640753E+02  0.85359150042E+02  0.77855724189E+02  0.15257706476E+03  0.12700000000E+01 0.  1.
          2    1    1    2  502    0  0.65496140222E+02  0.57213467405E+01 -0.12716978611E+04  0.12733962180E+04  0.00000000000E+00 0. -1.
          1    1    1    2  503    0  0.10894418161E+02 -0.72558799562E+02  0.99112078446E+03  0.99383292214E+03  0.00000000000E+00 0. -1.
<mgrwt>
<rscale>  0 0.69521784E+02</rscale>
<asrwt>0</asrwt>
<pdfrwt beam="1">  1        2 0.17481093E+00 0.73514906E+02</pdfrwt>
<pdfrwt beam="2">  1        1 0.20296148E+00 0.65745556E+02</pdfrwt>
<totfact> 0.34443548E+01</totfact>
</mgrwt>
</event>
<event>
 7    1  0.5277388E-004  0.6685486E+02  0.7546771E-02  0.1469363E+00
          2   -1    0    0  503    0  0.00000000000E+00  0.00000000000E+00  0.24065496683E+04  0.24065496683E+04  0.00000000000E+00 0. -1.
          1   -1    0    0  502    0 -0.00000000000E+00 -0.00000000000E+00 -0.15668489618E+03  0.15668489618E+03  0.00000000000E+00 0. -1.
         25    2    1    2    0    0  0.75883890558E+01 -0.56442079280E+02  0.29798381930E+02  0.14055646566E+03  0.12499953804E+03 0.  0.
          4    1    3    3  501    0  0.46136137082E+02 -0.76667799706E+02  0.32393809003E+01  0.89546642289E+02  0.12700000000E+01 0. -1.
         -4    1    3    3    0  501 -0.38547748026E+02  0.20225720426E+02  0.26559001029E+02  0.51009823370E+02  0.12700000000E+01 0. -1.
          2    1    1    2  502    0 -0.30718968236E+02 -0.64371550854E+01 -0.98379268555E+02  0.10326457503E+03  0.00000000000E+00 0. -1.
          1    1    1    2  503    0  0.23130579180E+02  0.62879234366E+02  0.23184456587E+04  0.23194135238E+04  0.00000000000E+00 0. -1.
<mgrwt>
<rscale>  0 0.45807404E+02</rscale>
<asrwt>0</asrwt>
<pdfrwt beam="1">  1        2 0.37023838E+00 0.66854859E+02</pdfrwt>
<pdfrwt beam="2">  1        1 0.24105370E-01 0.31386175E+02</pdfrwt>
<totfact> 0.13832445E+02</totfact>
</mgrwt>
</event>
<event>
 7    1  0.5277388E-004  0.4011877E+02  0.7546771E-02  0.1542756E+00
          2   -1    0    0  503    0  0.00000000000E+00  0.00000000000E+00  0.11966857469E+04  0.11966857469E+04  0.00000000000E+00 0. -1.
          1   -1    0    0  502    0 -0.00000000000E+00 -0.00000000000E+00 -0.31985696637E+03  0.31985696637E+03  0.00000000000E+00 0. -1.
         25    2    1    2    0    0  0.12886163509E+02  0.27832843715E+01 -0.75198896736E+02  0.14646831032E+03  0.12499716787E+03 0.  0.
          4    1    3    3  501    0  0.47334975352E+02 -0.24068601271E+02  0.68020227659E+01  0.53551637440E+02  0.12700000000E+01 0.  1.
         -4    1    3    3    0  501 -0.34448811843E+02  0.26851885643E+02 -0.82000919502E+02  0.92916672881E+02  0.12700000000E+01 0.  1.
          2    1    1    2  502    0  0.10531434996E+02  0.29909214301E+02 -0.20747019343E+03  0.20987937818E+03  0.00000000000E+00 0. -1.
          1    1    1    2  503    0 -0.23417598505E+02 -0.32692498672E+02  0.11594978707E+04  0.11601950248E+04  0.00000000000E+00 0. -1.
<mgrwt>
<rscale>  0 0.35666979E+02</rscale>
<asrwt>0</asrwt>
<pdfrwt beam="1">  1        2 0.18410550E+00 0.40118769E+02</pdfrwt>
<pdfrwt beam="2">  1        1 0.49208765E-01 0.31709182E+02</pdfrwt>
<totfact> 0.25107345E+02</totfact>
</mgrwt>
</event>
<event>
 7    1  0.5277388E-004  0.1304315E+03  0.7546771E-02  0.1305167E+00
         -2   -1    0    0    0  501 -0.00000000000E+00  0.00000000000E+00  0.12150870804E+03  0.12150870804E+03  0.00000000000E+00 0.  1.
          2   -1    0    0  503    0  0.00000000000E+00 -0.00000000000E+00 -0.22931880415E+04  0.22931880415E+04  0.00000000000E+00 0. -1.
         25    2    1    2    0    0 -0.64927191126E+02  0.16105572734E+03 -0.12718188785E+03  0.24889391124E+03  0.12497383326E+03 0.  0.
          4    1    3    3  502    0 -0.13535079221E+02  0.14777498518E+03 -0.52813612250E+02  0.15751677737E+03  0.12700000000E+01 0.  1.
         -4    1    3    3    0  502 -0.51392111904E+02  0.13280742156E+02 -0.74368275603E+02  0.91377133870E+02  0.12700000000E+01 0.  1.
          1    1    1    2  503    0  0.79347433233E+02 -0.10199204717E+03 -0.20873969677E+04  0.20913929553E+04  0.00000000000E+00 0. -1.
         -1    1    1    2    0  501 -0.14420242108E+02 -0.59063680171E+02  0.42899522043E+02  0.74409883009E+02  0.00000000000E+00 0.  1.
<mgrwt>
<rscale>  0 0.89050781E+02</rscale>
<asrwt>0</asrwt>
<pdfrwt beam="2">  1        2 0.35279811E+00 0.13043146E+03</pdfrwt>
<pdfrwt beam="1">  1       -2 0.18693650E-01 0.60798534E+02</pdfrwt>
<totfact> 0.12686624E+02</totfact>
</mgrwt>
</event>
<event>
 7    1  0.5277388E-004  0.6791458E+02  0.7546771E-02  0.1452244E+00
         -2   -1    0    0    0  501 -0.00000000000E+00  0.00000000000E+00  0.26319423608E+02  0.26319423608E+02  0.00000000000E+00 0.  1.
          2   -1    0    0  503    0  0.00000000000E+00 -0.00000000000E+00 -0.89419240695E+03  0.89419240695E+03  0.00000000000E+00 0. -1.
         25    2    1    2    0    0  0.93904613181E+02  0.53613471900E+01 -0.51063744238E+03  0.53406143984E+03  0.12499681414E+03 0.  0.
          4    1    3    3  502    0 -0.24824471909E+02  0.21395001101E+02 -0.16551783046E+03  0.16873578630E+03  0.12700000000E+01 0. -1.
         -4    1    3    3    0  502  0.11872908509E+03 -0.16033653911E+02 -0.34511961192E+03  0.36532565354E+03  0.12700000000E+01 0. -1.
          1    1    1    2  503    0 -0.60208523867E+02 -0.14761644883E+02 -0.34320530260E+03  0.34875901743E+03  0.00000000000E+00 0. -1.
         -1    1    1    2    0  501 -0.33696089314E+02  0.94002976932E+01 -0.14030238363E+02  0.37691373287E+02  0.00000000000E+00 0.  1.
<mgrwt>
<rscale>  0 0.48742568E+02</rscale>
<asrwt>0</asrwt>
<pdfrwt beam="2">  1        2 0.13756803E+00 0.67914577E+02</pdfrwt>
<pdfrwt beam="1">  1       -2 0.40491431E-02 0.34982739E+02</pdfrwt>
<totfact> 0.70499717E+03</totfact>
</mgrwt>
</event>
<event>
 7    1  0.5277388E-004  0.8484368E+02  0.7546771E-02  0.1445704E+00
         -2   -1    0    0    0  501 -0.00000000000E+00  0.00000000000E+00  0.56932371860E+02  0.56932371860E+02  0.00000000000E+00 0.  1.
          2   -1    0    0  503    0  0.00000000000E+00 -0.00000000000E+00 -0.15214664896E+04  0.15214664896E+04  0.00000000000E+00 0. -1.
         25    2    1    2    0    0  0.46814743212E+02 -0.69877206343E+02 -0.76554219529E+02  0.16899310570E+03  0.12499470828E+03 0.  0.
          4    1    3    3  502    0  0.56920739370E+02 -0.10176265883E+03 -0.65489819130E+02  0.13373906913E+03  0.12700000000E+01 0. -1.
         -4    1    3    3    0  502 -0.10105996159E+02  0.31885452483E+02 -0.11064400399E+02  0.35254036571E+02  0.12700000000E+01 0. -1.
          1    1    1    2  503    0 -0.68617713377E+02  0.50174080299E+02 -0.13744117015E+04  0.13770378914E+04  0.00000000000E+00 0. -1.
         -1    1    1    2    0  501  0.21802970166E+02  0.19703126044E+02 -0.13568196653E+02  0.32367864378E+02  0.00000000000E+00 0.  1.
<mgrwt>
<rscale>  0 0.49932777E+02</rscale>
<asrwt>0</asrwt>
<pdfrwt beam="2">  1        2 0.23407173E+00 0.84843676E+02</pdfrwt>
<pdfrwt beam="1">  1       -2 0.87588278E-02 0.29386777E+02</pdfrwt>
<totfact> 0.10097664E+03</totfact>
</mgrwt>
</event>
<event>
 7    1  0.5277388E-004  0.4401311E+02  0.7546771E-02  0.1490329E+00
         -1   -1    0    0    0  501 -0.00000000000E+00  0.00000000000E+00  0.93254666261E+03  0.93254666261E+03  0.00000000000E+00 0.  1.
          1   -1    0    0  503    0  0.00000000000E+00 -0.00000000000E+00 -0.42793864959E+03  0.42793864959E+03  0.00000000000E+00 0. -1.
         25    2    1    2    0    0 -0.55775767999E+01 -0.17255898537E+02 -0.11334014937E+03  0.16970389328E+03  0.12499818613E+03 0.  0.
          4    1    3    3  502    0  0.67677057285E+01  0.18700598809E+02 -0.12755075176E+03  0.12909810770E+03  0.12700000000E+01 0.  1.
         -4    1    3    3    0  502 -0.12345282528E+02 -0.35956497346E+02  0.14210602389E+02  0.40605785578E+02  0.12700000000E+01 0.  1.
          2    1    1    2  503    0  0.45656144531E+02  0.81013547715E+01 -0.28406863908E+03  0.28782825989E+03  0.00000000000E+00 0. -1.
         -2    1    1    2    0  501 -0.40078567731E+02  0.91545437654E+01  0.90201680148E+03  0.90295315903E+03  0.00000000000E+00 0.  1.
<mgrwt>
<rscale>  0 0.42537206E+02</rscale>
<asrwt>0</asrwt>
<pdfrwt beam="2">  1        1 0.65836716E-01 0.44013111E+02</pdfrwt>
<pdfrwt beam="1">  1       -1 0.14346872E+00 0.41110793E+02</pdfrwt>
<totfact> 0.27682377E+01</totfact>
</mgrwt>
</event>
<event>
 7    1  0.5277388E-004  0.8944764E+02  0.7546771E-02  0.1337020E+00
          2   -1    0    0  503    0  0.00000000000E+00  0.00000000000E+00  0.49141985281E+02  0.49141985281E+02  0.00000000000E+00 0. -1.
          1   -1    0    0  502    0 -0.00000000000E+00 -0.00000000000E+00 -0.11783900166E+04  0.11783900166E+04  0.00000000000E+00 0. -1.
         25    2    1    2    0    0  0.34675383679E+02 -0.61044921372E+01 -0.14625738230E+03  0.19558853168E+03  0.12499601910E+03 0.  0.
          4    1    3    3  501    0  0.16092719912E+02  0.59250517347E+02 -0.60957097093E+02  0.86527336871E+02  0.12700000000E+01 0. -1.
         -4    1    3    3    0  501  0.18582663767E+02 -0.65355009484E+02 -0.85300285208E+02  0.10906119481E+03  0.12700000000E+01 0. -1.
          2    1    1    2  502    0 -0.89577687130E+02 -0.31821679400E+02 -0.95477377872E+03  0.95949452830E+03  0.00000000000E+00 0. -1.
          1    1    1    2  503    0  0.54902303451E+02  0.37926171537E+02 -0.28216870291E+02  0.72448941888E+02  0.00000000000E+00 0. -1.
<mgrwt>
<rscale>  0 0.77257255E+02</rscale>
<asrwt>0</asrwt>
<pdfrwt beam="1">  1        2 0.75603060E-02 0.66728235E+02</pdfrwt>
<pdfrwt beam="2">  1        1 0.18129076E+00 0.89447644E+02</pdfrwt>
<totfact> 0.14486587E+03</totfact>
</mgrwt>
</event>
<event>
 7    1  0.5277388E-004  0.5598524E+02  0.7546771E-02  0.1483087E+00
         -2   -1    0    0    0  501 -0.00000000000E+00  0.00000000000E+00  0.18695746391E+02  0.18695746391E+02  0.00000000000E+00 0. -1.
          2   -1    0    0  503    0  0.00000000000E+00 -0.00000000000E+00 -0.10106619468E+04  0.10106619468E+04  0.00000000000E+00 0.  1.
         25    2    1    2    0    0  0.51468915941E+02 -0.12873617815E+02 -0.80026858379E+03  0.81171446684E+03  0.12504315310E+03 0.  0.
          4    1    3    3  502    0  0.50374690744E+02  0.45375273548E+02 -0.27558965184E+03  0.28380943258E+03  0.12700000000E+01 0. -1.
         -4    1    3    3    0  502  0.10942251972E+01 -0.58248891363E+02 -0.52467893194E+03  0.52790503426E+03  0.12700000000E+01 0. -1.
          1    1    1    2  503    0 -0.63724480047E+02 -0.18840376393E+02 -0.10219020072E+03  0.12189588288E+03  0.00000000000E+00 0. -1.
         -1    1    1    2    0  501  0.12255564106E+02  0.31713994207E+02 -0.89507415879E+02  0.95747343449E+02  0.00000000000E+00 0.  1.
<mgrwt>
<rscale>  0 0.43628875E+02</rscale>
<asrwt>0</asrwt>
<pdfrwt beam="2">  1        2 0.15548647E+00 0.55985242E+02</pdfrwt>
<pdfrwt beam="1">  1       -2 0.28762684E-02 0.33999651E+02</pdfrwt>
<totfact> 0.98249772E+03</totfact>
</mgrwt>
</event>
<event>
 7    1  0.5277388E-004  0.9955352E+02  0.7546771E-02  0.1313927E+00
          1   -1    0    0  502    0 -0.00000000000E+00  0.00000000000E+00  0.79214308699E+03  0.79214308699E+03  0.00000000000E+00 0. -1.
          2   -1    0    0  503    0  0.00000000000E+00 -0.00000000000E+00 -0.46846047648E+03  0.46846047648E+03  0.00000000000E+00 0. -1.
         25    2    1    2    0    0  0.13873250421E+02 -0.24214493267E+02  0.29784670808E+03  0.32421614900E+03  0.12499856399E+03 0.  0.
          4    1    3    3  501    0  0.13828142343E+02  0.18323294376E+01  0.29780911373E+03  0.29813831702E+03  0.12700000000E+01 0.  1.
         -4    1    3    3    0  501  0.45108077725E-01 -0.26046822705E+02  0.37594347134E-01  0.26077831986E+02  0.12700000000E+01 0.  1.
          2    1    1    2  502    0  0.77005523402E+02  0.64858715423E+02  0.47027674264E+03  0.48093317443E+03  0.00000000000E+00 0. -1.
          1    1    1    2  503    0 -0.90878773823E+02 -0.40644222156E+02 -0.44444084021E+03  0.45545424004E+03  0.00000000000E+00 0. -1.
<mgrwt>
<rscale>  0 0.85578194E+02</rscale>
<asrwt>0</asrwt>
<pdfrwt beam="2">  1        2 0.72070843E-01 0.99553525E+02</pdfrwt>
<pdfrwt beam="1">  1        1 0.12186817E+00 0.73564721E+02</pdfrwt>
<totfact> 0.23125331E+02</totfact>
</mgrwt>
</event>
<event>
 7    1  0.5277388E-004  0.3999939E+03  0.7546771E-02  0.1066246E+00
          2   -1    0    0  503    0  0.00000000000E+00  0.00000000000E+00  0.28993262702E+03  0.28993262702E+03  0.00000000000E+00 0. -1.
          1   -1    0    0  502    0 -0.00000000000E+00 -0.00000000000E+00 -0.31130682156E+04  0.31130682156E+04  0.00000000000E+00 0. -1.
         25    2    1    2    0    0 -0.21334451178E+03 -0.63187208923E+02 -0.73077278499E+03  0.77405655226E+03  0.12500471487E+03 0.  0.
          4    1    3    3  501    0 -0.57860475194E+02  0.30806768720E+02 -0.28971941012E+03  0.29704518358E+03  0.12700000000E+01 0.  1.
         -4    1    3    3    0  501 -0.15548403658E+03 -0.93993977642E+02 -0.44105337487E+03  0.47701136868E+03  0.12700000000E+01 0.  1.
          2    1    1    2  502    0 -0.88864219229E+02 -0.27732049625E+03 -0.21503607813E+04  0.21699896306E+04  0.00000000000E+00 0. -1.
          3    1    1    2  503    0  0.30220873101E+03  0.34050770517E+03  0.57997977639E+02  0.45895465984E+03  0.00000000000E+00 0. -1.
<mgrwt>
<rscale>  0 0.34129515E+03</rscale>
<asrwt>0</asrwt>
<pdfrwt beam="1">  1        2 0.44605019E-01 0.39999387E+03</pdfrwt>
<pdfrwt beam="2">  1        1 0.47893357E+00 0.29121042E+03</pdfrwt>
<totfact> 0.92493790E+00</totfact>
</mgrwt>
</event>
<event>
 7    1  0.5277388E-004  0.6580409E+02  0.7546771E-02  0.1518524E+00
          2   -1    0    0  503    0  0.00000000000E+00  0.00000000000E+00  0.36706362973E+03  0.36706362973E+03  0.00000000000E+00 0. -1.
          1   -1    0    0  502    0 -0.00000000000E+00 -0.00000000000E+00 -0.11941058455E+03  0.11941058455E+03  0.00000000000E+00 0. -1.
         25    2    1    2    0    0  0.79950480950E+02 -0.29901658071E+02  0.14316905093E+03  0.20835227311E+03  0.12500841575E+03 0.  0.
          4    1    3    3  501    0 -0.22051432252E+01 -0.19500869627E+02  0.12103799769E+03  0.12262526803E+03  0.12700000000E+01 0. -1.
         -4    1    3    3    0  501  0.82155624175E+02 -0.10400788444E+02  0.22131053237E+02  0.85727005087E+02  0.12700000000E+01 0. -1.
          2    1    1    2  502    0 -0.20957583380E+02  0.86704010774E+01 -0.80064067304E+02  0.83214488097E+02  0.00000000000E+00 0. -1.
          1    1    1    2  503    0 -0.58992897569E+02  0.21231256994E+02  0.18454806156E+03  0.19490745307E+03  0.00000000000E+00 0. -1.
<mgrwt>
<rscale>  0 0.38632327E+02</rscale>
<asrwt>0</asrwt>
<pdfrwt beam="1">  1        2 0.56471327E-01 0.65804089E+02</pdfrwt>
<pdfrwt beam="2">  1        1 0.18370859E-01 0.22680303E+02</pdfrwt>
<totfact> 0.30510401E+03</totfact>
</mgrwt>
</event>
<event>
 7    1  0.5277388E-004  0.3993783E+02  0.7546771E-02  0.1516189E+00
          1   -1    0    0  502    0 -0.00000000000E+00  0.00000000000E+00  0.14822873499E+03  0.14822873499E+03  0.00000000000E+00 0. -1.
          2   -1    0    0  503    0  0.00000000000E+00 -0.00000000000E+00 -0.60136944859E+03  0.60136944859E+03  0.00000000000E+00 0. -1.
         25    2    1    2    0    0 -0.51190486301E+01  0.90470456337E+01 -0.61457655931E+02  0.13967619328E+03  0.12499736718E+03 0.  0.
          4    1    3    3  501    0  0.18051445603E+01 -0.17181193324E+02  0.35224013151E+02  0.39252973816E+02  0.12700000000E+01 0.  1.
         -4    1    3    3    0  501 -0.69241931904E+01  0.26228238958E+02 -0.96681669083E+02  0.10042321946E+03  0.12700000000E+01 0.  1.
          2    1    1    2  502    0 -0.35280203580E+02 -0.14009033461E+02  0.10496021754E+03  0.11161358810E+03  0.00000000000E+00 0. -1.
          1    1    1    2  503    0  0.40399252210E+02  0.49619878274E+01 -0.49664327520E+03  0.49830840220E+03  0.00000000000E+00 0. -1.
<mgrwt>
<rscale>  0 0.38936252E+02</rscale>
<asrwt>0</asrwt>
<pdfrwt beam="2">  1        2 0.92518376E-01 0.39937830E+02</pdfrwt>
<pdfrwt beam="1">  1        1 0.22804421E-01 0.37959792E+02</pdfrwt>
<totfact> 0.14472905E+03</totfact>
</mgrwt>
</event>
<event>
 7    1  0.5277388E-004  0.8732145E+02  0.7546771E-02  0.1406574E+00
          1   -1    0    0  502    0 -0.00000000000E+00  0.00000000000E+00  0.11555469204E+04  0.11555469204E+04  0.00000000000E+00 0. -1.
          2   -1    0    0  503    0  0.00000000000E+00 -0.00000000000E+00 -0.38120223769E+03  0.38120223769E+03  0.00000000000E+00 0. -1.
         25    2    1    2    0    0 -0.20451040604E+02  0.10524479420E+03  0.31887924815E+02  0.16773843500E+03  0.12499852424E+03 0.  0.
          4    1    3    3  501    0 -0.59858924959E+02  0.84514861561E+02  0.55303288831E+02  0.11741345484E+03  0.12700000000E+01 0. -1.
         -4    1    3    3    0  501  0.39407884355E+02  0.20729932636E+02 -0.23415364017E+02  0.50324980163E+02  0.12700000000E+01 0. -1.
          2    1    1    2  502    0  0.33054062183E+02 -0.19698221143E+02  0.10494076086E+04  0.10501128130E+04  0.00000000000E+00 0. -1.
          1    1    1    2  503    0 -0.12603021579E+02 -0.85546573054E+02 -0.30695085072E+03  0.31889791011E+03  0.00000000000E+00 0. -1.
<mgrwt>
<rscale>  0 0.57965454E+02</rscale>
<asrwt>0</asrwt>
<pdfrwt beam="2">  1        2 0.58646499E-01 0.87321450E+02</pdfrwt>
<pdfrwt beam="1">  1        1 0.17777645E+00 0.38478448E+02</pdfrwt>
<totfact> 0.16496469E+02</totfact>
</mgrwt>
</event>
<event>
 7    1  0.5277388E-004  0.8632643E+02  0.7546771E-02  0.1425563E+00
         -2   -1    0    0    0  501  0.00000000000E+00  0.00000000000E+00  0.20371881555E+03  0.20371881555E+03  0.00000000000E+00 0.  1.
         -1   -1    0    0    0  502 -0.00000000000E+00 -0.00000000000E+00 -0.22812242172E+03  0.22812242172E+03  0.00000000000E+00 0.  1.
         25    2    1    2    0    0  0.26386031564E+02  0.49920512708E+02  0.60849511017E+02  0.15005581796E+03  0.12500322101E+03 0.  0.
          4    1    3    3  503    0 -0.34768577803E+02  0.49088195906E+02  0.65210313265E+02  0.88727125705E+02  0.12700000000E+01 0. -1.
         -4    1    3    3    0  503  0.61154609366E+02  0.83231680178E+00 -0.43608022482E+01  0.61328692260E+02  0.12700000000E+01 0. -1.
         -2    1    1    2    0  502 -0.48557196214E+02 -0.75174039396E+02 -0.16917386217E+03  0.19138634524E+03  0.00000000000E+00 0.  1.
         -1    1    1    2    0  501  0.22171164650E+02  0.25253526689E+02  0.83920744990E+02  0.90399074065E+02  0.00000000000E+00 0.  1.
<mgrwt>
<rscale>  0 0.53860990E+02</rscale>
<asrwt>0</asrwt>
<pdfrwt beam="1">  1       -2 0.31341356E-01 0.33605076E+02</pdfrwt>
<pdfrwt beam="2">  1       -1 0.35095757E-01 0.86326430E+02</pdfrwt>
<totfact> 0.51631918E+02</totfact>
</mgrwt>
</event>
<event>
 7    1  0.5277388E-004  0.1358542E+03  0.7546771E-02  0.1238057E+00
          2   -1    0    0  503    0  0.00000000000E+00  0.00000000000E+00  0.11734576144E+04  0.11734576144E+04  0.00000000000E+00 0. -1.
          1   -1    0    0  502    0 -0.00000000000E+00 -0.00000000000E+00 -0.57684436364E+02  0.57684436364E+02  0.00000000000E+00 0. -1.
         25    2    1    2    0    0  0.66374887129E+02  0.13070056856E+03  0.61700037527E+03  0.64637603440E+03  0.12499700198E+03 0.  0.
          4    1    3    3  501    0  0.14365178227E+02  0.54876246334E+02  0.46698888883E+03  0.47042320940E+03  0.12700000000E+01 0.  1.
         -4    1    3    3    0  501  0.52009708902E+02  0.75824322223E+02  0.15001148644E+03  0.17595282500E+03  0.12700000000E+01 0.  1.
          2    1    1    2  502    0  0.45124668177E+02 -0.13426317734E+03  0.10726702635E+03  0.17767681731E+03  0.00000000000E+00 0. -1.
          3    1    1    2  503    0 -0.11149955531E+03  0.35626087856E+01  0.39150577645E+03  0.40708919908E+03  0.00000000000E+00 0. -1.
<mgrwt>
<rscale>  0 0.12310735E+03</rscale>
<asrwt>0</asrwt>
<pdfrwt beam="1">  1        2 0.18053192E+00 0.11155646E+03</pdfrwt>
<pdfrwt beam="2">  1        1 0.88745296E-02 0.13585425E+03</pdfrwt>
<totfact> 0.21425051E+03</totfact>
</mgrwt>
</event>
<event>
 7    1  0.5277388E-004  0.6902158E+02  0.7546771E-02  0.1472484E+00
          1   -1    0    0  502    0 -0.00000000000E+00  0.00000000000E+00  0.60692614012E+02  0.60692614012E+02  0.00000000000E+00 0. -1.
          2   -1    0    0  503    0  0.00000000000E+00 -0.00000000000E+00 -0.15173064693E+04  0.15173064693E+04  0.00000000000E+00 0. -1.
         25    2    1    2    0    0 -0.48793722564E+02 -0.27719077962E+02 -0.98032664342E+02  0.16848994041E+03  0.12501712722E+03 0.  0.
          4    1    3    3  501    0  0.10120900079E+01 -0.48560085715E+02  0.82412413203E+01  0.49281205437E+02  0.12700000000E+01 0. -1.
         -4    1    3    3    0  501 -0.49805812572E+02  0.20841007752E+02 -0.10627390566E+03  0.11920873498E+03  0.12700000000E+01 0. -1.
          2    1    1    2  502    0  0.81239386371E+01 -0.28598245086E+02  0.15599432396E+02  0.33573803658E+02  0.00000000000E+00 0. -1.
          1    1    1    2  503    0  0.40669783927E+02  0.56317323048E+02 -0.13741806233E+04  0.13759353392E+04  0.00000000000E+00 0. -1.
<mgrwt>
<rscale>  0 0.45298944E+02</rscale>
<asrwt>0</asrwt>
<pdfrwt beam="2">  1        2 0.23343174E+00 0.69021581E+02</pdfrwt>
<pdfrwt beam="1">  1        1 0.93373260E-02 0.29729749E+02</pdfrwt>
<totfact> 0.12229913E+03</totfact>
</mgrwt>
</event>
<event>
 7    1  0.5277388E-004  0.6166349E+02  0.7546771E-02  0.1400184E+00
          1   -1    0    0  502    0 -0.00000000000E+00  0.00000000000E+00  0.10872784095E+04  0.10872784095E+04  0.00000000000E+00 0. -1.
          2   -1    0    0  503    0  0.00000000000E+00 -0.00000000000E+00 -0.83465722747E+02  0.83465722747E+02  0.00000000000E+00 0. -1.
         25    2    1    2    0    0  0.42842516599E+02  0.49119094968E+02  0.53751342391E+02  0.15087121477E+03  0.12499899967E+03 0.  0.
          4    1    3    3  501    0 -0.14378379469E+02  0.34058854626E+02 -0.30476998418E+02  0.47929152999E+02  0.12700000000E+01 0. -1.
         -4    1    3    3    0  501  0.57220896069E+02  0.15060240341E+02  0.84228340809E+02  0.10294206177E+03  0.12700000000E+01 0. -1.
          2    1    1    2  502    0 -0.60815331777E+02  0.10192251810E+02  0.95565867027E+03  0.95764601009E+03  0.00000000000E+00 0. -1.
          1    1    1    2  503    0  0.17972815177E+02 -0.59311346778E+02 -0.55973259370E+01  0.62226907361E+02  0.00000000000E+00 0. -1.
<mgrwt>
<rscale>  0 0.59443087E+02</rscale>
<asrwt>0</asrwt>
<pdfrwt beam="2">  1        2 0.12840881E-01 0.57302634E+02</pdfrwt>
<pdfrwt beam="1">  1        1 0.16727359E+00 0.61663495E+02</pdfrwt>
<totfact> 0.90106284E+02</totfact>
</mgrwt>
</event>
<event>
 7    1  0.5277388E-004  0.2806807E+03  0.7546771E-02  0.1303501E+00
          1   -1    0    0  502    0 -0.00000000000E+00  0.00000000000E+00  0.23175019688E+03  0.23175019688E+03  0.00000000000E+00 0. -1.
          2   -1    0    0  503    0  0.00000000000E+00 -0.00000000000E+00 -0.23639343214E+04  0.23639343214E+04  0.00000000000E+00 0. -1.
         25    2    1    2    0    0  0.25714646013E+03 -0.71228934149E+02 -0.23813462625E+03  0.37884838706E+03  0.12498054706E+03 0.  0.
          4    1    3    3  501    0  0.23157206837E+03 -0.95529547930E+02 -0.23488001687E+03  0.34339736837E+03  0.12700000000E+01 0.  1.
         -4    1    3    3    0  501  0.25574391768E+02  0.24300613780E+02 -0.32546093727E+01  0.35451018695E+02  0.12700000000E+01 0.  1.
          2    1    1    2  502    0  0.77266918010E+01 -0.27626847643E+02  0.15030860037E+03  0.15302163188E+03  0.00000000000E+00 0. -1.
          1    1    1    2  503    0 -0.26487315194E+03  0.98855781792E+02 -0.20443580986E+04  0.20638144993E+04  0.00000000000E+00 0. -1.
<mgrwt>
<rscale>  0 0.89732329E+02</rscale>
<asrwt>0</asrwt>
<pdfrwt beam="2">  1        2 0.36368219E+00 0.28068074E+03</pdfrwt>
<pdfrwt beam="1">  1        1 0.35653878E-01 0.28687009E+02</pdfrwt>
<totfact> 0.76532697E+01</totfact>
</mgrwt>
</event>
<event>
 7    1  0.5277388E-004  0.3506708E+02  0.7546771E-02  0.1614939E+00
          2   -1    0    0  503    0  0.00000000000E+00  0.00000000000E+00  0.54085489665E+03  0.54085489665E+03  0.00000000000E+00 0. -1.
          1   -1    0    0  502    0 -0.00000000000E+00 -0.00000000000E+00 -0.52509589987E+03  0.52509589987E+03  0.00000000000E+00 0. -1.
         25    2    1    2    0    0  0.57410269652E+02  0.38397394980E+01 -0.22114407532E+02  0.13937401050E+03  0.12500154048E+03 0.  0.
          4    1    3    3  501    0 -0.22706122633E+02 -0.23051580545E+02 -0.41522011026E+02  0.52655803767E+02  0.12700000000E+01 0. -1.
         -4    1    3    3    0  501  0.80116392285E+02  0.26891320043E+02  0.19407603494E+02  0.86718206738E+02  0.12700000000E+01 0. -1.
          2    1    1    2  502    0 -0.23083217663E+02  0.24257211163E+01 -0.44341652733E+03  0.44402357569E+03  0.00000000000E+00 0. -1.
          1    1    1    2  503    0 -0.34327051989E+02 -0.62654606143E+01  0.48128993164E+03  0.48255321032E+03  0.00000000000E+00 0. -1.
<mgrwt>
<rscale>  0 0.28529251E+02</rscale>
<asrwt>0</asrwt>
<pdfrwt beam="1">  1        2 0.83208445E-01 0.35067077E+02</pdfrwt>
<pdfrwt beam="2">  1        1 0.80783985E-01 0.23210322E+02</pdfrwt>
<totfact> 0.36225156E+02</totfact>
</mgrwt>
</event>
<event>
 7    1  0.5277388E-004  0.7415436E+02  0.7546771E-02  0.1426424E+00
          1   -1    0    0  503    0  0.00000000000E+00  0.00000000000E+00  0.54729733937E+02  0.54729733937E+02  0.00000000000E+00 0. -1.
         -1   -1    0    0    0  501 -0.00000000000E+00 -0.00000000000E+00 -0.34814909371E+03  0.34814909371E+03  0.00000000000E+00 0.  1.
         25    2    1    2    0    0  0.45742597275E+02  0.70121396393E+02 -0.18811069346E+03  0.24086161590E+03  0.12497715624E+03 0.  0.
          4    1    3    3  502    0  0.61935061891E+01 -0.23813444854E+02  0.24430504527E+01  0.24759262312E+02  0.12700000000E+01 0.  1.
         -4    1    3    3    0  502  0.39549091086E+02  0.93934841247E+02 -0.19055374392E+03  0.21610235359E+03  0.12700000000E+01 0.  1.
          2    1    1    2  503    0 -0.38800268769E+02  0.22493244305E+01 -0.65967336469E+01  0.39421278667E+02  0.00000000000E+00 0. -1.
         -2    1    1    2    0  501 -0.69423285058E+01 -0.72370720823E+02 -0.98711932661E+02  0.12259593308E+03  0.00000000000E+00 0.  1.
<mgrwt>
<rscale>  0 0.53684633E+02</rscale>
<asrwt>0</asrwt>
<pdfrwt beam="1">  1        1 0.84199591E-02 0.38865413E+02</pdfrwt>
<pdfrwt beam="2">  1       -1 0.53561399E-01 0.74154360E+02</pdfrwt>
<totfact> 0.25853229E+03</totfact>
</mgrwt>
</event>
<event>
 7    1  0.5277388E-004  0.7428410E+02  0.7546771E-02  0.1441513E+00
          2   -1    0    0  503    0  0.00000000000E+00  0.00000000000E+00  0.85085270914E+03  0.85085270914E+03  0.00000000000E+00 0. -1.
         -2   -1    0    0    0  501 -0.00000000000E+00 -0.00000000000E+00 -0.31534667374E+02  0.31534667374E+02  0.00000000000E+00 0.  1.
         25    2    1    2    0    0 -0.38410512170E+02  0.52980300454E+02  0.25620085659E+03  0.29248635873E+03  0.12500844549E+03 0.  0.
          4    1    3    3  502    0 -0.16153544654E+02 -0.23853814339E+01 -0.10323937176E+02  0.19360362297E+02  0.12700000000E+01 0.  1.
         -4    1    3    3    0  502 -0.22256967516E+02  0.55365681888E+02  0.26652479377E+03  0.27312599643E+03  0.12700000000E+01 0.  1.
          3    1    1    2  503    0  0.68019420495E+02 -0.35027200002E+02  0.54589062776E+03  0.55122601878E+03  0.00000000000E+00 0. -1.
         -1    1    1    2    0  501 -0.29608908325E+02 -0.17953100452E+02  0.17226557423E+02  0.38674999013E+02  0.00000000000E+00 0.  1.
<mgrwt>
<rscale>  0 0.50716918E+02</rscale>
<asrwt>0</asrwt>
<pdfrwt beam="1">  1        2 0.13090040E+00 0.74284103E+02</pdfrwt>
<pdfrwt beam="2">  1       -2 0.48514879E-02 0.34626598E+02</pdfrwt>
<totfact> 0.57587418E+03</totfact>
</mgrwt>
</event>
<event>
 7    1  0.5277388E-004  0.7717828E+02  0.7546771E-02  0.1448430E+00
          2   -1    0    0  503    0  0.00000000000E+00  0.00000000000E+00  0.60938502852E+03  0.60938502852E+03  0.00000000000E+00 0. -1.
          1   -1    0    0  502    0 -0.00000000000E+00 -0.00000000000E+00 -0.33235143476E+03  0.33235143476E+03  0.00000000000E+00 0. -1.
         25    2    1    2    0    0  0.94792431376E+02 -0.51103185232E+02 -0.28101448454E+02  0.16736787613E+03  0.12500069587E+03 0.  0.
          4    1    3    3  501    0  0.77715074340E+01 -0.43700440743E+02  0.37508792986E+02  0.58126132679E+02  0.12700000000E+01 0. -1.
         -4    1    3    3    0  501  0.87020923942E+02 -0.74027444887E+01 -0.65610241440E+02  0.10924174345E+03  0.12700000000E+01 0. -1.
          2    1    1    2  502    0 -0.29436546556E+02  0.11657039468E+02 -0.23083167404E+03  0.23299282946E+03  0.00000000000E+00 0. -1.
          1    1    1    2  503    0 -0.65355884819E+02  0.39446145764E+02  0.53596671625E+03  0.54137575770E+03  0.00000000000E+00 0. -1.
<mgrwt>
<rscale>  0 0.49431920E+02</rscale>
<asrwt>0</asrwt>
<pdfrwt beam="1">  1        2 0.93751543E-01 0.77178282E+02</pdfrwt>
<pdfrwt beam="2">  1        1 0.51130990E-01 0.31660651E+02</pdfrwt>
<totfact> 0.53882915E+02</totfact>
</mgrwt>
</event>
<event>
 7    1  0.5277388E-004  0.6593274E+02  0.7546771E-02  0.1471161E+00
          1   -1    0    0  503    0  0.00000000000E+00  0.00000000000E+00  0.94860914073E+03  0.94860914073E+03  0.00000000000E+00 0. -1.
         -1   -1    0    0    0  501 -0.00000000000E+00 -0.00000000000E+00 -0.70849624503E+03  0.70849624503E+03  0.00000000000E+00 0.  1.
         25    2    1    2    0    0  0.29445001399E+02 -0.85568251037E+02 -0.42018478150E+03  0.44762625061E+03  0.12500030376E+03 0.  0.
          4    1    3    3  502    0  0.63811551392E+02 -0.81705308016E+01 -0.12580498650E+03  0.14130526952E+03  0.12700000000E+01 0.  1.
         -4    1    3    3    0  502 -0.34366549993E+02 -0.77397720236E+02 -0.29437979500E+03  0.30632098109E+03  0.12700000000E+01 0.  1.
          2    1    1    2  503    0 -0.16212173947E+02  0.26912025271E+02  0.93132847084E+03  0.93185825762E+03  0.00000000000E+00 0. -1.
         -2    1    1    2    0  501 -0.13232827453E+02  0.58656225767E+02 -0.27103079364E+03  0.27762087753E+03  0.00000000000E+00 0.  1.
<mgrwt>
<rscale>  0 0.45513468E+02</rscale>
<asrwt>0</asrwt>
<pdfrwt beam="1">  1        1 0.14593987E+00 0.31418015E+02</pdfrwt>
<pdfrwt beam="2">  1       -1 0.10899942E+00 0.65932739E+02</pdfrwt>
<totfact> 0.17988458E+01</totfact>
</mgrwt>
</event>
<event>
 7    1  0.5277388E-004  0.6647195E+02  0.7546771E-02  0.1425745E+00
          2   -1    0    0  503    0  0.00000000000E+00  0.00000000000E+00  0.13730645140E+04  0.13730645140E+04  0.00000000000E+00 0. -1.
         -2   -1    0    0    0  501 -0.00000000000E+00 -0.00000000000E+00 -0.63933606569E+02  0.63933606569E+02  0.00000000000E+00 0.  1.
         25    2    1    2    0    0  0.12706630449E+02  0.96944261926E+02  0.93595417867E+02  0.18424656953E+03  0.12500819078E+03 0.  0.
          4    1    3    3  502    0  0.32146281589E+02  0.31947583080E+02  0.10598111685E+03  0.11527203266E+03  0.12700000000E+01 0. -1.
         -4    1    3    3    0  502 -0.19439651140E+02  0.64996678846E+02 -0.12385698984E+02  0.68974536872E+02  0.12700000000E+01 0. -1.
          1    1    1    2  503    0  0.58666406955E+01 -0.43185399937E+02  0.11893295717E+04  0.11901278193E+04  0.00000000000E+00 0. -1.
         -1    1    1    2    0  501 -0.18573271144E+02 -0.53758861989E+02  0.26205917900E+02  0.62623731734E+02  0.00000000000E+00 0.  1.
<mgrwt>
<rscale>  0 0.53823644E+02</rscale>
<asrwt>0</asrwt>
<pdfrwt beam="1">  1        2 0.21124067E+00 0.43582063E+02</pdfrwt>
<pdfrwt beam="2">  1       -2 0.98359405E-02 0.66471948E+02</pdfrwt>
<totfact> 0.11430857E+03</totfact>
</mgrwt>
</event>
<event>
 7    1  0.5277388E-004  0.4602845E+02  0.7546771E-02  0.1561532E+00
          1   -1    0    0  502    0 -0.00000000000E+00  0.00000000000E+00  0.19265491375E+04  0.19265491375E+04  0.00000000000E+00 0. -1.
          2   -1    0    0  503    0  0.00000000000E+00 -0.00000000000E+00 -0.39879978233E+03  0.39879978233E+03  0.00000000000E+00 0. -1.
         25    2    1    2    0    0 -0.47143892210E+01  0.21392975872E+02  0.10794674879E+04  0.10869001403E+04  0.12498789047E+03 0.  0.
          4    1    3    3  501    0  0.22458426136E+02  0.11425072823E+02  0.10241024123E+04  0.10244131378E+04  0.12700000000E+01 0.  1.
         -4    1    3    3    0  501 -0.27172815357E+02  0.99679030492E+01  0.55365075561E+02  0.62487002468E+02  0.12700000000E+01 0.  1.
          2    1    1    2  502    0  0.75238583305E+00  0.24494889184E+02  0.84184403623E+03  0.84220065722E+03  0.00000000000E+00 0. -1.
          1    1    1    2  503    0  0.39620033880E+01 -0.45887865056E+02 -0.39356216892E+03  0.39624812231E+03  0.00000000000E+00 0. -1.
<mgrwt>
<rscale>  0 0.33585615E+02</rscale>
<asrwt>0</asrwt>
<pdfrwt beam="2">  1        2 0.61353814E-01 0.46028450E+02</pdfrwt>
<pdfrwt beam="1">  1        1 0.29639217E+00 0.24506442E+02</pdfrwt>
<totfact> 0.56061138E+01</totfact>
</mgrwt>
</event>
<event>
 7    1  0.5277388E-004  0.6966669E+02  0.7546771E-02  0.1430796E+00
          1   -1    0    0  502    0 -0.00000000000E+00  0.00000000000E+00  0.14546030356E+04  0.14546030356E+04  0.00000000000E+00 0. -1.
          2   -1    0    0  503    0  0.00000000000E+00 -0.00000000000E+00 -0.92162077502E+03  0.92162077502E+03  0.00000000000E+00 0. -1.
         25    2    1    2    0    0 -0.82434985054E+02  0.70046272787E+02 -0.47914804403E+03  0.50686304209E+03  0.12500115298E+03 0.  0.
          4    1    3    3  501    0 -0.47693170582E+01 -0.34220368826E+02 -0.12108237664E+03  0.12592193955E+03  0.12700000000E+01 0. -1.
         -4    1    3    3    0  501 -0.77665667996E+02  0.10426664161E+03 -0.35806566739E+03  0.38094110254E+03  0.12700000000E+01 0. -1.
          2    1    1    2  502    0  0.58163721422E+02 -0.38229208444E+02  0.14389684651E+04  0.14406508024E+04  0.00000000000E+00 0. -1.
          1    1    1    2  503    0  0.24271263632E+02 -0.31817064344E+02 -0.42683816049E+03  0.42870996614E+03  0.00000000000E+00 0. -1.
<mgrwt>
<rscale>  0 0.52800605E+02</rscale>
<asrwt>0</asrwt>
<pdfrwt beam="2">  1        2 0.14178781E+00 0.40017744E+02</pdfrwt>
<pdfrwt beam="1">  1        1 0.22378508E+00 0.69666694E+02</pdfrwt>
<totfact> 0.38350682E+01</totfact>
</mgrwt>
</event>
<event>
 7    1  0.5277388E-004  0.2506848E+03  0.7546771E-02  0.1255531E+00
         -3   -1    0    0    0  501 -0.00000000000E+00  0.00000000000E+00  0.43299765724E+03  0.43299765724E+03  0.00000000000E+00 0.  1.
          1   -1    0    0  503    0  0.00000000000E+00 -0.00000000000E+00 -0.32703493468E+03  0.32703493468E+03  0.00000000000E+00 0. -1.
         25    2    1    2    0    0  0.23890046752E+03 -0.15584421334E+03  0.43892189515E+02  0.31450336541E+03  0.12499996135E+03 0.  0.
          4    1    3    3  502    0  0.94802530646E+02 -0.88771082837E+02  0.78594382347E+02  0.15181078618E+03  0.12700000000E+01 0. -1.
         -4    1    3    3    0  502  0.14409793688E+03 -0.67073130508E+02 -0.34702192832E+02  0.16269257923E+03  0.12700000000E+01 0. -1.
          2    1    1    2  503    0 -0.20471371058E+03  0.11836853143E+03 -0.11384288561E+03  0.26244811894E+03  0.00000000000E+00 0. -1.
         -2    1    1    2    0  501 -0.34186756944E+02  0.37475681918E+02  0.17591341865E+03  0.18308110757E+03  0.00000000000E+00 0.  1.
<mgrwt>
<rscale>  0 0.11276668E+03</rscale>
<asrwt>0</asrwt>
<pdfrwt beam="2">  1        1 0.50313067E-01 0.25068485E+03</pdfrwt>
<pdfrwt beam="1">  1       -3 0.66615024E-01 0.50726335E+02</pdfrwt>
<totfact> 0.89064066E+01</totfact>
</mgrwt>
</event>
<event>
 7    1  0.5277388E-004  0.5437100E+02  0.7546771E-02  0.1501351E+00
          1   -1    0    0  503    0  0.00000000000E+00  0.00000000000E+00  0.11100838716E+04  0.11100838716E+04  0.00000000000E+00 0. -1.
         -1   -1    0    0    0  501 -0.00000000000E+00 -0.00000000000E+00 -0.14399273963E+02  0.14399273963E+02  0.00000000000E+00 0.  1.
         25    2    1    2    0    0 -0.35448847833E+02  0.97499702987E+00  0.84564277072E+03  0.85557451249E+03  0.12505390566E+03 0.  0.
          4    1    3    3  502    0 -0.38636048110E+02  0.22371340573E+02  0.82308056999E+03  0.82429148891E+03  0.12700000000E+01 0. -1.
         -4    1    3    3    0  502  0.31872002772E+01 -0.21396343543E+02  0.22562200728E+02  0.31283023580E+02  0.12700000000E+01 0. -1.
          2    1    1    2  503    0 -0.15632929694E+02 -0.26582358858E+02  0.15479047272E+03  0.15783250850E+03  0.00000000000E+00 0. -1.
         -2    1    1    2    0  501  0.51081777527E+02  0.25607361828E+02  0.95251354219E+02  0.11107612460E+03  0.00000000000E+00 0.  1.
<mgrwt>
<rscale>  0 0.40947743E+02</rscale>
<asrwt>0</asrwt>
<pdfrwt beam="1">  1        1 0.17078207E+00 0.30838455E+02</pdfrwt>
<pdfrwt beam="2">  1       -1 0.22152738E-02 0.54371001E+02</pdfrwt>
<totfact> 0.75265022E+03</totfact>
</mgrwt>
</event>
<event>
 7    1  0.5277388E-004  0.9677129E+02  0.7546771E-02  0.1326047E+00
          2   -1    0    0  503    0  0.00000000000E+00  0.00000000000E+00  0.58382397125E+03  0.58382397125E+03  0.00000000000E+00 0. -1.
          1   -1    0    0  502    0 -0.00000000000E+00 -0.00000000000E+00 -0.57633080174E+03  0.57633080174E+03  0.00000000000E+00 0. -1.
         25    2    1    2    0    0  0.73169120542E+01  0.36401934505E+02 -0.24876602818E+01  0.13042477498E+03  0.12500318171E+03 0.  0.
          4    1    3    3  501    0 -0.53992467714E+02  0.31085568646E+02  0.19132497175E+02  0.65185615714E+02  0.12700000000E+01 0. -1.
         -4    1    3    3    0  501  0.61309379768E+02  0.53163658591E+01 -0.21620157457E+02  0.65239159268E+02  0.12700000000E+01 0. -1.
          2    1    1    2  502    0  0.46362153175E+02  0.49625941615E+02 -0.50262433303E+03  0.50719168318E+03  0.00000000000E+00 0. -1.
          1    1    1    2  503    0 -0.53679065229E+02 -0.86027876120E+02  0.51260516282E+03  0.52253831483E+03  0.00000000000E+00 0. -1.
<mgrwt>
<rscale>  0 0.81068085E+02</rscale>
<asrwt>0</asrwt>
<pdfrwt beam="1">  1        2 0.89819073E-01 0.96771294E+02</pdfrwt>
<pdfrwt beam="2">  1        1 0.88666277E-01 0.67913057E+02</pdfrwt>
<totfact> 0.28286573E+02</totfact>
</mgrwt>
</event>
<event>
 7    1  0.5277388E-004  0.1807309E+03  0.7546771E-02  0.1312511E+00
         -2   -1    0    0    0  501  0.00000000000E+00  0.00000000000E+00  0.15327486090E+03  0.15327486090E+03  0.00000000000E+00 0.  1.
         -1   -1    0    0    0  502 -0.00000000000E+00 -0.00000000000E+00 -0.48095652222E+03  0.48095652222E+03  0.00000000000E+00 0.  1.
         25    2    1    2    0    0  0.13773509786E+03 -0.89672086218E+02 -0.34220083685E+02  0.20926341399E+03  0.12493247007E+03 0.  0.
          4    1    3    3  503    0  0.21892554615E+02  0.19209804278E+02  0.26188073848E+02  0.39188373784E+02  0.12700000000E+01 0. -1.
         -4    1    3    3    0  503  0.11584254324E+03 -0.10888189050E+03 -0.60408157533E+02  0.17007504020E+03  0.12700000000E+01 0. -1.
         -2    1    1    2    0  502  0.40396392611E+02 -0.72602502722E+01 -0.19547787621E+03  0.19974028101E+03  0.00000000000E+00 0.  1.
         -1    1    1    2    0  501 -0.17813149047E+03  0.96932336490E+02 -0.97983701423E+02  0.22522768813E+03  0.00000000000E+00 0.  1.
<mgrwt>
<rscale>  0 0.86126966E+02</rscale>
<asrwt>0</asrwt>
<pdfrwt beam="1">  1       -2 0.23580748E-01 0.18073094E+03</pdfrwt>
<pdfrwt beam="2">  1       -1 0.73993311E-01 0.41043633E+02</pdfrwt>
<totfact> 0.23346335E+02</totfact>
</mgrwt>
</event>
<event>
 7    1  0.5277388E-004  0.9180191E+02  0.7546771E-02  0.1334102E+00
          2   -1    0    0  503    0  0.00000000000E+00  0.00000000000E+00  0.66142813142E+02  0.66142813142E+02  0.00000000000E+00 0. -1.
          1   -1    0    0  502    0 -0.00000000000E+00 -0.00000000000E+00 -0.22593797247E+04  0.22593797247E+04  0.00000000000E+00 0. -1.
         25    2    1    2    0    0  0.44083168599E+02  0.37106064726E+02 -0.45281674693E+03  0.47327374391E+03  0.12499937832E+03 0.  0.
          4    1    3    3  501    0  0.77946439281E+02  0.57565437804E+02 -0.29216985431E+03  0.30782180510E+03  0.12700000000E+01 0.  1.
         -4    1    3    3    0  501 -0.33863270682E+02 -0.20459373077E+02 -0.16064689261E+03  0.16545193881E+03  0.12700000000E+01 0.  1.
          2    1    1    2  502    0 -0.14729216299E+02 -0.96991653194E+02 -0.17745985331E+04  0.17773081568E+04  0.00000000000E+00 0. -1.
          1    1    1    2  503    0 -0.29353952300E+02  0.59885588468E+02  0.34178368464E+02  0.74940637125E+02  0.00000000000E+00 0. -1.
<mgrwt>
<rscale>  0 0.78246611E+02</rscale>
<asrwt>0</asrwt>
<pdfrwt beam="1">  1        2 0.10175817E-01 0.66692865E+02</pdfrwt>
<pdfrwt beam="2">  1        1 0.34759689E+00 0.91801905E+02</pdfrwt>
<totfact> 0.20634011E+02</totfact>
</mgrwt>
</event>
<event>
 7    1  0.5277388E-004  0.7878303E+02  0.7546771E-02  0.1458567E+00
          1   -1    0    0  502    0 -0.00000000000E+00  0.00000000000E+00  0.24509450345E+03  0.24509450345E+03  0.00000000000E+00 0. -1.
          2   -1    0    0  503    0  0.00000000000E+00 -0.00000000000E+00 -0.24011646704E+04  0.24011646704E+04  0.00000000000E+00 0. -1.
         25    2    1    2    0    0 -0.59508475360E+02 -0.87600028097E+02  0.55181040176E+01  0.16392162347E+03  0.12499930242E+03 0.  0.
          4    1    3    3  501    0 -0.87050097191E+02 -0.35613042171E+02 -0.25423679547E+02  0.97437080084E+02  0.12700000000E+01 0. -1.
         -4    1    3    3    0  501  0.27541621831E+02 -0.51986985926E+02  0.30941783564E+02  0.66484543383E+02  0.12700000000E+01 0. -1.
          2    1    1    2  502    0  0.91156356097E+01  0.27313482071E+02  0.15841168093E+03  0.16100739663E+03  0.00000000000E+00 0. -1.
          1    1    1    2  503    0  0.50392839751E+02  0.60286546026E+02 -0.23199999519E+04  0.23213301537E+04  0.00000000000E+00 0. -1.
<mgrwt>
<rscale>  0 0.47628930E+02</rscale>
<asrwt>0</asrwt>
<pdfrwt beam="2">  1        2 0.36940995E+00 0.78783027E+02</pdfrwt>
<pdfrwt beam="1">  1        1 0.37706846E-01 0.28794463E+02</pdfrwt>
<totfact> 0.80143091E+01</totfact>
</mgrwt>
</event>
<event>
 7    1  0.5277388E-004  0.4239575E+02  0.7546771E-02  0.1496189E+00
          2   -1    0    0  503    0  0.00000000000E+00  0.00000000000E+00  0.85217594989E+03  0.85217594989E+03  0.00000000000E+00 0. -1.
         -2   -1    0    0    0  501 -0.00000000000E+00 -0.00000000000E+00 -0.72586836332E+03  0.72586836332E+03  0.00000000000E+00 0.  1.
         25    2    1    2    0    0 -0.33572816208E+02 -0.73020354840E+02  0.51030733305E+02  0.15711834379E+03  0.12499172775E+03 0.  0.
          4    1    3    3  502    0 -0.29952380618E+01 -0.10261325086E+03  0.50801104664E+02  0.11454612974E+03  0.12700000000E+01 0.  1.
         -4    1    3    3    0  502 -0.30577578146E+02  0.29592896021E+02  0.22962864088E+00  0.42572214054E+02  0.12700000000E+01 0.  1.
          1    1    1    2  503    0  0.68410668141E+01  0.40404489661E+02  0.74687837842E+03  0.74800176145E+03  0.00000000000E+00 0. -1.
         -1    1    1    2    0  501  0.26731749394E+02  0.32615865178E+02 -0.67160152515E+03  0.67292420797E+03  0.00000000000E+00 0.  1.
<mgrwt>
<rscale>  0 0.41681635E+02</rscale>
<asrwt>0</asrwt>
<pdfrwt beam="1">  1        2 0.13110399E+00 0.40979543E+02</pdfrwt>
<pdfrwt beam="2">  1       -2 0.11167206E+00 0.42395755E+02</pdfrwt>
<totfact> 0.25130398E+01</totfact>
</mgrwt>
</event>
<event>
 7    1  0.5277388E-004  0.1456213E+03  0.7546771E-02  0.1356808E+00
         -2   -1    0    0    0  501 -0.00000000000E+00  0.00000000000E+00  0.93487614304E+03  0.93487614304E+03  0.00000000000E+00 0.  1.
          2   -1    0    0  503    0  0.00000000000E+00 -0.00000000000E+00 -0.14647367517E+04  0.14647367517E+04  0.00000000000E+00 0. -1.
         25    2    1    2    0    0 -0.75899221450E+02  0.10904507664E+03  0.60285194297E+03  0.62984618067E+03  0.12499690240E+03 0.  0.
          4    1    3    3  502    0  0.50234925727E+01  0.45428891045E+02  0.51086343811E+02  0.68559806324E+02  0.12700000000E+01 0. -1.
         -4    1    3    3    0  502 -0.80922714022E+02  0.63616185591E+02  0.55176559915E+03  0.56128637434E+03  0.12700000000E+01 0. -1.
          1    1    1    2  503    0  0.53608335978E+02 -0.13549867115E+03 -0.14466292285E+04  0.14539497476E+04  0.00000000000E+00 0. -1.
         -1    1    1    2    0  501  0.22290885472E+02  0.26453594511E+02  0.31391667696E+03  0.31581696647E+03  0.00000000000E+00 0.  1.
<mgrwt>
<rscale>  0 0.70975207E+02</rscale>
<asrwt>0</asrwt>
<pdfrwt beam="2">  1        2 0.22534412E+00 0.14562133E+03</pdfrwt>
<pdfrwt beam="1">  1       -2 0.14382710E+00 0.34593009E+02</pdfrwt>
<totfact> 0.58900898E+00</totfact>
</mgrwt>
</event>
<event>
 7    1  0.5277388E-004  0.1553913E+03  0.7546771E-02  0.1285755E+00
          2   -1    0    0  503    0  0.00000000000E+00  0.00000000000E+00  0.25418882570E+03  0.25418882570E+03  0.00000000000E+00 0. -1.
         -2   -1    0    0    0  501 -0.00000000000E+00 -0.00000000000E+00 -0.18912694745E+03  0.18912694745E+03  0.00000000000E+00 0.  1.
         25    2    1    2    0    0  0.17775399541E+03 -0.63973640208E+02  0.33072469620E+02  0.22892739625E+03  0.12499941993E+03 0.  0.
          4    1    3    3  502    0  0.19734630314E+03 -0.61490577797E+02  0.29165233570E+02  0.20875554668E+03  0.12700000000E+01 0.  1.
         -4    1    3    3    0  502 -0.19592307738E+02 -0.24830624115E+01  0.39072360498E+01  0.20171849568E+02  0.12700000000E+01 0.  1.
          3    1    1    2  503    0 -0.38642912663E+02  0.47342476676E+02  0.41648779281E+02  0.73954077727E+02  0.00000000000E+00 0. -1.
         -3    1    1    2    0  501 -0.13911108274E+03  0.16631163532E+02 -0.96593706468E+01  0.14043429917E+03  0.00000000000E+00 0.  1.
<mgrwt>
<rscale>  0 0.97448232E+02</rscale>
<asrwt>0</asrwt>
<pdfrwt beam="1">  1        2 0.39105973E-01 0.61111249E+02</pdfrwt>
<pdfrwt beam="2">  1       -2 0.29096453E-01 0.15539132E+03</pdfrwt>
<totfact> 0.13803397E+03</totfact>
</mgrwt>
</event>
<event>
 7    1  0.5277388E-004  0.4974643E+02  0.7546771E-02  0.1446963E+00
          2   -1    0    0  503    0  0.00000000000E+00  0.00000000000E+00  0.22669160512E+03  0.22669160512E+03  0.00000000000E+00 0. -1.
          1   -1    0    0  502    0 -0.00000000000E+00 -0.00000000000E+00 -0.13576973676E+03  0.13576973676E+03  0.00000000000E+00 0. -1.
         25    2    1    2    0    0  0.17202629333E+02 -0.13195395831E+02  0.11498052878E+03  0.17122269234E+03  0.12500655761E+03 0.  0.
          4    1    3    3  501    0  0.51995238678E+02 -0.12001072078E+02  0.24612340574E+01  0.53434082282E+02  0.12700000000E+01 0. -1.
         -4    1    3    3    0  501 -0.34792609346E+02 -0.11943237526E+01  0.11251929472E+03  0.11778861006E+03  0.12700000000E+01 0. -1.
          2    1    1    2  502    0  0.17490134004E+02  0.48720041203E+02 -0.92905790690E+02  0.10635334102E+03  0.00000000000E+00 0. -1.
          1    1    1    2  503    0 -0.34692763337E+02 -0.35524645373E+02  0.68847130266E+02  0.84885308521E+02  0.00000000000E+00 0. -1.
<mgrwt>
<rscale>  0 0.49700538E+02</rscale>
<asrwt>0</asrwt>
<pdfrwt beam="1">  1        2 0.34875632E-01 0.49654690E+02</pdfrwt>
<pdfrwt beam="2">  1        1 0.20887652E-01 0.49746428E+02</pdfrwt>
<totfact> 0.44528350E+03</totfact>
</mgrwt>
</event>
<event>
 7    1  0.5277388E-004  0.4874684E+02  0.7546771E-02  0.1469407E+00
          2   -1    0    0  503    0  0.00000000000E+00  0.00000000000E+00  0.62137815750E+03  0.62137815750E+03  0.00000000000E+00 0. -1.
         -2   -1    0    0    0  501 -0.00000000000E+00 -0.00000000000E+00 -0.26677264302E+03  0.26677264302E+03  0.00000000000E+00 0.  1.
         25    2    1    2    0    0  0.78826248614E+02  0.28607948093E+02  0.22881074037E+03  0.27388222606E+03  0.12500050671E+03 0.  0.
          4    1    3    3  502    0 -0.17012628008E+01  0.60191923353E+02  0.64888609392E+02  0.88533081167E+02  0.12700000000E+01 0. -1.
         -4    1    3    3    0  502  0.80527511415E+02 -0.31583975260E+02  0.16392213098E+03  0.18534914489E+03  0.12700000000E+01 0. -1.
          1    1    1    2  503    0 -0.35817882629E+02 -0.30020762771E+02  0.36664137688E+03  0.36960798985E+03  0.00000000000E+00 0. -1.
         -1    1    1    2    0  501 -0.43008365985E+02  0.14128146787E+01 -0.24084660278E+03  0.24466058461E+03  0.00000000000E+00 0.  1.
<mgrwt>
<rscale>  0 0.45800142E+02</rscale>
<asrwt>0</asrwt>
<pdfrwt beam="1">  1        2 0.95596639E-01 0.48746845E+02</pdfrwt>
<pdfrwt beam="2">  1       -2 0.41041945E-01 0.43031565E+02</pdfrwt>
<totfact> 0.28388076E+02</totfact>
</mgrwt>
</event>
<event>
 7    1  0.5277388E-004  0.7535281E+02  0.7546771E-02  0.1473646E+00
          2   -1    0    0  503    0  0.00000000000E+00  0.00000000000E+00  0.55011849019E+03  0.55011849019E+03  0.00000000000E+00 0. -1.
         -2   -1    0    0    0  501 -0.00000000000E+00 -0.00000000000E+00 -0.17184457950E+03  0.17184457950E+03  0.00000000000E+00 0.  1.
         25    2    1    2    0    0 -0.90104366864E+02  0.37053492073E+02  0.26798349514E+03  0.31133345546E+03  0.12498643375E+03 0.  0.
          4    1    3    3  502    0 -0.10002258301E+03  0.20948906158E+02  0.10242172990E+03  0.14469000462E+03  0.12700000000E+01 0.  1.
         -4    1    3    3    0  502  0.99182161486E+01  0.16104585916E+02  0.16556176524E+03  0.16664345084E+03  0.12700000000E+01 0.  1.
          1    1    1    2  503    0  0.64587523582E+02 -0.28206335295E+02  0.25441500136E+03  0.26399647435E+03  0.00000000000E+00 0. -1.
         -1    1    1    2    0  501  0.25516843282E+02 -0.88471567788E+01 -0.14412458581E+03  0.14663313987E+03  0.00000000000E+00 0.  1.
<mgrwt>
<rscale>  0 0.45111617E+02</rscale>
<asrwt>0</asrwt>
<pdfrwt beam="1">  1        2 0.84633613E-01 0.75352806E+02</pdfrwt>
<pdfrwt beam="2">  1       -2 0.26437628E-01 0.27007063E+02</pdfrwt>
<totfact> 0.68876998E+02</totfact>
</mgrwt>
</event>
<event>
 7    1  0.5277388E-004  0.5516186E+02  0.7546771E-02  0.1504137E+00
         -1   -1    0    0    0  501 -0.00000000000E+00  0.00000000000E+00  0.15425089802E+02  0.15425089802E+02  0.00000000000E+00 0.  1.
          1   -1    0    0  503    0  0.00000000000E+00 -0.00000000000E+00 -0.16810926309E+04  0.16810926309E+04  0.00000000000E+00 0. -1.
         25    2    1    2    0    0  0.18439331813E+02 -0.44165386995E+02 -0.46372012294E+03  0.48265124378E+03  0.12500112133E+03 0.  0.
          4    1    3    3  502    0  0.52533348034E+02  0.11406690431E+02 -0.32438785796E+03  0.32881447737E+03  0.12700000000E+01 0. -1.
         -4    1    3    3    0  502 -0.34094016220E+02 -0.55572077426E+02 -0.13933226499E+03  0.15383676640E+03  0.12700000000E+01 0. -1.
          2    1    1    2  503    0  0.91761616958E+01  0.55423430240E+02 -0.11651423847E+04  0.11664959217E+04  0.00000000000E+00 0. -1.
         -2    1    1    2    0  501 -0.27615493509E+02 -0.11258043245E+02 -0.36805033396E+02  0.47370555230E+02  0.00000000000E+00 0.  1.
<mgrwt>
<rscale>  0 0.40559138E+02</rscale>
<asrwt>0</asrwt>
<pdfrwt beam="2">  1        1 0.25862962E+00 0.55161858E+02</pdfrwt>
<pdfrwt beam="1">  1       -1 0.23730909E-02 0.29822123E+02</pdfrwt>
<totfact> 0.25702118E+03</totfact>
</mgrwt>
</event>
<event>
 7    1  0.5277388E-004  0.1331537E+03  0.7546771E-02  0.1308178E+00
         -2   -1    0    0    0  501 -0.00000000000E+00  0.00000000000E+00  0.15128656616E+04  0.15128656616E+04  0.00000000000E+00 0.  1.
          2   -1    0    0  503    0  0.00000000000E+00 -0.00000000000E+00 -0.39132882401E+03  0.39132882401E+03  0.00000000000E+00 0. -1.
         25    2    1    2    0    0  0.17746326423E+03 -0.13665759476E+02  0.18945693778E+03  0.28844076922E+03  0.12499673171E+03 0.  0.
          4    1    3    3  502    0  0.15740974159E+03 -0.79974360182E+01  0.79524406460E+02  0.17654328040E+03  0.12700000000E+01 0. -1.
         -4    1    3    3    0  502  0.20053522641E+02 -0.56683234574E+01  0.10993253132E+03  0.11189748882E+03  0.12700000000E+01 0. -1.
          1    1    1    2  503    0 -0.12962141650E+03 -0.19021127192E+02 -0.32859459282E+03  0.35374838703E+03  0.00000000000E+00 0. -1.
         -1    1    1    2    0  501 -0.47841847729E+02  0.32686886667E+02  0.12606744926E+04  0.12620053293E+04  0.00000000000E+00 0.  1.
<mgrwt>
<rscale>  0 0.87836145E+02</rscale>
<asrwt>0</asrwt>
<pdfrwt beam="2">  1        2 0.60204435E-01 0.13315365E+03</pdfrwt>
<pdfrwt beam="1">  1       -2 0.23274856E+00 0.57941996E+02</pdfrwt>
<totfact> 0.85497047E+00</totfact>
</mgrwt>
</event>
<event>
 7    1  0.5277388E-004  0.1768772E+03  0.7546771E-02  0.1189032E+00
          2   -1    0    0  503    0  0.00000000000E+00  0.00000000000E+00  0.27309182673E+04  0.27309182673E+04  0.00000000000E+00 0. -1.
         -2   -1    0    0    0  501 -0.00000000000E+00 -0.00000000000E+00 -0.73651494827E+02  0.73651494827E+02  0.00000000000E+00 0.  1.
         25    2    1    2    0    0  0.21555341974E+02 -0.12432473756E+03  0.23202932422E+03  0.29220464250E+03  0.12499869063E+03 0.  0.
          4    1    3    3  502    0  0.22490485987E+02 -0.27083979411E+02 -0.53909569881E+01  0.35637609599E+02  0.12700000000E+01 0. -1.
         -4    1    3    3    0  502 -0.93514401222E+00 -0.97240758153E+02  0.23742028121E+03  0.25656703290E+03  0.12700000000E+01 0. -1.
          1    1    1    2  503    0  0.90433193578E+02 -0.11231542053E+03  0.20486413829E+04  0.20537099191E+04  0.00000000000E+00 0. -1.
         -1    1    1    2    0  501 -0.11198853555E+03  0.23664015809E+03  0.37659606539E+03  0.45865520054E+03  0.00000000000E+00 0.  1.
<mgrwt>
<rscale>  0 0.15970361E+03</rscale>
<asrwt>0</asrwt>
<pdfrwt beam="1">  1        2 0.42014119E+00 0.14419749E+03</pdfrwt>
<pdfrwt beam="2">  1       -2 0.11331001E-01 0.17687715E+03</pdfrwt>
<totfact> 0.17321192E+02</totfact>
</mgrwt>
</event>
<event>
 7    1  0.5277388E-004  0.8177348E+02  0.7546771E-02  0.1360317E+00
          1   -1    0    0  502    0 -0.00000000000E+00  0.00000000000E+00  0.15455207786E+03  0.15455207786E+03  0.00000000000E+00 0. -1.
          2   -1    0    0  503    0  0.00000000000E+00 -0.00000000000E+00 -0.38877691953E+04  0.38877691953E+04  0.00000000000E+00 0. -1.
         25    2    1    2    0    0 -0.32923095309E+02 -0.62391714262E+02 -0.14850570694E+04  0.14919783739E+04  0.12501325005E+03 0.  0.
          4    1    3    3  501    0  0.40180641209E+02 -0.12186412790E+02 -0.81431978842E+03  0.81540255291E+03  0.12700000000E+01 0.  1.
         -4    1    3    3    0  501 -0.73103736518E+02 -0.50205301472E+02 -0.67073728099E+03  0.67657582102E+03  0.12700000000E+01 0.  1.
          2    1    1    2  502    0 -0.24762594193E+02  0.78186624782E+02  0.13955972214E+03  0.16187418080E+03  0.00000000000E+00 0. -1.
          1    1    1    2  503    0  0.57685689502E+02 -0.15794910520E+02 -0.23877197702E+04  0.23884687185E+04  0.00000000000E+00 0. -1.
<mgrwt>
<rscale>  0 0.69934192E+02</rscale>
<asrwt>0</asrwt>
<pdfrwt beam="2">  1        2 0.59811834E+00 0.59809012E+02</pdfrwt>
<pdfrwt beam="1">  1        1 0.23777243E-01 0.81773481E+02</pdfrwt>
<totfact> 0.20023526E+01</totfact>
</mgrwt>
</event>
<event>
 7    1  0.5277388E-004  0.6173936E+02  0.7546771E-02  0.1396348E+00
          2   -1    0    0  503    0  0.00000000000E+00  0.00000000000E+00  0.30249146751E+04  0.30249146751E+04  0.00000000000E+00 0. -1.
         -2   -1    0    0    0  501 -0.00000000000E+00 -0.00000000000E+00 -0.89980717929E+01  0.89980717929E+01  0.00000000000E+00 0.  1.
         25    2    1    2    0    0 -0.82531246644E+02 -0.28086107109E+02  0.16944394761E+04  0.17012784935E+04  0.12499255340E+03 0.  0.
          4    1    3    3  502    0 -0.48953938073E+02  0.48220032335E+02  0.81808050685E+03  0.82096223309E+03  0.12700000000E+01 0. -1.
         -4    1    3    3    0  502 -0.33577308571E+02 -0.76306139444E+02  0.87635896921E+03  0.88031626043E+03  0.12700000000E+01 0. -1.
          1    1    1    2  503    0  0.53191271480E+02 -0.25532240548E+02  0.11321355727E+04  0.11336719815E+04  0.00000000000E+00 0. -1.
         -1    1    1    2    0  501  0.29339975164E+02  0.53618347657E+02  0.18934155450E+03  0.19896227182E+03  0.00000000000E+00 0.  1.
<mgrwt>
<rscale>  0 0.60355037E+02</rscale>
<asrwt>0</asrwt>
<pdfrwt beam="1">  1        2 0.46537068E+00 0.59001751E+02</pdfrwt>
<pdfrwt beam="2">  1       -2 0.13843211E-02 0.61739362E+02</pdfrwt>
<totfact> 0.27748013E+03</totfact>
</mgrwt>
</event>
<event>
 7    1  0.5277388E-004  0.1911863E+03  0.7546771E-02  0.1273828E+00
          1   -1    0    0  502    0 -0.00000000000E+00  0.00000000000E+00  0.56136261169E+03  0.56136261169E+03  0.00000000000E+00 0. -1.
          2   -1    0    0  503    0  0.00000000000E+00 -0.00000000000E+00 -0.90046586475E+03  0.90046586475E+03  0.00000000000E+00 0. -1.
         25    2    1    2    0    0  0.10096478500E+03  0.10191742552E+03 -0.29236505317E+03  0.34883111646E+03  0.12499909623E+03 0.  0.
          4    1    3    3  501    0  0.93107871550E+02  0.63095580183E+02 -0.28772702552E+03  0.30893135500E+03  0.12700000000E+01 0.  1.
         -4    1    3    3    0  501  0.78569134536E+01  0.38821845339E+02 -0.46380276510E+01  0.39899761466E+02  0.12700000000E+01 0.  1.
          2    1    1    2  502    0 -0.15446874530E+03 -0.11719167966E+03  0.51407804714E+03  0.54942763091E+03  0.00000000000E+00 0. -1.
          1    1    1    2  503    0  0.53503960300E+02  0.15274254135E+02 -0.56081624702E+03  0.56356972908E+03  0.00000000000E+00 0. -1.
<mgrwt>
<rscale>  0 0.10314017E+03</rscale>
<asrwt>0</asrwt>
<pdfrwt beam="2">  1        2 0.13853321E+00 0.55641501E+02</pdfrwt>
<pdfrwt beam="1">  1        1 0.86363479E-01 0.19118634E+03</pdfrwt>
<totfact> 0.17394769E+02</totfact>
</mgrwt>
</event>
<event>
 7    1  0.5277388E-004  0.1299563E+03  0.7546771E-02  0.1246170E+00
          1   -1    0    0  502    0 -0.00000000000E+00  0.00000000000E+00  0.58366268633E+03  0.58366268633E+03  0.00000000000E+00 0. -1.
          2   -1    0    0  503    0  0.00000000000E+00 -0.00000000000E+00 -0.94690048995E+03  0.94690048995E+03  0.00000000000E+00 0. -1.
         25    2    1    2    0    0  0.11195769572E+03  0.20697830085E+03 -0.39234729285E+03  0.47427381968E+03  0.12499886070E+03 0.  0.
          4    1    3    3  501    0  0.44276841354E+02  0.44070581428E+02 -0.21591771822E+03  0.22477706460E+03  0.12700000000E+01 0.  1.
         -4    1    3    3    0  501  0.67680854363E+02  0.16290771942E+03 -0.17642957463E+03  0.24949675509E+03  0.12700000000E+01 0.  1.
          2    1    1    2  502    0 -0.56531193005E+02 -0.11495326925E+03  0.52935721077E+03  0.54463665548E+03  0.00000000000E+00 0. -1.
          1    1    1    2  503    0 -0.55426502713E+02 -0.92025031596E+02 -0.50024772155E+03  0.51165270111E+03  0.00000000000E+00 0. -1.
<mgrwt>
<rscale>  0 0.11815624E+03</rscale>
<asrwt>0</asrwt>
<pdfrwt beam="2">  1        2 0.14567700E+00 0.10742767E+03</pdfrwt>
<pdfrwt beam="1">  1        1 0.89794260E-01 0.12995625E+03</pdfrwt>
<totfact> 0.15178698E+02</totfact>
</mgrwt>
</event>
<event>
 7    1  0.5277388E-004  0.4679487E+02  0.7546771E-02  0.1525339E+00
          1   -1    0    0  502    0 -0.00000000000E+00  0.00000000000E+00  0.51892849015E+03  0.51892849015E+03  0.00000000000E+00 0. -1.
          2   -1    0    0  503    0  0.00000000000E+00 -0.00000000000E+00 -0.21761771450E+04  0.21761771450E+04  0.00000000000E+00 0. -1.
         25    2    1    2    0    0  0.49892781738E+02 -0.19424667822E+02  0.27327322418E+02  0.13870473733E+03  0.12500245685E+03 0.  0.
          4    1    3    3  501    0 -0.61061850806E+01 -0.57020236883E+02  0.40176893756E+02  0.70031340143E+02  0.12700000000E+01 0. -1.
         -4    1    3    3    0  501  0.55998966819E+02  0.37595569061E+02 -0.12849571338E+02  0.68673397188E+02  0.12700000000E+01 0. -1.
          2    1    1    2  502    0 -0.23593892403E+02 -0.19291009436E+02  0.43512113690E+03  0.43618713711E+03  0.00000000000E+00 0. -1.
          1    1    1    2  503    0 -0.26298889335E+02  0.38715677258E+02 -0.21196971141E+04  0.21202137607E+04  0.00000000000E+00 0. -1.
<mgrwt>
<rscale>  0 0.37764298E+02</rscale>
<asrwt>0</asrwt>
<pdfrwt beam="2">  1        2 0.33479648E+00 0.46794873E+02</pdfrwt>
<pdfrwt beam="1">  1        1 0.79835153E-01 0.30476463E+02</pdfrwt>
<totfact> 0.45886488E+01</totfact>
</mgrwt>
</event>
<event>
 7    1  0.5277388E-004  0.9406486E+02  0.7546771E-02  0.1423917E+00
          1   -1    0    0  502    0 -0.00000000000E+00  0.00000000000E+00  0.18407052165E+04  0.18407052165E+04  0.00000000000E+00 0. -1.
          2   -1    0    0  503    0  0.00000000000E+00 -0.00000000000E+00 -0.99888114701E+02  0.99888114701E+02  0.00000000000E+00 0. -1.
         25    2    1    2    0    0 -0.11914809759E+03  0.74855515148E+01  0.18644492922E+03  0.25422658944E+03  0.12496857408E+03 0.  0.
          4    1    3    3  501    0  0.25073569816E+01 -0.41393395480E+02  0.39393881951E+02  0.57211807029E+02  0.12700000000E+01 0. -1.
         -4    1    3    3    0  501 -0.12165545457E+03  0.48878946995E+02  0.14705104727E+03  0.19701478242E+03  0.12700000000E+01 0. -1.
          2    1    1    2  502    0  0.90810579471E+02 -0.20613794618E+02  0.16152570985E+04  0.16179391163E+04  0.00000000000E+00 0. -1.
          1    1    1    2  503    0  0.28337518120E+02  0.13128243103E+02 -0.60884925992E+02  0.68427625366E+02  0.00000000000E+00 0. -1.
<mgrwt>
<rscale>  0 0.54200784E+02</rscale>
<asrwt>0</asrwt>
<pdfrwt beam="2">  1        2 0.15367404E-01 0.31230845E+02</pdfrwt>
<pdfrwt beam="1">  1        1 0.28318539E+00 0.94064857E+02</pdfrwt>
<totfact> 0.22272610E+02</totfact>
</mgrwt>
</event>
<event>
 7    1  0.5277388E-004  0.1426255E+03  0.7546771E-02  0.1269955E+00
          2   -1    0    0  503    0  0.00000000000E+00  0.00000000000E+00  0.12552821688E+04  0.12552821688E+04  0.00000000000E+00 0. -1.
         -2   -1    0    0    0  501 -0.00000000000E+00 -0.00000000000E+00 -0.42295336447E+03  0.42295336447E+03  0.00000000000E+00 0.  1.
         25    2    1    2    0    0  0.66654602433E+02 -0.11368730510E+03  0.16479520693E+03  0.24525409593E+03  0.12499788789E+03 0.  0.
          4    1    3    3  502    0  0.36268298996E+02 -0.65115262786E+02  0.41135124331E+01  0.74658695705E+02  0.12700000000E+01 0. -1.
         -4    1    3    3    0  502  0.30386303437E+02 -0.48572042310E+02  0.16068169450E+03  0.17059540022E+03  0.12700000000E+01 0. -1.
          1    1    1    2  503    0  0.61617147249E+02  0.46880136851E+02  0.10350967969E+04  0.10379883424E+04  0.00000000000E+00 0. -1.
         -1    1    1    2    0  501 -0.12827174968E+03  0.66807168245E+02 -0.36756319943E+03  0.39499309497E+03  0.00000000000E+00 0.  1.
<mgrwt>
<rscale>  0 0.10508369E+03</rscale>
<asrwt>0</asrwt>
<pdfrwt beam="1">  1        2 0.19312033E+00 0.77423640E+02</pdfrwt>
<pdfrwt beam="2">  1       -2 0.65069749E-01 0.14262546E+03</pdfrwt>
<totfact> 0.46058125E+01</totfact>
</mgrwt>
</event>
<event>
 7    1  0.5277388E-004  0.5569866E+02  0.7546771E-02  0.1462840E+00
          1   -1    0    0  502    0 -0.00000000000E+00  0.00000000000E+00  0.12049831599E+04  0.12049831599E+04  0.00000000000E+00 0. -1.
          2   -1    0    0  503    0  0.00000000000E+00 -0.00000000000E+00 -0.28860114503E+02  0.28860114503E+02  0.00000000000E+00 0. -1.
         25    2    1    2    0    0 -0.31851939223E+02  0.14433489801E+02  0.50193130367E+03  0.51843639168E+03  0.12497354499E+03 0.  0.
          4    1    3    3  501    0 -0.10438693308E+02  0.13739188003E+02  0.49581913439E+03  0.49612091120E+03  0.12700000000E+01 0. -1.
         -4    1    3    3    0  501 -0.21413245915E+02  0.69430179840E+00  0.61121692865E+01  0.22315480478E+02  0.12700000000E+01 0. -1.
          2    1    1    2  502    0  0.27339816626E+02 -0.53659652618E+02  0.67322188764E+03  0.67591015223E+03  0.00000000000E+00 0. -1.
          1    1    1    2  503    0  0.45121225973E+01  0.39226162817E+02  0.96985404285E+00  0.39496730454E+02  0.00000000000E+00 0. -1.
<mgrwt>
<rscale>  0 0.46896181E+02</rscale>
<asrwt>0</asrwt>
<pdfrwt beam="2">  1        2 0.44400185E-02 0.39484821E+02</pdfrwt>
<pdfrwt beam="1">  1        1 0.18538199E+00 0.55698665E+02</pdfrwt>
<totfact> 0.26656710E+03</totfact>
</mgrwt>
</event>
<event>
 7    1  0.5277388E-004  0.5618182E+02  0.7546771E-02  0.1494968E+00
          1   -1    0    0  502    0 -0.00000000000E+00  0.00000000000E+00  0.36800831845E+03  0.36800831845E+03  0.00000000000E+00 0. -1.
          2   -1    0    0  503    0  0.00000000000E+00 -0.00000000000E+00 -0.49535755913E+03  0.49535755913E+03  0.00000000000E+00 0. -1.
         25    2    1    2    0    0 -0.23617335327E+02  0.11718440261E+02  0.76832191716E+02  0.14905359698E+03  0.12497475233E+03 0.  0.
          4    1    3    3  501    0  0.26400933130E+02 -0.23432812786E+02 -0.15285201092E+02  0.38488391206E+02  0.12700000000E+01 0.  1.
         -4    1    3    3    0  501 -0.50018268457E+02  0.35151253046E+02  0.92117392808E+02  0.11056520577E+03  0.12700000000E+01 0.  1.
          2    1    1    2  502    0 -0.31013064099E+02  0.32787271003E+01  0.25235483373E+03  0.25427450188E+03  0.00000000000E+00 0. -1.
          1    1    1    2  503    0  0.54630399426E+02 -0.14997167361E+02 -0.45653626612E+03  0.46003777873E+03  0.00000000000E+00 0. -1.
<mgrwt>
<rscale>  0 0.41857859E+02</rscale>
<asrwt>0</asrwt>
<pdfrwt beam="2">  1        2 0.76208855E-01 0.56181818E+02</pdfrwt>
<pdfrwt beam="1">  1        1 0.56616665E-01 0.31185897E+02</pdfrwt>
<totfact> 0.60148924E+02</totfact>
</mgrwt>
</event>
<event>
 7    1  0.5277388E-004  0.5885310E+02  0.7546771E-02  0.1518348E+00
          1   -1    0    0  502    0 -0.00000000000E+00  0.00000000000E+00  0.44969939148E+03  0.44969939148E+03  0.00000000000E+00 0. -1.
          2   -1    0    0  503    0  0.00000000000E+00 -0.00000000000E+00 -0.15499905038E+03  0.15499905038E+03  0.00000000000E+00 0. -1.
         25    2    1    2    0    0  0.30389543106E+02  0.28923076381E+02  0.70014530616E+02  0.14928147188E+03  0.12499141839E+03 0.  0.
          4    1    3    3  501    0 -0.47468979721E+02 -0.28067523516E+01  0.29175741442E+02  0.55803393115E+02  0.12700000000E+01 0.  1.
         -4    1    3    3    0  501  0.77858522827E+02  0.31729828732E+02  0.40838789174E+02  0.93478078764E+02  0.12700000000E+01 0.  1.
          2    1    1    2  502    0 -0.26495300984E+02 -0.54011631664E+02  0.33594935110E+03  0.34129345706E+03  0.00000000000E+00 0. -1.
          1    1    1    2  503    0 -0.38942421225E+01  0.25088555283E+02 -0.11126354062E+03  0.11412351291E+03  0.00000000000E+00 0. -1.
<mgrwt>
<rscale>  0 0.38655151E+02</rscale>
<asrwt>0</asrwt>
<pdfrwt beam="2">  1        2 0.23846008E-01 0.25388988E+02</pdfrwt>
<pdfrwt beam="1">  1        1 0.69184521E-01 0.58853100E+02</pdfrwt>
<totfact> 0.15186358E+03</totfact>
</mgrwt>
</event>
<event>
 7    1  0.5277388E-004  0.6014623E+02  0.7546771E-02  0.1506992E+00
         -2   -1    0    0    0  501 -0.00000000000E+00  0.00000000000E+00  0.17687713191E+03  0.17687713191E+03  0.00000000000E+00 0.  1.
          2   -1    0    0  503    0  0.00000000000E+00 -0.00000000000E+00 -0.75505469677E+03  0.75505469677E+03  0.00000000000E+00 0. -1.
         25    2    1    2    0    0 -0.62973303875E+02 -0.12437876802E+02 -0.20949679152E+03  0.25225685687E+03  0.12499711357E+03 0.  0.
          4    1    3    3  502    0 -0.30153904382E+02  0.55543631339E+02 -0.75648675165E+02  0.98583405734E+02  0.12700000000E+01 0. -1.
         -4    1    3    3    0  502 -0.32819399493E+02 -0.67981508141E+02 -0.13384811636E+03  0.15367345114E+03  0.12700000000E+01 0. -1.
          1    1    1    2  503    0  0.44398579511E+01  0.26453408262E+02 -0.51799360378E+03  0.51868764079E+03  0.00000000000E+00 0. -1.
         -1    1    1    2    0  501  0.58533445924E+02 -0.14015531459E+02  0.14931283044E+03  0.16098733102E+03  0.00000000000E+00 0.  1.
<mgrwt>
<rscale>  0 0.40166238E+02</rscale>
<asrwt>0</asrwt>
<pdfrwt beam="2">  1        2 0.11616226E+00 0.26823407E+02</pdfrwt>
<pdfrwt beam="1">  1       -2 0.27211866E-01 0.60146226E+02</pdfrwt>
<totfact> 0.49008527E+02</totfact>
</mgrwt>
</event>
<event>
 7    1  0.5277388E-004  0.6872456E+02  0.7546771E-02  0.1430839E+00
          2   -1    0    0  503    0  0.00000000000E+00  0.00000000000E+00  0.10878052384E+04  0.10878052384E+04  0.00000000000E+00 0. -1.
          1   -1    0    0  502    0 -0.00000000000E+00 -0.00000000000E+00 -0.63699867633E+03  0.63699867633E+03  0.00000000000E+00 0. -1.
         25    2    1    2    0    0  0.40324529645E+02 -0.12025673515E+02 -0.22242897304E+03  0.25860141768E+03  0.12501744144E+03 0.  0.
          4    1    3    3  501    0  0.83800659197E+01 -0.54758204661E+02 -0.39504069065E+02  0.68050502241E+02  0.12700000000E+01 0. -1.
         -4    1    3    3    0  501  0.31944463726E+02  0.42732531146E+02 -0.18292490397E+03  0.19055091544E+03  0.12700000000E+01 0. -1.
          2    1    1    2  502    0 -0.55783136714E+02  0.49516828540E+02 -0.39258631936E+03  0.39960942531E+03  0.00000000000E+00 0. -1.
          1    1    1    2  503    0  0.15458607069E+02 -0.37491155024E+02  0.10658218545E+04  0.10665930718E+04  0.00000000000E+00 0. -1.
<mgrwt>
<rscale>  0 0.52791999E+02</rscale>
<asrwt>0</asrwt>
<pdfrwt beam="1">  1        2 0.16735465E+00 0.40553116E+02</pdfrwt>
<pdfrwt beam="2">  1        1 0.97999797E-01 0.68724562E+02</pdfrwt>
<totfact> 0.12058123E+02</totfact>
</mgrwt>
</event>
<event>
 7    1  0.5277388E-004  0.1028390E+03  0.7546771E-02  0.1321987E+00
          1   -1    0    0  502    0 -0.00000000000E+00  0.00000000000E+00  0.44736888886E+02  0.44736888886E+02  0.00000000000E+00 0. -1.
          2   -1    0    0  503    0  0.00000000000E+00 -0.00000000000E+00 -0.10584356499E+04  0.10584356499E+04  0.00000000000E+00 0. -1.
         25    2    1    2    0    0  0.60786957836E+02 -0.87577421602E+02 -0.49430177443E+03  0.52088853967E+03  0.12500307015E+03 0.  0.
          4    1    3    3  501    0  0.85223533112E+02 -0.17619571555E+02 -0.31673170449E+03  0.32847235108E+03  0.12700000000E+01 0. -1.
         -4    1    3    3    0  501 -0.24436575276E+02 -0.69957850047E+02 -0.17757006994E+03  0.19241618859E+03  0.12700000000E+01 0. -1.
          2    1    1    2  502    0  0.40728171299E+02  0.52254273321E+02 -0.16836153908E+02  0.68357509434E+02  0.00000000000E+00 0. -1.
          1    1    1    2  503    0 -0.10151512913E+03  0.35323148281E+02 -0.50256083268E+03  0.51392648967E+03  0.00000000000E+00 0. -1.
<mgrwt>
<rscale>  0 0.82542505E+02</rscale>
<asrwt>0</asrwt>
<pdfrwt beam="2">  1        2 0.16283624E+00 0.10283904E+03</pdfrwt>
<pdfrwt beam="1">  1        1 0.68825987E-02 0.66251740E+02</pdfrwt>
<totfact> 0.33231109E+03</totfact>
</mgrwt>
</event>
<event>
 7    1  0.5277388E-004  0.2114694E+03  0.7546771E-02  0.1236932E+00
          1   -1    0    0  502    0 -0.00000000000E+00  0.00000000000E+00  0.35932086334E+03  0.35932086334E+03  0.00000000000E+00 0. -1.
          2   -1    0    0  503    0  0.00000000000E+00 -0.00000000000E+00 -0.11267656178E+04  0.11267656178E+04  0.00000000000E+00 0. -1.
         25    2    1    2    0    0  0.45685771852E+02  0.15573353374E+03 -0.15216186941E+03  0.25518189265E+03  0.12499776220E+03 0.  0.
          4    1    3    3  501    0 -0.34644491055E+02  0.74972685382E+02 -0.10052822470E+03  0.13011026545E+03  0.12700000000E+01 0.  1.
         -4    1    3    3    0  501  0.80330262907E+02  0.80760848356E+02 -0.51633644714E+02  0.12507162721E+03  0.12700000000E+01 0.  1.
          2    1    1    2  502    0  0.56985696001E+02  0.44811172197E+02  0.28952789585E+03  0.29846576550E+03  0.00000000000E+00 0. -1.
          1    1    1    2  503    0 -0.10267146785E+03 -0.20054470593E+03 -0.90481078094E+03  0.93243882303E+03  0.00000000000E+00 0. -1.
<mgrwt>
<rscale>  0 0.12381561E+03</rscale>
<asrwt>0</asrwt>
<pdfrwt beam="2">  1        2 0.17334855E+00 0.21146938E+03</pdfrwt>
<pdfrwt beam="1">  1        1 0.55280134E-01 0.72494212E+02</pdfrwt>
<totfact> 0.21525639E+02</totfact>
</mgrwt>
</event>
<event>
 7    1  0.5277388E-004  0.8044558E+02  0.7546771E-02  0.1369995E+00
          2   -1    0    0  503    0  0.00000000000E+00  0.00000000000E+00  0.62462363910E+03  0.62462363910E+03  0.00000000000E+00 0. -1.
          1   -1    0    0  502    0 -0.00000000000E+00 -0.00000000000E+00 -0.21768309622E+04  0.21768309622E+04  0.00000000000E+00 0. -1.
         25    2    1    2    0    0  0.19560476397E+02 -0.25839027508E+02  0.10910181919E+03  0.16904176616E+03  0.12498657599E+03 0.  0.
          4    1    3    3  501    0  0.44102230932E+02  0.24823926217E+02  0.52360355889E+01  0.50894626972E+02  0.12700000000E+01 0. -1.
         -4    1    3    3    0  501 -0.24541754535E+02 -0.50662953724E+02  0.10386578360E+03  0.11814713919E+03  0.12700000000E+01 0. -1.
          2    1    1    2  502    0  0.48769983951E+02 -0.27690430240E+02 -0.21426118019E+04  0.21433456569E+04  0.00000000000E+00 0. -1.
          1    1    1    2  503    0 -0.68330460348E+02  0.53529457748E+02  0.48130265963E+03  0.48906717824E+03  0.00000000000E+00 0. -1.
<mgrwt>
<rscale>  0 0.67168495E+02</rscale>
<asrwt>0</asrwt>
<pdfrwt beam="1">  1        2 0.96095944E-01 0.80445578E+02</pdfrwt>
<pdfrwt beam="2">  1        1 0.33489707E+00 0.56082718E+02</pdfrwt>
<totfact> 0.21620091E+01</totfact>
</mgrwt>
</event>
<event>
 7    1  0.5277388E-004  0.1294437E+03  0.7546771E-02  0.1371648E+00
          1   -1    0    0  503    0  0.00000000000E+00  0.00000000000E+00  0.61939384336E+03  0.61939384336E+03  0.00000000000E+00 0. -1.
         -1   -1    0    0    0  501 -0.00000000000E+00 -0.00000000000E+00 -0.25713631191E+03  0.25713631191E+03  0.00000000000E+00 0.  1.
         25    2    1    2    0    0  0.51949130422E+02  0.15232777965E+03  0.16529780262E+03  0.26240073102E+03  0.12501326124E+03 0.  0.
          4    1    3    3  502    0  0.39391512587E+02 -0.40715725274E+01  0.65163697494E+02  0.76263945202E+02  0.12700000000E+01 0.  1.
         -4    1    3    3    0  502  0.12557617835E+02  0.15639935217E+03  0.10013410512E+03  0.18613678582E+03  0.12700000000E+01 0.  1.
          2    1    1    2  503    0 -0.96444479855E+01 -0.33000398566E+02  0.38549754435E+03  0.38702764550E+03  0.00000000000E+00 0. -1.
         -2    1    1    2    0  501 -0.42304682436E+02 -0.11932738108E+03 -0.18853781551E+03  0.22710177875E+03  0.00000000000E+00 0.  1.
<mgrwt>
<rscale>  0 0.66711190E+02</rscale>
<asrwt>0</asrwt>
<pdfrwt beam="1">  1        1 0.95291360E-01 0.34380833E+02</pdfrwt>
<pdfrwt beam="2">  1       -1 0.39559433E-01 0.12944372E+03</pdfrwt>
<totfact> 0.22947495E+02</totfact>
</mgrwt>
</event>
<event>
 7    1  0.5277388E-004  0.7134340E+02  0.7546771E-02  0.1385147E+00
          1   -1    0    0  503    0  0.00000000000E+00  0.00000000000E+00  0.14170577354E+03  0.14170577354E+03  0.00000000000E+00 0. -1.
         -1   -1    0    0    0  501 -0.00000000000E+00 -0.00000000000E+00 -0.42005097261E+03  0.42005097261E+03  0.00000000000E+00 0.  1.
         25    2    1    2    0    0 -0.37886792377E+02 -0.99699560863E+02 -0.38881061226E+02  0.16884710227E+03  0.12498878169E+03 0.  0.
          4    1    3    3  502    0 -0.17819264726E+02  0.11692355386E+02  0.29641203089E+02  0.36530140849E+02  0.12700000000E+01 0.  1.
         -4    1    3    3    0  502 -0.20067527651E+02 -0.11139191625E+03 -0.68522264315E+02  0.13231696142E+03  0.12700000000E+01 0.  1.
          2    1    1    2  503    0  0.50178213853E+02  0.45206539634E+02  0.58745667976E+02  0.89512780524E+02  0.00000000000E+00 0. -1.
         -2    1    1    2    0  501 -0.12291421476E+02  0.54493021230E+02 -0.29820980582E+03  0.30339686335E+03  0.00000000000E+00 0.  1.
<mgrwt>
<rscale>  0 0.63129931E+02</rscale>
<asrwt>0</asrwt>
<pdfrwt beam="1">  1        1 0.21800888E-01 0.71343395E+02</pdfrwt>
<pdfrwt beam="2">  1       -1 0.64623226E-01 0.55862048E+02</pdfrwt>
<totfact> 0.57199862E+02</totfact>
</mgrwt>
</event>
<event>
 7    1  0.5277388E-004  0.3538065E+02  0.7546771E-02  0.1596920E+00
          1   -1    0    0  502    0 -0.00000000000E+00  0.00000000000E+00  0.78504121715E+03  0.78504121715E+03  0.00000000000E+00 0. -1.
          2   -1    0    0  503    0  0.00000000000E+00 -0.00000000000E+00 -0.92330690473E+02  0.92330690473E+02  0.00000000000E+00 0. -1.
         25    2    1    2    0    0  0.26335243179E+01 -0.39804223839E+02 -0.25972006972E+02  0.13374164015E+03  0.12498387687E+03 0.  0.
          4    1    3    3  501    0 -0.21576293700E+02 -0.77859818016E+02 -0.34431177761E+02  0.87833971864E+02  0.12700000000E+01 0. -1.
         -4    1    3    3    0  501  0.24209818018E+02  0.38055594177E+02  0.84591707886E+01  0.45907668282E+02  0.12700000000E+01 0. -1.
          2    1    1    2  502    0 -0.23438971383E+02  0.10338355309E+02  0.70435090106E+03  0.70481661359E+03  0.00000000000E+00 0. -1.
          1    1    1    2  503    0  0.20805447065E+02  0.29465868530E+02  0.14331632597E+02  0.38813653896E+02  0.00000000000E+00 0. -1.
<mgrwt>
<rscale>  0 0.30105997E+02</rscale>
<asrwt>0</asrwt>
<pdfrwt beam="2">  1        2 0.14204722E-01 0.35380645E+02</pdfrwt>
<pdfrwt beam="1">  1        1 0.12077557E+00 0.25617708E+02</pdfrwt>
<totfact> 0.13558918E+03</totfact>
</mgrwt>
</event>
<event>
 7    1  0.5277388E-004  0.8393190E+02  0.7546771E-02  0.1328536E+00
          1   -1    0    0  503    0  0.00000000000E+00  0.00000000000E+00  0.25924364605E+03  0.25924364605E+03  0.00000000000E+00 0. -1.
         -1   -1    0    0    0  501 -0.00000000000E+00 -0.00000000000E+00 -0.18930352278E+03  0.18930352278E+03  0.00000000000E+00 0.  1.
         25    2    1    2    0    0  0.32923233858E+02 -0.64363754639E+02 -0.16792882253E+02  0.14538451394E+03  0.12501209446E+03 0.  0.
          4    1    3    3  502    0  0.51314558961E+02 -0.67393710879E+02  0.33985547255E+02  0.91278291777E+02  0.12700000000E+01 0.  1.
         -4    1    3    3    0  502 -0.18391325103E+02  0.30299562400E+01 -0.50778429508E+02  0.54106222167E+02  0.12700000000E+01 0.  1.
          2    1    1    2  503    0 -0.88667032982E+02  0.11827139781E+02  0.16871632106E+03  0.19096314033E+03  0.00000000000E+00 0. -1.
         -2    1    1    2    0  501  0.55743799124E+02  0.52536614858E+02 -0.81983315527E+02  0.11219951456E+03  0.00000000000E+00 0.  1.
<mgrwt>
<rscale>  0 0.80181872E+02</rscale>
<asrwt>0</asrwt>
<pdfrwt beam="1">  1        1 0.39883638E-01 0.83931900E+02</pdfrwt>
<pdfrwt beam="2">  1       -1 0.29123619E-01 0.76599393E+02</pdfrwt>
<totfact> 0.11070761E+03</totfact>
</mgrwt>
</event>
<event>
 7    1  0.5277388E-004  0.9632255E+02  0.7546771E-02  0.1365606E+00
          2   -1    0    0  503    0  0.00000000000E+00  0.00000000000E+00  0.23981577388E+04  0.23981577388E+04  0.00000000000E+00 0. -1.
         -2   -1    0    0    0  501 -0.00000000000E+00 -0.00000000000E+00 -0.25107746211E+02  0.25107746211E+02  0.00000000000E+00 0.  1.
         25    2    1    2    0    0  0.56458430920E+02  0.37694166356E+02  0.30367755808E+03  0.33534166989E+03  0.12500228670E+03 0.  0.
          4    1    3    3  502    0  0.89992403517E+02  0.49955874995E+01  0.15333797363E+03  0.17786999646E+03  0.12700000000E+01 0.  1.
         -4    1    3    3    0  502 -0.33533972597E+02  0.32698578856E+02  0.15033958445E+03  0.15747167342E+03  0.12700000000E+01 0.  1.
          1    1    1    2  503    0 -0.49507699467E+02 -0.85771946064E+02  0.20041675269E+04  0.20066128962E+04  0.00000000000E+00 0. -1.
         -1    1    1    2    0  501 -0.69507314522E+01  0.48077779708E+02  0.65204907542E+02  0.81310918928E+02  0.00000000000E+00 0.  1.
<mgrwt>
<rscale>  0 0.68404098E+02</rscale>
<asrwt>0</asrwt>
<pdfrwt beam="1">  1        2 0.36894716E+00 0.96322551E+02</pdfrwt>
<pdfrwt beam="2">  1       -2 0.38627321E-02 0.48577624E+02</pdfrwt>
<totfact> 0.12567646E+03</totfact>
</mgrwt>
</event>
<event>
 7    1  0.5277388E-004  0.3130375E+02  0.7546771E-02  0.1593860E+00
         -1   -1    0    0    0  502 -0.00000000000E+00  0.00000000000E+00  0.44581759964E+03  0.44581759964E+03  0.00000000000E+00 0.  1.
         -2   -1    0    0    0  501  0.00000000000E+00 -0.00000000000E+00 -0.82105611583E+02  0.82105611583E+02  0.00000000000E+00 0.  1.
         25    2    1    2    0    0  0.43532280428E+02  0.22066843092E+02  0.21224921159E+03  0.25111328081E+03  0.12500458782E+03 0.  0.
          4    1    3    3  503    0  0.16263285142E+01 -0.19418947240E+02 -0.94555900919E+01  0.21697039898E+02  0.12700000000E+01 0.  1.
         -4    1    3    3    0  503  0.41905951914E+02  0.41485790332E+02  0.22170480169E+03  0.22941624092E+03  0.12700000000E+01 0.  1.
         -2    1    1    2    0  502 -0.30451929478E+02  0.43694953353E+01  0.20947929015E+03  0.21172620409E+03  0.00000000000E+00 0.  1.
         -1    1    1    2    0  501 -0.13080350950E+02 -0.26436338428E+02 -0.58016513688E+02  0.65083726314E+02  0.00000000000E+00 0.  1.
<mgrwt>
<rscale>  0 0.30386100E+02</rscale>
<asrwt>0</asrwt>
<pdfrwt beam="2">  1       -2 0.12631633E-01 0.29495348E+02</pdfrwt>
<pdfrwt beam="1">  1       -1 0.68587322E-01 0.31303753E+02</pdfrwt>
<totfact> 0.68677825E+02</totfact>
</mgrwt>
</event>
<event>
 7    1  0.5277388E-004  0.5160236E+02  0.7546771E-02  0.1523791E+00
          1   -1    0    0  502    0 -0.00000000000E+00  0.00000000000E+00  0.14074698200E+03  0.14074698200E+03  0.00000000000E+00 0. -1.
          2   -1    0    0  503    0  0.00000000000E+00 -0.00000000000E+00 -0.38415452973E+03  0.38415452973E+03  0.00000000000E+00 0. -1.
         25    2    1    2    0    0  0.21688596685E+02 -0.65418715938E+02 -0.13795627616E+03  0.19851170791E+03  0.12499984170E+03 0.  0.
          4    1    3    3  501    0  0.33969550117E+02  0.16648890329E+02 -0.10062915443E+03  0.10751258301E+03  0.12700000000E+01 0. -1.
         -4    1    3    3    0  501 -0.12280953432E+02 -0.82067606267E+02 -0.37327121725E+02  0.90999124896E+02  0.12700000000E+01 0. -1.
          2    1    1    2  502    0 -0.23446217587E+02  0.15164740778E+02  0.10570387626E+03  0.10932979437E+03  0.00000000000E+00 0. -1.
          1    1    1    2  503    0  0.17576209017E+01  0.50253975160E+02 -0.21115514783E+03  0.21706000945E+03  0.00000000000E+00 0. -1.
<mgrwt>
<rscale>  0 0.37959099E+02</rscale>
<asrwt>0</asrwt>
<pdfrwt beam="2">  1        2 0.59100696E-01 0.51602358E+02</pdfrwt>
<pdfrwt beam="1">  1        1 0.21653382E-01 0.27923010E+02</pdfrwt>
<totfact> 0.24196461E+03</totfact>
</mgrwt>
</event>
<event>
 7    1  0.5277388E-004  0.7152909E+02  0.7546771E-02  0.1362255E+00
          1   -1    0    0  503    0  0.00000000000E+00  0.00000000000E+00  0.97305805526E+03  0.97305805526E+03  0.00000000000E+00 0. -1.
         -1   -1    0    0    0  501 -0.00000000000E+00 -0.00000000000E+00 -0.36958869687E+02  0.36958869687E+02  0.00000000000E+00 0.  1.
         25    2    1    2    0    0 -0.66045703311E+02  0.42956807417E+02  0.43986170007E+03  0.46401741769E+03  0.12500610587E+03 0.  0.
          4    1    3    3  502    0 -0.89041932491E+02  0.11452135617E+02  0.39255211154E+03  0.40268894985E+03  0.12700000000E+01 0. -1.
         -4    1    3    3    0  502  0.22996229180E+02  0.31504671800E+02  0.47309588524E+02  0.61328467844E+02  0.12700000000E+01 0. -1.
          2    1    1    2  503    0  0.71952105156E+02  0.24055754632E+02  0.46618795292E+03  0.47232085727E+03  0.00000000000E+00 0. -1.
         -2    1    1    2    0  501 -0.59064018445E+01 -0.67012562050E+02  0.30049532590E+02  0.73678649989E+02  0.00000000000E+00 0.  1.
<mgrwt>
<rscale>  0 0.69368074E+02</rscale>
<asrwt>0</asrwt>
<pdfrwt beam="1">  1        1 0.14970122E+00 0.71529085E+02</pdfrwt>
<pdfrwt beam="2">  1       -1 0.56859807E-02 0.67272350E+02</pdfrwt>
<totfact> 0.23455375E+03</totfact>
</mgrwt>
</event>
<event>
 7    1  0.5277388E-004  0.1322523E+03  0.7546771E-02  0.1277089E+00
         -2   -1    0    0    0  501 -0.00000000000E+00  0.00000000000E+00  0.43825390486E+04  0.43825390486E+04  0.00000000000E+00 0.  1.
          2   -1    0    0  503    0  0.00000000000E+00 -0.00000000000E+00 -0.12019644733E+03  0.12019644733E+03  0.00000000000E+00 0. -1.
         25    2    1    2    0    0 -0.80038714540E+02  0.55545468357E+02  0.69734742647E+03  0.71512772496E+03  0.12499093936E+03 0.  0.
          4    1    3    3  502    0 -0.23787757518E+02  0.49493514230E+02  0.92064550991E+02  0.10720522286E+03  0.12700000000E+01 0. -1.
         -4    1    3    3    0  502 -0.56250957021E+02  0.60519541265E+01  0.60528287548E+03  0.60792250211E+03  0.12700000000E+01 0. -1.
          1    1    1    2  503    0  0.13525119925E+03 -0.50427322816E+00 -0.69646014053E+02  0.15213056387E+03  0.00000000000E+00 0. -1.
         -1    1    1    2    0  501 -0.55212484710E+02 -0.55041195129E+02  0.36346411888E+04  0.36354772071E+04  0.00000000000E+00 0.  1.
<mgrwt>
<rscale>  0 0.10154087E+03</rscale>
<asrwt>0</asrwt>
<pdfrwt beam="2">  1        2 0.18491764E-01 0.13225226E+03</pdfrwt>
<pdfrwt beam="1">  1       -2 0.67423666E+00 0.77961219E+02</pdfrwt>
<totfact> 0.12277354E-01</totfact>
</mgrwt>
</event>
<event>
 7    1  0.5277388E-004  0.1627517E+03  0.7546771E-02  0.1264762E+00
          1   -1    0    0  502    0 -0.00000000000E+00  0.00000000000E+00  0.77985586463E+03  0.77985586463E+03  0.00000000000E+00 0. -1.
          2   -1    0    0  503    0  0.00000000000E+00 -0.00000000000E+00 -0.14678688042E+04  0.14678688042E+04  0.00000000000E+00 0. -1.
         25    2    1    2    0    0 -0.19105921215E+03 -0.98180942556E+02 -0.74587278445E+03  0.78618972787E+03  0.12499983038E+03 0.  0.
          4    1    3    3  501    0 -0.86469329841E+02  0.17542993937E+02 -0.34310267435E+03  0.35426792077E+03  0.12700000000E+01 0.  1.
         -4    1    3    3    0  501 -0.10458988231E+03 -0.11572393649E+03 -0.40277011010E+03  0.43192180710E+03  0.12700000000E+01 0.  1.
          2    1    1    2  502    0  0.60925877930E+02  0.37148608121E+02  0.75062839440E+03  0.75401257826E+03  0.00000000000E+00 0. -1.
          1    1    1    2  503    0  0.13013333422E+03  0.61032334435E+02 -0.69276854949E+03  0.70752236268E+03  0.00000000000E+00 0. -1.
<mgrwt>
<rscale>  0 0.10776668E+03</rscale>
<asrwt>0</asrwt>
<pdfrwt beam="2">  1        2 0.22582597E+00 0.16275171E+03</pdfrwt>
<pdfrwt beam="1">  1        1 0.11997783E+00 0.71358123E+02</pdfrwt>
<totfact> 0.51857566E+01</totfact>
</mgrwt>
</event>
<event>
 7    1  0.5277388E-004  0.1110115E+03  0.7546771E-02  0.1264871E+00
          1   -1    0    0  503    0  0.00000000000E+00  0.00000000000E+00  0.18371282755E+04  0.18371282755E+04  0.00000000000E+00 0. -1.
         -1   -1    0    0    0  501 -0.00000000000E+00 -0.00000000000E+00 -0.50977114017E+03  0.50977114017E+03  0.00000000000E+00 0.  1.
         25    2    1    2    0    0  0.10562701167E+03  0.83790995957E+02  0.23138451153E+03  0.29553634211E+03  0.12499976296E+03 0.  0.
          4    1    3    3  502    0 -0.25541599441E+02  0.34298853302E+02  0.66871264746E+02  0.79386167489E+02  0.12700000000E+01 0. -1.
         -4    1    3    3    0  502  0.13116861111E+03  0.49492142655E+02  0.16451324678E+03  0.21615017462E+03  0.12700000000E+01 0. -1.
          2    1    1    2  503    0  0.39938789813E+01 -0.10442933116E+03  0.15653899168E+04  0.15688744462E+04  0.00000000000E+00 0. -1.
         -2    1    1    2    0  501 -0.10962089065E+03  0.20638335207E+02 -0.46941729302E+03  0.48248862736E+03  0.00000000000E+00 0.  1.
<mgrwt>
<rscale>  0 0.10770945E+03</rscale>
<asrwt>0</asrwt>
<pdfrwt beam="1">  1        1 0.28263512E+00 0.10450568E+03</pdfrwt>
<pdfrwt beam="2">  1       -1 0.78426330E-01 0.11101145E+03</pdfrwt>
<totfact> 0.84808183E+00</totfact>
</mgrwt>
</event>
<event>
 7    1  0.5277388E-004  0.1460361E+03  0.7546771E-02  0.1412242E+00
          1   -1    0    0  502    0 -0.00000000000E+00  0.00000000000E+00  0.26700738146E+03  0.26700738146E+03  0.00000000000E+00 0. -1.
          2   -1    0    0  503    0  0.00000000000E+00 -0.00000000000E+00 -0.10733901092E+04  0.10733901092E+04  0.00000000000E+00 0. -1.
         25    2    1    2    0    0  0.10365279561E+02  0.12646517396E+03  0.64236046773E+02  0.18934634108E+03  0.12499955172E+03 0.  0.
          4    1    3    3  501    0  0.60250394216E+02  0.86046176435E+02  0.10429932445E+02  0.10556728126E+03  0.12700000000E+01 0. -1.
         -4    1    3    3    0  501 -0.49885114655E+02  0.40418997528E+02  0.53806114328E+02  0.83779059820E+02  0.12700000000E+01 0. -1.
          2    1    1    2  502    0  0.11536059631E+02  0.18746639241E+02  0.13397963310E+03  0.13577576824E+03  0.00000000000E+00 0. -1.
          1    1    1    2  503    0 -0.21901339192E+02 -0.14521181320E+03 -0.10045984076E+04  0.10152753813E+04  0.00000000000E+00 0. -1.
<mgrwt>
<rscale>  0 0.56696648E+02</rscale>
<asrwt>0</asrwt>
<pdfrwt beam="2">  1        2 0.16513694E+00 0.14603609E+03</pdfrwt>
<pdfrwt beam="1">  1        1 0.41078058E-01 0.22011750E+02</pdfrwt>
<totfact> 0.33309821E+02</totfact>
</mgrwt>
</event>
<event>
 7    1  0.5277388E-004  0.1799246E+03  0.7546771E-02  0.1195208E+00
          1   -1    0    0  502    0 -0.00000000000E+00  0.00000000000E+00  0.20437866143E+04  0.20437866143E+04  0.00000000000E+00 0. -1.
          2   -1    0    0  503    0  0.00000000000E+00 -0.00000000000E+00 -0.39692884094E+03  0.39692884094E+03  0.00000000000E+00 0. -1.
         25    2    1    2    0    0 -0.10326777456E+03  0.20124590297E+02  0.22505468799E+03  0.27810754673E+03  0.12499985026E+03 0.  0.
          4    1    3    3  501    0 -0.12282597232E+03  0.12868711641E+02  0.22560772451E+03  0.25720085823E+03  0.12700000000E+01 0. -1.
         -4    1    3    3    0  501  0.19558197762E+02  0.72558786565E+01 -0.55303651617E+00  0.20906688503E+02  0.12700000000E+01 0. -1.
          2    1    1    2  502    0  0.13296984958E+03 -0.14919036117E+03  0.17745760821E+04  0.17857936656E+04  0.00000000000E+00 0. -1.
          1    1    1    2  503    0 -0.29702075019E+02  0.12906577087E+03 -0.35277299674E+03  0.37681424296E+03  0.00000000000E+00 0. -1.
<mgrwt>
<rscale>  0 0.15436677E+03</rscale>
<asrwt>0</asrwt>
<pdfrwt beam="2">  1        2 0.61065977E-01 0.13243937E+03</pdfrwt>
<pdfrwt beam="1">  1        1 0.31442870E+00 0.17992459E+03</pdfrwt>
<totfact> 0.36709597E+01</totfact>
</mgrwt>
</event>
<event>
 7    1  0.5277388E-004  0.8927966E+02  0.7546771E-02  0.1480258E+00
          1   -1    0    0  502    0 -0.00000000000E+00  0.00000000000E+00  0.47857693230E+03  0.47857693230E+03  0.00000000000E+00 0. -1.
          2   -1    0    0  503    0  0.00000000000E+00 -0.00000000000E+00 -0.20068771013E+03  0.20068771013E+03  0.00000000000E+00 0. -1.
         25    2    1    2    0    0 -0.42687732954E+02 -0.68516877269E+02  0.19031376640E+03  0.24158072229E+03  0.12500044274E+03 0.  0.
          4    1    3    3  501    0 -0.86870131881E+01 -0.90786842557E+02  0.71178697318E+02  0.11569673648E+03  0.12700000000E+01 0.  1.
         -4    1    3    3    0  501 -0.34000719765E+02  0.22269965287E+02  0.11913506909E+03  0.12588398581E+03  0.12700000000E+01 0.  1.
          2    1    1    2  502    0  0.31246876128E+02  0.87014442540E+02  0.25376224867E+03  0.27007991285E+03  0.00000000000E+00 0. -1.
          1    1    1    2  503    0  0.11440856825E+02 -0.18497565271E+02 -0.16618679290E+03  0.16760400729E+03  0.00000000000E+00 0. -1.
<mgrwt>
<rscale>  0 0.44066012E+02</rscale>
<asrwt>0</asrwt>
<pdfrwt beam="2">  1        2 0.30875032E-01 0.21749785E+02</pdfrwt>
<pdfrwt beam="1">  1        1 0.73627220E-01 0.89279664E+02</pdfrwt>
<totfact> 0.10619747E+03</totfact>
</mgrwt>
</event>
<event>
 7    1  0.5277388E-004  0.1370840E+03  0.7546771E-02  0.1222196E+00
          2   -1    0    0  503    0  0.00000000000E+00  0.00000000000E+00  0.21844758024E+03  0.21844758024E+03  0.00000000000E+00 0. -1.
          1   -1    0    0  502    0 -0.00000000000E+00 -0.00000000000E+00 -0.15039951872E+04  0.15039951872E+04  0.00000000000E+00 0. -1.
         25    2    1    2    0    0  0.20696710867E+03  0.16047031327E+03 -0.15015795409E+03  0.32674071533E+03  0.12500391341E+03 0.  0.
          4    1    3    3  501    0  0.19610851571E+03  0.10616148482E+03 -0.15431118468E+03  0.27118695656E+03  0.12700000000E+01 0.  1.
         -4    1    3    3    0  501  0.10858592955E+02  0.54308828448E+02  0.41532305920E+01  0.55553758763E+02  0.12700000000E+01 0.  1.
          2    1    1    2  502    0 -0.99633065473E+02 -0.86731124667E+02 -0.12285218697E+04  0.12356030997E+04  0.00000000000E+00 0. -1.
          1    1    1    2  503    0 -0.10733404319E+03 -0.73739188599E+02  0.93132216784E+02  0.16009895242E+03  0.00000000000E+00 0. -1.
<mgrwt>
<rscale>  0 0.13360954E+03</rscale>
<asrwt>0</asrwt>
<pdfrwt beam="1">  1        2 0.33607322E-01 0.13022313E+03</pdfrwt>
<pdfrwt beam="2">  1        1 0.23138386E+00 0.13708402E+03</pdfrwt>
<totfact> 0.15810925E+02</totfact>
</mgrwt>
</event>
<event>
 7    1  0.5277388E-004  0.8558476E+02  0.7546771E-02  0.1380123E+00
          2   -1    0    0  503    0  0.00000000000E+00  0.00000000000E+00  0.49301489393E+03  0.49301489393E+03  0.00000000000E+00 0. -1.
          1   -1    0    0  502    0 -0.00000000000E+00 -0.00000000000E+00 -0.43530855896E+03  0.43530855896E+03  0.00000000000E+00 0. -1.
         25    2    1    2    0    0 -0.30081339723E+02 -0.80604185932E+02 -0.16071315590E+03  0.22103234581E+03  0.12499863049E+03 0.  0.
          4    1    3    3  501    0 -0.11023382630E+01  0.30663909623E+02 -0.11818137675E+02  0.32905497734E+02  0.12700000000E+01 0. -1.
         -4    1    3    3    0  501 -0.28979001460E+02 -0.11126809556E+03 -0.14889501822E+03  0.18812684807E+03  0.12700000000E+01 0. -1.
          2    1    1    2  502    0 -0.18072888546E+02  0.86439405141E+02 -0.23512421232E+03  0.25116089520E+03  0.00000000000E+00 0. -1.
          1    1    1    2  503    0  0.48154228270E+02 -0.58352192086E+01  0.45354370319E+03  0.45613021187E+03  0.00000000000E+00 0. -1.
<mgrwt>
<rscale>  0 0.64431487E+02</rscale>
<asrwt>0</asrwt>
<pdfrwt beam="1">  1        2 0.75848446E-01 0.48506489E+02</pdfrwt>
<pdfrwt beam="2">  1        1 0.66970547E-01 0.85584765E+02</pdfrwt>
<totfact> 0.48884487E+02</totfact>
</mgrwt>
</event>
<event>
 7    1  0.5277388E-004  0.7161269E+02  0.7546771E-02  0.1424170E+00
         -1   -1    0    0    0  501 -0.00000000000E+00  0.00000000000E+00  0.11782516109E+04  0.11782516109E+04  0.00000000000E+00 0.  1.
          1   -1    0    0  503    0  0.00000000000E+00 -0.00000000000E+00 -0.16972980238E+02  0.16972980238E+02  0.00000000000E+00 0. -1.
         25    2    1    2    0    0  0.46119044083E+02  0.55610584233E+02  0.40842986807E+03  0.43319650152E+03  0.12499899395E+03 0.  0.
          4    1    3    3  502    0  0.24946781094E+02  0.38545404201E+02  0.40278356082E+03  0.40539400567E+03  0.12700000000E+01 0. -1.
         -4    1    3    3    0  502  0.21172262989E+02  0.17065180032E+02  0.56463072551E+01  0.27802495845E+02  0.12700000000E+01 0. -1.
          2    1    1    2  503    0 -0.72905778136E+02 -0.24646036380E+02  0.48472322571E+03  0.49079454474E+03  0.00000000000E+00 0. -1.
         -2    1    1    2    0  501  0.26786734054E+02 -0.30964547853E+02  0.26812553687E+03  0.27123354488E+03  0.00000000000E+00 0.  1.
<mgrwt>
<rscale>  0 0.54148326E+02</rscale>
<asrwt>0</asrwt>
<pdfrwt beam="2">  1        1 0.26112287E-02 0.71612693E+02</pdfrwt>
<pdfrwt beam="1">  1       -1 0.18126941E+00 0.40943038E+02</pdfrwt>
<totfact> 0.93262133E+02</totfact>
</mgrwt>
</event>
<event>
 7    1  0.5277388E-004  0.1395196E+03  0.7546771E-02  0.1419096E+00
         -1   -1    0    0    0  501 -0.00000000000E+00  0.00000000000E+00  0.19256597380E+02  0.19256597380E+02  0.00000000000E+00 0.  1.
          1   -1    0    0  503    0  0.00000000000E+00 -0.00000000000E+00 -0.21968235131E+04  0.21968235131E+04  0.00000000000E+00 0. -1.
         25    2    1    2    0    0  0.99424711347E+02  0.10306164787E+03 -0.95744547967E+03  0.97613213322E+03  0.12500047395E+03 0.  0.
          4    1    3    3  502    0  0.12326375851E+03  0.85468565220E+02 -0.64177537365E+03  0.65907213029E+03  0.12700000000E+01 0. -1.
         -4    1    3    3    0  502 -0.23839047160E+02  0.17593082654E+02 -0.31567010602E+03  0.31706000293E+03  0.12700000000E+01 0. -1.
          2    1    1    2  503    0  0.10423401853E+02 -0.19202921833E+02 -0.74026270305E+03  0.74058508562E+03  0.00000000000E+00 0. -1.
         -2    1    1    2    0  501 -0.10984811320E+03 -0.83858726041E+02 -0.47985873300E+03  0.49936289164E+03  0.00000000000E+00 0.  1.
<mgrwt>
<rscale>  0 0.55212592E+02</rscale>
<asrwt>0</asrwt>
<pdfrwt beam="2">  1        1 0.33797286E+00 0.21849474E+02</pdfrwt>
<pdfrwt beam="1">  1       -1 0.29625533E-02 0.13951962E+03</pdfrwt>
<totfact> 0.12836523E+03</totfact>
</mgrwt>
</event>
<event>
 7    1  0.5277388E-004  0.8840866E+02  0.7546771E-02  0.1365270E+00
          1   -1    0    0  502    0 -0.00000000000E+00  0.00000000000E+00  0.85461081249E+03  0.85461081249E+03  0.00000000000E+00 0. -1.
          2   -1    0    0  503    0  0.00000000000E+00 -0.00000000000E+00 -0.26269115816E+04  0.26269115816E+04  0.00000000000E+00 0. -1.
         25    2    1    2    0    0  0.13121139302E+03 -0.16153272981E+02 -0.18848500827E+03  0.26196473129E+03  0.12498625607E+03 0.  0.
          4    1    3    3  501    0 -0.16684638923E+02  0.39492821690E+01 -0.68009298060E+02  0.70148781374E+02  0.12700000000E+01 0.  1.
         -4    1    3    3    0  501  0.14789603195E+03 -0.20102555150E+02 -0.12047571021E+03  0.19181594991E+03  0.12700000000E+01 0.  1.
          2    1    1    2  502    0 -0.81199096544E+02  0.33919474565E+02  0.81520952637E+03  0.81994536154E+03  0.00000000000E+00 0. -1.
          1    1    1    2  503    0 -0.50012296481E+02 -0.17766201584E+02 -0.23990252872E+04  0.23996123013E+04  0.00000000000E+00 0. -1.
<mgrwt>
<rscale>  0 0.68499755E+02</rscale>
<asrwt>0</asrwt>
<pdfrwt beam="2">  1        2 0.40414024E+00 0.53074172E+02</pdfrwt>
<pdfrwt beam="1">  1        1 0.13147859E+00 0.88408660E+02</pdfrwt>
<totfact> 0.13000200E+01</totfact>
</mgrwt>
</event>
<event>
 7    1  0.5277388E-004  0.4974928E+02  0.7546771E-02  0.1509693E+00
         -2   -1    0    0    0  501 -0.00000000000E+00  0.00000000000E+00  0.11018195279E+03  0.11018195279E+03  0.00000000000E+00 0.  1.
          2   -1    0    0  503    0  0.00000000000E+00 -0.00000000000E+00 -0.15043628756E+04  0.15043628756E+04  0.00000000000E+00 0. -1.
         25    2    1    2    0    0 -0.66805691505E+02 -0.31874280126E+02 -0.42821286955E+03  0.45218326169E+03  0.12499788140E+03 0.  0.
          4    1    3    3  502    0 -0.48488679643E+02  0.38238209319E+02 -0.28569213927E+03  0.29229253163E+03  0.12700000000E+01 0.  1.
         -4    1    3    3    0  502 -0.18317011862E+02 -0.70112489446E+02 -0.14252073028E+03  0.15989073006E+03  0.12700000000E+01 0.  1.
          3    1    1    2  503    0  0.35033866600E+02  0.33947542864E+02 -0.10610086413E+04  0.10621295327E+04  0.00000000000E+00 0. -1.
         -1    1    1    2    0  501  0.31771824906E+02 -0.20732627379E+01  0.95040587972E+02  0.10023203399E+03  0.00000000000E+00 0.  1.
<mgrwt>
<rscale>  0 0.39799338E+02</rscale>
<asrwt>0</asrwt>
<pdfrwt beam="2">  1        2 0.23144044E+00 0.49749285E+02</pdfrwt>
<pdfrwt beam="1">  1       -2 0.16951070E-01 0.31839398E+02</pdfrwt>
<totfact> 0.39393324E+02</totfact>
</mgrwt>
</event>
<event>
 7    1  0.5277388E-004  0.1242794E+03  0.7546771E-02  0.1328066E+00
          1   -1    0    0  502    0 -0.00000000000E+00  0.00000000000E+00  0.17331016930E+04  0.17331016930E+04  0.00000000000E+00 0. -1.
          2   -1    0    0  503    0  0.00000000000E+00 -0.00000000000E+00 -0.38305358485E+03  0.38305358485E+03  0.00000000000E+00 0. -1.
         25    2    1    2    0    0 -0.45305968840E+02  0.98478241036E+02  0.50108991075E+02  0.17287794864E+03  0.12500111747E+03 0.  0.
          4    1    3    3  501    0 -0.77347666385E+02  0.10251704868E+03  0.22529815391E+02  0.13039023064E+03  0.12700000000E+01 0.  1.
         -4    1    3    3    0  501  0.32041697545E+02 -0.40388076467E+01  0.27579175684E+02  0.42487717992E+02  0.12700000000E+01 0.  1.
          2    1    1    2  502    0 -0.49909532081E+02 -0.14403190418E+02  0.16086328488E+04  0.16094713591E+04  0.00000000000E+00 0. -1.
          1    1    1    2  503    0  0.95215500921E+02 -0.84075050618E+02 -0.30869373170E+03  0.33380597020E+03  0.00000000000E+00 0. -1.
<mgrwt>
<rscale>  0 0.80348312E+02</rscale>
<asrwt>0</asrwt>
<pdfrwt beam="2">  1        2 0.58931322E-01 0.12427944E+03</pdfrwt>
<pdfrwt beam="1">  1        1 0.26663103E+00 0.51946254E+02</pdfrwt>
<totfact> 0.69136980E+01</totfact>
</mgrwt>
</event>
<event>
 7    1  0.5277388E-004  0.9893873E+02  0.7546771E-02  0.1378413E+00
          2   -1    0    0  503    0  0.00000000000E+00  0.00000000000E+00  0.43646975284E+03  0.43646975284E+03  0.00000000000E+00 0. -1.
          1   -1    0    0  502    0 -0.00000000000E+00 -0.00000000000E+00 -0.26793980138E+03  0.26793980138E+03  0.00000000000E+00 0. -1.
         25    2    1    2    0    0 -0.88466228172E+02 -0.42489144665E+02  0.11444999216E+03  0.19584650199E+03  0.12500180277E+03 0.  0.
          4    1    3    3  501    0 -0.95565715208E+02 -0.19515241953E+02  0.13336130874E+03  0.16522863602E+03  0.12700000000E+01 0. -1.
         -4    1    3    3    0  501  0.70994870362E+01 -0.22973902713E+02 -0.18911316580E+02  0.30617865974E+02  0.12700000000E+01 0. -1.
          2    1    1    2  502    0 -0.12288431010E+02  0.40736259698E+02 -0.21607573571E+03  0.22022527547E+03  0.00000000000E+00 0. -1.
          3    1    1    2  503    0  0.10075465918E+03  0.17528849676E+01  0.27015569502E+03  0.28833777676E+03  0.00000000000E+00 0. -1.
<mgrwt>
<rscale>  0 0.64882819E+02</rscale>
<asrwt>0</asrwt>
<pdfrwt beam="1">  1        2 0.67149193E-01 0.98938733E+02</pdfrwt>
<pdfrwt beam="2">  1        1 0.41221508E-01 0.42549364E+02</pdfrwt>
<totfact> 0.99643203E+02</totfact>
</mgrwt>
</event>
<event>
 7    1  0.5277388E-004  0.4068573E+02  0.7546771E-02  0.1568733E+00
          2   -1    0    0  503    0  0.00000000000E+00  0.00000000000E+00  0.65410664476E+03  0.65410664476E+03  0.00000000000E+00 0. -1.
         -2   -1    0    0    0  501 -0.00000000000E+00 -0.00000000000E+00 -0.29505861332E+02  0.29505861332E+02  0.00000000000E+00 0.  1.
         25    2    1    2    0    0 -0.49722978500E+01  0.36725829419E+02  0.26264398578E+03  0.29322334484E+03  0.12499822558E+03 0.  0.
          4    1    3    3  502    0  0.55150175292E+02  0.42942369961E+02  0.13887783364E+03  0.15548072083E+03  0.12700000000E+01 0. -1.
         -4    1    3    3    0  502 -0.60122473142E+02 -0.62165405423E+01  0.12376615214E+03  0.13774262401E+03  0.12700000000E+01 0. -1.
          3    1    1    2  503    0 -0.25346306775E+02 -0.77191774486E+01  0.34354932666E+03  0.34456952973E+03  0.00000000000E+00 0. -1.
         -1    1    1    2    0  501  0.30318604625E+02 -0.29006651970E+02  0.18407470981E+02  0.45819631523E+02  0.00000000000E+00 0.  1.
<mgrwt>
<rscale>  0 0.32832849E+02</rscale>
<asrwt>0</asrwt>
<pdfrwt beam="1">  1        2 0.10063178E+00 0.26495678E+02</pdfrwt>
<pdfrwt beam="2">  1       -2 0.45393638E-02 0.40685729E+02</pdfrwt>
<totfact> 0.90644532E+03</totfact>
</mgrwt>
</event>
<event>
 7    1  0.5277388E-004  0.1750117E+03  0.7546771E-02  0.1269470E+00
          1   -1    0    0  502    0 -0.00000000000E+00  0.00000000000E+00  0.18158426396E+04  0.18158426396E+04  0.00000000000E+00 0. -1.
          2   -1    0    0  503    0  0.00000000000E+00 -0.00000000000E+00 -0.10906474556E+04  0.10906474556E+04  0.00000000000E+00 0. -1.
         25    2    1    2    0    0  0.92892948515E+02  0.10570156875E+03 -0.41119077110E+03  0.45222492322E+03  0.12501043728E+03 0.  0.
          4    1    3    3  501    0  0.63628294306E+02  0.17733789510E+01 -0.71264319907E+02  0.95561084657E+02  0.12700000000E+01 0. -1.
         -4    1    3    3    0  501  0.29264654209E+02  0.10392818980E+03 -0.33992645119E+03  0.35666383856E+03  0.12700000000E+01 0. -1.
          2    1    1    2  502    0  0.21817852637E+02  0.59519902957E+02  0.17793988082E+04  0.17805276623E+04  0.00000000000E+00 0. -1.
          1    1    1    2  503    0 -0.11471080115E+03 -0.16522147171E+03 -0.64301285317E+03  0.67373750968E+03  0.00000000000E+00 0. -1.
<mgrwt>
<rscale>  0 0.10533030E+03</rscale>
<asrwt>0</asrwt>
<pdfrwt beam="2">  1        2 0.16779192E+00 0.17501175E+03</pdfrwt>
<pdfrwt beam="1">  1        1 0.27936041E+00 0.63392725E+02</pdfrwt>
<totfact> 0.17033667E+01</totfact>
</mgrwt>
</event>
<event>
 7    1  0.5277388E-004  0.9620454E+02  0.7546771E-02  0.1412258E+00
          2   -1    0    0  503    0  0.00000000000E+00  0.00000000000E+00  0.14025682142E+03  0.14025682142E+03  0.00000000000E+00 0. -1.
          1   -1    0    0  502    0 -0.00000000000E+00 -0.00000000000E+00 -0.70077920052E+03  0.70077920052E+03  0.00000000000E+00 0. -1.
         25    2    1    2    0    0 -0.21748839985E+02  0.63563253830E+02  0.31462071339E+02  0.14535787174E+03  0.12500299863E+03 0.  0.
          4    1    3    3  501    0 -0.42508907237E+01 -0.35582169052E+02 -0.87981670681E+01  0.36921287493E+02  0.12700000000E+01 0. -1.
         -4    1    3    3    0  501 -0.17497949262E+02  0.99145422882E+02  0.40260238407E+02  0.10843658425E+03  0.12700000000E+01 0. -1.
          2    1    1    2  502    0  0.47083859941E+02 -0.85341529021E+02 -0.63431061403E+03  0.64175542188E+03  0.00000000000E+00 0. -1.
          1    1    1    2  503    0 -0.25335019956E+02  0.21778275191E+02  0.42326163579E+02  0.53922728323E+02  0.00000000000E+00 0. -1.
<mgrwt>
<rscale>  0 0.56692950E+02</rscale>
<asrwt>0</asrwt>
<pdfrwt beam="1">  1        2 0.21577973E-01 0.33408929E+02</pdfrwt>
<pdfrwt beam="2">  1        1 0.10781218E+00 0.96204539E+02</pdfrwt>
<totfact> 0.94192230E+02</totfact>
</mgrwt>
</event>
<event>
 7    1  0.5277388E-004  0.8094946E+02  0.7546771E-02  0.1401368E+00
         -2   -1    0    0    0  501 -0.00000000000E+00  0.00000000000E+00  0.81935238566E+03  0.81935238566E+03  0.00000000000E+00 0.  1.
          2   -1    0    0  503    0  0.00000000000E+00 -0.00000000000E+00 -0.33797967048E+03  0.33797967048E+03  0.00000000000E+00 0. -1.
         25    2    1    2    0    0 -0.75408162487E+02  0.93237763698E+01 -0.15461019904E+03  0.21283016003E+03  0.12497615611E+03 0.  0.
          4    1    3    3  502    0 -0.25956065759E+02 -0.41247273972E+02 -0.71418900959E+01  0.49271436492E+02  0.12700000000E+01 0. -1.
         -4    1    3    3    0  502 -0.49452096728E+02  0.50571050342E+02 -0.14746830894E+03  0.16355872354E+03  0.12700000000E+01 0. -1.
          1    1    1    2  503    0  0.12163270591E+02  0.41497570857E+02 -0.14909662690E+03  0.15524109537E+03  0.00000000000E+00 0. -1.
         -1    1    1    2    0  501  0.63244891896E+02 -0.50821347227E+02  0.78507954112E+03  0.78926080073E+03  0.00000000000E+00 0.  1.
<mgrwt>
<rscale>  0 0.59165292E+02</rscale>
<asrwt>0</asrwt>
<pdfrwt beam="2">  1        2 0.51996872E-01 0.43243422E+02</pdfrwt>
<pdfrwt beam="1">  1       -2 0.12605421E+00 0.80949463E+02</pdfrwt>
<totfact> 0.49854467E+01</totfact>
</mgrwt>
</event>
<event>
 7    1  0.5277388E-004  0.4587121E+02  0.7546771E-02  0.1572758E+00
          2   -1    0    0  503    0  0.00000000000E+00  0.00000000000E+00  0.62347603343E+03  0.62347603343E+03  0.00000000000E+00 0. -1.
          1   -1    0    0  502    0 -0.00000000000E+00 -0.00000000000E+00 -0.48271595120E+02  0.48271595120E+02  0.00000000000E+00 0. -1.
         25    2    1    2    0    0 -0.14659344345E+02  0.29553145066E+02  0.69344679389E+02  0.14669627634E+03  0.12499131238E+03 0.  0.
          4    1    3    3  501    0  0.32252526475E+02  0.15792324485E+02 -0.22673818026E+02  0.42489268063E+02  0.12700000000E+01 0.  1.
         -4    1    3    3    0  501 -0.46911870819E+02  0.13760820582E+02  0.92018497416E+02  0.10420700827E+03  0.12700000000E+01 0.  1.
          2    1    1    2  502    0  0.25485950499E+02 -0.49751135241E+02  0.74783502272E+02  0.93366382294E+02  0.00000000000E+00 0. -1.
          3    1    1    2  503    0 -0.10826606154E+02  0.20197990175E+02  0.43107625665E+03  0.43168496992E+03  0.00000000000E+00 0. -1.
<mgrwt>
<rscale>  0 0.32422460E+02</rscale>
<asrwt>0</asrwt>
<pdfrwt beam="1">  1        2 0.95919384E-01 0.22916680E+02</pdfrwt>
<pdfrwt beam="2">  1        1 0.74263997E-02 0.45871212E+02</pdfrwt>
<totfact> 0.58286476E+03</totfact>
</mgrwt>
</event>
<event>
 7    1  0.5277388E-004  0.6654859E+02  0.7546771E-02  0.1402573E+00
          2   -1    0    0  503    0  0.00000000000E+00  0.00000000000E+00  0.32127835951E+03  0.32127835951E+03  0.00000000000E+00 0. -1.
          1   -1    0    0  502    0 -0.00000000000E+00 -0.00000000000E+00 -0.31021114201E+04  0.31021114201E+04  0.00000000000E+00 0. -1.
         25    2    1    2    0    0 -0.94053947864E+01 -0.98998067653E+02  0.75836574480E+02  0.17681481404E+03  0.12499285413E+03 0.  0.
          4    1    3    3  501    0 -0.65944189345E+02 -0.60377533400E+02  0.56042747096E+02  0.10552954586E+03  0.12700000000E+01 0. -1.
         -4    1    3    3    0  501  0.56538794559E+02 -0.38620534253E+02  0.19793827383E+02  0.71285268174E+02  0.12700000000E+01 0. -1.
          2    1    1    2  502    0 -0.26310476147E+02  0.61062020269E+02 -0.30477719144E+04  0.30484970812E+04  0.00000000000E+00 0. -1.
          1    1    1    2  503    0  0.35715870933E+02  0.37936047384E+02  0.19110227934E+03  0.19807788442E+03  0.00000000000E+00 0. -1.
<mgrwt>
<rscale>  0 0.58884713E+02</rscale>
<asrwt>0</asrwt>
<pdfrwt beam="1">  1        2 0.49427441E-01 0.52103427E+02</pdfrwt>
<pdfrwt beam="2">  1        1 0.47724790E+00 0.66548586E+02</pdfrwt>
<totfact> 0.10762208E+01</totfact>
</mgrwt>
</event>
<event>
 7    1  0.5277388E-004  0.8590261E+02  0.7546771E-02  0.1471923E+00
          2   -1    0    0  503    0  0.00000000000E+00  0.00000000000E+00  0.11251273479E+04  0.11251273479E+04  0.00000000000E+00 0. -1.
         -2   -1    0    0    0  501 -0.00000000000E+00 -0.00000000000E+00 -0.30111653375E+02  0.30111653375E+02  0.00000000000E+00 0.  1.
         25    2    1    2    0    0 -0.80659298215E+02  0.97485427834E+01  0.91411894657E+03  0.92619677063E+03  0.12500421181E+03 0.  0.
          4    1    3    3  502    0 -0.67014516732E+02  0.32097377708E+01  0.90690887923E+03  0.90938802279E+03  0.12700000000E+01 0. -1.
         -4    1    3    3    0  502 -0.13644781484E+02  0.65388050125E+01  0.72100673351E+01  0.16808747833E+02  0.12700000000E+01 0. -1.
          1    1    1    2  503    0 -0.48186221492E+01 -0.23494258689E+02  0.12199260660E+03  0.12432777395E+03  0.00000000000E+00 0. -1.
         -1    1    1    2    0  501  0.85477920365E+02  0.13745715906E+02  0.58904141394E+02  0.10471445673E+03  0.00000000000E+00 0.  1.
<mgrwt>
<rscale>  0 0.45389747E+02</rscale>
<asrwt>0</asrwt>
<pdfrwt beam="1">  1        2 0.17309648E+00 0.23983313E+02</pdfrwt>
<pdfrwt beam="2">  1       -2 0.46325629E-02 0.85902608E+02</pdfrwt>
<totfact> 0.50662074E+03</totfact>
</mgrwt>
</event>
<event>
 7    1  0.5277388E-004  0.5170760E+02  0.7546771E-02  0.1437487E+00
          1   -1    0    0  502    0 -0.00000000000E+00  0.00000000000E+00  0.20037758580E+03  0.20037758580E+03  0.00000000000E+00 0. -1.
          2   -1    0    0  503    0  0.00000000000E+00 -0.00000000000E+00 -0.66469681305E+03  0.66469681305E+03  0.00000000000E+00 0. -1.
         25    2    1    2    0    0  0.63818087064E+02  0.31206175965E+02 -0.35254468686E+03  0.38073677121E+03  0.12500463618E+03 0.  0.
          4    1    3    3  501    0  0.90719264468E+02 -0.12271623969E+02 -0.24782278325E+03  0.26419372153E+03  0.12700000000E+01 0. -1.
         -4    1    3    3    0  501 -0.26901177404E+02  0.43477799934E+02 -0.10472190361E+03  0.11654304968E+03  0.12700000000E+01 0. -1.
          2    1    1    2  502    0 -0.15407240849E+02 -0.48895403906E+02  0.18045598867E+03  0.18759666159E+03  0.00000000000E+00 0. -1.
          1    1    1    2  503    0 -0.48410846216E+02  0.17689227942E+02 -0.29223052905E+03  0.29674096604E+03  0.00000000000E+00 0. -1.
<mgrwt>
<rscale>  0 0.51486035E+02</rscale>
<asrwt>0</asrwt>
<pdfrwt beam="2">  1        2 0.10226105E+00 0.51707597E+02</pdfrwt>
<pdfrwt beam="1">  1        1 0.30827321E-01 0.51265423E+02</pdfrwt>
<totfact> 0.90529704E+02</totfact>
</mgrwt>
</event>
<event>
 7    1  0.5277388E-004  0.4930703E+02  0.7546771E-02  0.1565699E+00
          2   -1    0    0  503    0  0.00000000000E+00  0.00000000000E+00  0.12764776079E+04  0.12764776079E+04  0.00000000000E+00 0. -1.
         -2   -1    0    0    0  501 -0.00000000000E+00 -0.00000000000E+00 -0.12679761227E+02  0.12679761227E+02  0.00000000000E+00 0.  1.
         25    2    1    2    0    0  0.33726337918E+02 -0.19013427300E+01  0.41725096364E+03  0.43688073136E+03  0.12500130321E+03 0.  0.
          4    1    3    3  502    0  0.54946109769E+02 -0.10017336385E+01  0.41106331289E+03  0.41472248378E+03  0.12700000000E+01 0. -1.
         -4    1    3    3    0  502 -0.21219771851E+02 -0.89960909150E+00  0.61876507441E+01  0.22158247576E+02  0.12700000000E+01 0. -1.
          3    1    1    2  503    0 -0.46623343641E+02  0.20073107290E+02  0.78798878559E+03  0.78962205645E+03  0.00000000000E+00 0. -1.
         -3    1    1    2    0  501  0.12897005723E+02 -0.18171764560E+02  0.58558097402E+02  0.62654581279E+02  0.00000000000E+00 0.  1.
<mgrwt>
<rscale>  0 0.33147002E+02</rscale>
<asrwt>0</asrwt>
<pdfrwt beam="1">  1        2 0.19638107E+00 0.49307032E+02</pdfrwt>
<pdfrwt beam="2">  1       -2 0.19507335E-02 0.22283307E+02</pdfrwt>
<totfact> 0.11336592E+04</totfact>
</mgrwt>
</event>
<event>
 7    1  0.5277388E-004  0.7407728E+02  0.7546771E-02  0.1419236E+00
          2   -1    0    0  503    0  0.00000000000E+00  0.00000000000E+00  0.28688533849E+04  0.28688533849E+04  0.00000000000E+00 0. -1.
          1   -1    0    0  502    0 -0.00000000000E+00 -0.00000000000E+00 -0.26885127895E+03  0.26885127895E+03  0.00000000000E+00 0. -1.
         25    2    1    2    0    0 -0.34001551959E+02  0.31595395761E+02 -0.37088780105E+02  0.13839664644E+03  0.12499471816E+03 0.  0.
          4    1    3    3  501    0 -0.87356593753E+01  0.49249816274E+02  0.34276401040E+02  0.60649325767E+02  0.12700000000E+01 0.  1.
         -4    1    3    3    0  501 -0.25265892584E+02 -0.17654420513E+02 -0.71365181145E+02  0.77747320671E+02  0.12700000000E+01 0.  1.
          2    1    1    2  502    0  0.74814408799E+02 -0.26680849587E+02 -0.17224200702E+03  0.18967438541E+03  0.00000000000E+00 0. -1.
          1    1    1    2  503    0 -0.40812856839E+02 -0.49145461735E+01  0.28093328931E+04  0.28096336320E+04  0.00000000000E+00 0. -1.
<mgrwt>
<rscale>  0 0.55182840E+02</rscale>
<asrwt>0</asrwt>
<pdfrwt beam="1">  1        2 0.44136204E+00 0.41107688E+02</pdfrwt>
<pdfrwt beam="2">  1        1 0.41361737E-01 0.74077283E+02</pdfrwt>
<totfact> 0.45671821E+01</totfact>
</mgrwt>
</event>
<event>
 7    1  0.5277388E-004  0.8674350E+02  0.7546771E-02  0.1422043E+00
          2   -1    0    0  503    0  0.00000000000E+00  0.00000000000E+00  0.76207106997E+03  0.76207106997E+03  0.00000000000E+00 0. -1.
         -2   -1    0    0    0  501 -0.00000000000E+00 -0.00000000000E+00 -0.86846791554E+03  0.86846791554E+03  0.00000000000E+00 0.  1.
         25    2    1    2    0    0  0.11147929925E+03  0.37900900487E+02 -0.11479708088E+03  0.20656325503E+03  0.12500358448E+03 0.  0.
          4    1    3    3  502    0  0.56511102694E+02 -0.39773263579E+02 -0.19335548243E+02  0.71769725855E+02  0.12700000000E+01 0. -1.
         -4    1    3    3    0  502  0.54968196556E+02  0.77674164066E+02 -0.95461532633E+02  0.13479352918E+03  0.12700000000E+01 0. -1.
          1    1    1    2  503    0 -0.28521037927E+02 -0.19154472997E+02  0.71321802193E+03  0.71404501976E+03  0.00000000000E+00 0. -1.
         -1    1    1    2    0  501 -0.82958261323E+02 -0.18746427490E+02 -0.70481778662E+03  0.70993071071E+03  0.00000000000E+00 0.  1.
<mgrwt>
<rscale>  0 0.54590939E+02</rscale>
<asrwt>0</asrwt>
<pdfrwt beam="1">  1        2 0.11724170E+00 0.34356127E+02</pdfrwt>
<pdfrwt beam="2">  1       -2 0.13361045E+00 0.86743498E+02</pdfrwt>
<totfact> 0.18388489E+01</totfact>
</mgrwt>
</event>
<event>
 7    1  0.5277388E-004  0.6920697E+02  0.7546771E-02  0.1496528E+00
          2   -1    0    0  503    0  0.00000000000E+00  0.00000000000E+00  0.90688017591E+02  0.90688017591E+02  0.00000000000E+00 0. -1.
         -2   -1    0    0    0  501 -0.00000000000E+00 -0.00000000000E+00 -0.17070207097E+03  0.17070207097E+03  0.00000000000E+00 0.  1.
         25    2    1    2    0    0 -0.11428170620E+02 -0.58151452821E+02 -0.25300298352E+02  0.14062929762E+03  0.12499719878E+03 0.  0.
          4    1    3    3  502    0 -0.43779547734E+02 -0.79700786403E+02 -0.39602327728E+02  0.99190833320E+02  0.12700000000E+01 0. -1.
         -4    1    3    3    0  502  0.32351377114E+02  0.21549333583E+02  0.14302029377E+02  0.41438464298E+02  0.12700000000E+01 0. -1.
          1    1    1    2  503    0 -0.25198232417E+01  0.78953076411E+02 -0.54035247695E+02  0.95706560785E+02  0.00000000000E+00 0. -1.
         -1    1    1    2    0  501  0.13947993862E+02 -0.20801623590E+02 -0.67850733406E+00  0.25054230161E+02  0.00000000000E+00 0.  1.
<mgrwt>
<rscale>  0 0.41632817E+02</rscale>
<asrwt>0</asrwt>
<pdfrwt beam="1">  1        2 0.13952003E-01 0.69206972E+02</pdfrwt>
<pdfrwt beam="2">  1       -2 0.26261857E-01 0.25045041E+02</pdfrwt>
<totfact> 0.47965653E+03</totfact>
</mgrwt>
</event>
<event>
 7    1  0.5277388E-004  0.1158256E+03  0.7546771E-02  0.1282114E+00
          2   -1    0    0  503    0  0.00000000000E+00  0.00000000000E+00  0.26622954893E+03  0.26622954893E+03  0.00000000000E+00 0. -1.
         -2   -1    0    0    0  501 -0.00000000000E+00 -0.00000000000E+00 -0.79557375440E+03  0.79557375440E+03  0.00000000000E+00 0.  1.
         25    2    1    2    0    0 -0.42444115898E+02  0.98701415401E+02 -0.19901750943E+03  0.25841220563E+03  0.12500170631E+03 0.  0.
          4    1    3    3  502    0  0.17318683485E+02 -0.18762829759E+02 -0.67673450883E+02  0.72341477955E+02  0.12700000000E+01 0. -1.
         -4    1    3    3    0  502 -0.59762799383E+02  0.11746424516E+03 -0.13134405854E+03  0.18607072767E+03  0.12700000000E+01 0. -1.
          1    1    1    2  503    0  0.10893582874E+03 -0.45977584152E+02  0.21828651467E+03  0.24825381269E+03  0.00000000000E+00 0. -1.
         -1    1    1    2    0  501 -0.66491712840E+02 -0.52723831250E+02 -0.54861321071E+03  0.55513728502E+03  0.00000000000E+00 0.  1.
<mgrwt>
<rscale>  0 0.99140173E+02</rscale>
<asrwt>0</asrwt>
<pdfrwt beam="1">  1        2 0.40958393E-01 0.11582557E+03</pdfrwt>
<pdfrwt beam="2">  1       -2 0.12239596E+00 0.84858413E+02</pdfrwt>
<totfact> 0.68978523E+01</totfact>
</mgrwt>
</event>
<event>
 7    1  0.5277388E-004  0.7167628E+02  0.7546771E-02  0.1421392E+00
         -2   -1    0    0    0  501 -0.00000000000E+00  0.00000000000E+00  0.11953534829E+03  0.11953534829E+03  0.00000000000E+00 0.  1.
          2   -1    0    0  503    0  0.00000000000E+00 -0.00000000000E+00 -0.26789365733E+04  0.26789365733E+04  0.00000000000E+00 0. -1.
         25    2    1    2    0    0 -0.48887728087E+02 -0.54409953244E+01 -0.14366124966E+04  0.14428789908E+04  0.12499880995E+03 0.  0.
          4    1    3    3  502    0 -0.16680500184E+02 -0.40637063719E+02 -0.17738889661E+03  0.18275131621E+03  0.12700000000E+01 0.  1.
         -4    1    3    3    0  502 -0.32207227903E+02  0.35196068394E+02 -0.12592236000E+04  0.12601276746E+04  0.12700000000E+01 0.  1.
          1    1    1    2  503    0  0.79807856901E+02 -0.22666745188E+02 -0.12340023760E+04  0.12367881546E+04  0.00000000000E+00 0. -1.
         -1    1    1    2    0  501 -0.30920128814E+02  0.28107740513E+02  0.11121364755E+03  0.11880477618E+03  0.00000000000E+00 0.  1.
<mgrwt>
<rscale>  0 0.54727421E+02</rscale>
<asrwt>0</asrwt>
<pdfrwt beam="2">  1        2 0.41214410E+00 0.71676282E+02</pdfrwt>
<pdfrwt beam="1">  1       -2 0.18390053E-01 0.41786355E+02</pdfrwt>
<totfact> 0.86814780E+01</totfact>
</mgrwt>
</event>
<event>
 7    1  0.5277388E-004  0.4004287E+02  0.7546771E-02  0.1578468E+00
          1   -1    0    0  502    0 -0.00000000000E+00  0.00000000000E+00  0.39657313307E+01  0.39657313307E+01  0.00000000000E+00 0. -1.
          2   -1    0    0  503    0  0.00000000000E+00 -0.00000000000E+00 -0.29228923133E+04  0.29228923133E+04  0.00000000000E+00 0. -1.
         25    2    1    2    0    0 -0.11842431416E+01  0.22685429893E+02 -0.19280409932E+04  0.19322223014E+04  0.12499967632E+03 0.  0.
          4    1    3    3  501    0  0.45950375579E+02 -0.24545339467E+02 -0.52103931910E+03  0.52363870718E+03  0.12700000000E+01 0. -1.
         -4    1    3    3    0  501 -0.47134618720E+02  0.47230769361E+02 -0.14070016741E+04  0.14085835942E+04  0.12700000000E+01 0. -1.
          2    1    1    2  502    0 -0.16952496734E+02  0.18831133612E+02 -0.12374341926E+03  0.12631085682E+03  0.00000000000E+00 0. -1.
          1    1    1    2  503    0  0.18136739876E+02 -0.41516563505E+02 -0.86714216942E+03  0.86832488642E+03  0.00000000000E+00 0. -1.
<mgrwt>
<rscale>  0 0.31852693E+02</rscale>
<asrwt>0</asrwt>
<pdfrwt beam="2">  1        2 0.44967666E+00 0.40042873E+02</pdfrwt>
<pdfrwt beam="1">  1        1 0.61011127E-03 0.25337694E+02</pdfrwt>
<totfact> 0.89040718E+03</totfact>
</mgrwt>
</event>
<event>
 7    1  0.5277388E-004  0.8802828E+02  0.7546771E-02  0.1483273E+00
          1   -1    0    0  502    0 -0.00000000000E+00  0.00000000000E+00  0.44897612646E+03  0.44897612646E+03  0.00000000000E+00 0. -1.
          2   -1    0    0  503    0  0.00000000000E+00 -0.00000000000E+00 -0.20090444837E+03  0.20090444837E+03  0.00000000000E+00 0. -1.
         25    2    1    2    0    0  0.30448359550E+02 -0.75990849451E+02  0.26378471368E+03  0.30316500665E+03  0.12499973713E+03 0.  0.
          4    1    3    3  501    0  0.90968664352E+01 -0.10251751517E+03  0.24131081076E+03  0.26234541007E+03  0.12700000000E+01 0. -1.
         -4    1    3    3    0  501  0.21351493114E+02  0.26526665715E+02  0.22473902921E+02  0.40819596576E+02  0.12700000000E+01 0. -1.
          2    1    1    2  502    0 -0.15525224967E+02  0.91600278994E+02  0.15171428426E+03  0.17790128659E+03  0.00000000000E+00 0. -1.
          1    1    1    2  503    0 -0.14923134582E+02 -0.15609429543E+02 -0.16742731985E+03  0.16881428159E+03  0.00000000000E+00 0. -1.
<mgrwt>
<rscale>  0 0.43600361E+02</rscale>
<asrwt>0</asrwt>
<pdfrwt beam="2">  1        2 0.30908377E-01 0.21595236E+02</pdfrwt>
<pdfrwt beam="1">  1        1 0.69073250E-01 0.88028278E+02</pdfrwt>
<totfact> 0.11501346E+03</totfact>
</mgrwt>
</event>
<event>
 7    1  0.5277388E-004  0.7031886E+02  0.7546771E-02  0.1360092E+00
          1   -1    0    0  502    0 -0.00000000000E+00  0.00000000000E+00  0.29929904804E+04  0.29929904804E+04  0.00000000000E+00 0. -1.
          2   -1    0    0  503    0  0.00000000000E+00 -0.00000000000E+00 -0.10156230753E+03  0.10156230753E+03  0.00000000000E+00 0. -1.
         25    2    1    2    0    0  0.88770432347E+01  0.17749242280E+02  0.10367939112E+03  0.16361077222E+03  0.12500092458E+03 0.  0.
          4    1    3    3  501    0  0.44015589178E+02 -0.27932819247E+02  0.92270864337E+01  0.52956269750E+02  0.12700000000E+01 0.  1.
         -4    1    3    3    0  501 -0.35138545943E+02  0.45682061527E+02  0.94452304688E+02  0.11065450247E+03  0.12700000000E+01 0.  1.
          2    1    1    2  502    0  0.57428634629E+02 -0.41165035986E+02  0.28415336702E+04  0.28424120403E+04  0.00000000000E+00 0. -1.
          1    1    1    2  503    0 -0.66305677864E+02  0.23415793705E+02 -0.53784888449E+02  0.88529975360E+02  0.00000000000E+00 0. -1.
<mgrwt>
<rscale>  0 0.70000453E+02</rscale>
<asrwt>0</asrwt>
<pdfrwt beam="2">  1        2 0.15624973E-01 0.70318862E+02</pdfrwt>
<pdfrwt beam="1">  1        1 0.46046001E+00 0.69683485E+02</pdfrwt>
<totfact> 0.43694085E+01</totfact>
</mgrwt>
</event>
<event>
 7    1  0.5277388E-004  0.3544014E+02  0.7546771E-02  0.1566785E+00
         -1   -1    0    0    0  501 -0.00000000000E+00  0.00000000000E+00  0.30581142884E+03  0.30581142884E+03  0.00000000000E+00 0.  1.
          1   -1    0    0  503    0  0.00000000000E+00 -0.00000000000E+00 -0.88157721502E+03  0.88157721502E+03  0.00000000000E+00 0. -1.
         25    2    1    2    0    0 -0.15732505024E+02  0.51705713918E+02 -0.30510913216E+03  0.33412345184E+03  0.12500362385E+03 0.  0.
          4    1    3    3  502    0 -0.63023920507E+02  0.41318435330E+02 -0.11176320402E+03  0.13480302047E+03  0.12700000000E+01 0. -1.
         -4    1    3    3    0  502  0.47291415483E+02  0.10387278588E+02 -0.19334592813E+03  0.19932043137E+03  0.12700000000E+01 0. -1.
          2    1    1    2  503    0  0.26541718223E+02 -0.22873877169E+02 -0.56059876123E+03  0.56169266343E+03  0.00000000000E+00 0. -1.
         -2    1    1    2    0  501 -0.10809213199E+02 -0.28831836749E+02  0.28994210720E+03  0.29157252859E+03  0.00000000000E+00 0.  1.
<mgrwt>
<rscale>  0 0.33034128E+02</rscale>
<asrwt>0</asrwt>
<pdfrwt beam="2">  1        1 0.13562726E+00 0.35440140E+02</pdfrwt>
<pdfrwt beam="1">  1       -1 0.47047913E-01 0.30791458E+02</pdfrwt>
<totfact> 0.10350473E+02</totfact>
</mgrwt>
</event>
<event>
 7    1  0.5277388E-004  0.5090689E+02  0.7546771E-02  0.1571289E+00
         -2   -1    0    0    0  501 -0.00000000000E+00  0.00000000000E+00  0.19207088599E+03  0.19207088599E+03  0.00000000000E+00 0.  1.
          2   -1    0    0  503    0  0.00000000000E+00 -0.00000000000E+00 -0.70284898065E+03  0.70284898065E+03  0.00000000000E+00 0. -1.
         25    2    1    2    0    0 -0.31820345417E+02  0.55962612343E+02  0.61082495656E+01  0.14072846259E+03  0.12499136414E+03 0.  0.
          4    1    3    3  502    0 -0.73267858969E+02  0.32059655507E+02  0.32191119210E+02  0.86219961292E+02  0.12700000000E+01 0.  1.
         -4    1    3    3    0  502  0.41447513552E+02  0.23902956836E+02 -0.26082869645E+02  0.54508501301E+02  0.12700000000E+01 0.  1.
          1    1    1    2  503    0 -0.34917783566E+01 -0.20545345449E+02 -0.63008865831E+03  0.63043320111E+03  0.00000000000E+00 0. -1.
         -1    1    1    2    0  501  0.35312123774E+02 -0.35417266893E+02  0.11320231409E+03  0.12375820294E+03  0.00000000000E+00 0.  1.
<mgrwt>
<rscale>  0 0.32571420E+02</rscale>
<asrwt>0</asrwt>
<pdfrwt beam="2">  1        2 0.10813061E+00 0.20839955E+02</pdfrwt>
<pdfrwt beam="1">  1       -2 0.29549367E-01 0.50906894E+02</pdfrwt>
<totfact> 0.46046379E+02</totfact>
</mgrwt>
</event>
<event>
 7    1  0.5277388E-004  0.1561596E+03  0.7546771E-02  0.1360868E+00
          1   -1    0    0  503    0  0.00000000000E+00  0.00000000000E+00  0.22074238179E+04  0.22074238179E+04  0.00000000000E+00 0. -1.
         -1   -1    0    0    0  501 -0.00000000000E+00 -0.00000000000E+00 -0.50826146215E+03  0.50826146215E+03  0.00000000000E+00 0.  1.
         25    2    1    2    0    0  0.11995908606E+03  0.14247624841E+03  0.76712169854E+03  0.79924419351E+03  0.12500366717E+03 0.  0.
          4    1    3    3  502    0 -0.22079643854E+02  0.15555173351E+02  0.45720316286E+02  0.53117175301E+02  0.12700000000E+01 0. -1.
         -4    1    3    3    0  502  0.14203872991E+03  0.12692107506E+03  0.72140138225E+03  0.74612701821E+03  0.12700000000E+01 0. -1.
          2    1    1    2  503    0 -0.24046512007E+02 -0.19840121357E+02  0.14117530101E+04  0.14120971732E+04  0.00000000000E+00 0. -1.
         -2    1    1    2    0  501 -0.95912574052E+02 -0.12263612705E+03 -0.47971235281E+03  0.50434391337E+03  0.00000000000E+00 0.  1.
<mgrwt>
<rscale>  0 0.69772755E+02</rscale>
<asrwt>0</asrwt>
<pdfrwt beam="1">  1        1 0.33960366E+00 0.31174752E+02</pdfrwt>
<pdfrwt beam="2">  1       -1 0.78194072E-01 0.15615962E+03</pdfrwt>
<totfact> 0.58765236E+00</totfact>
</mgrwt>
</event>
<event>
 7    1  0.5277388E-004  0.6639604E+02  0.7546771E-02  0.1412582E+00
          1   -1    0    0  502    0 -0.00000000000E+00  0.00000000000E+00  0.62678335328E+03  0.62678335328E+03  0.00000000000E+00 0. -1.
          2   -1    0    0  503    0  0.00000000000E+00 -0.00000000000E+00 -0.31881205581E+03  0.31881205581E+03  0.00000000000E+00 0. -1.
         25    2    1    2    0    0 -0.33587304545E+02 -0.41126991615E+02  0.23901441920E+03  0.27490805422E+03  0.12500803663E+03 0.  0.
          4    1    3    3  501    0 -0.18324584327E+02 -0.80587131795E+02  0.20353383503E+03  0.21967637812E+03  0.12700000000E+01 0. -1.
         -4    1    3    3    0  501 -0.15262720218E+02  0.39460140181E+02  0.35480584171E+02  0.55231676099E+02  0.12700000000E+01 0. -1.
          2    1    1    2  502    0 -0.32975346378E+02  0.35273089504E+02  0.36450016968E+03  0.36768456319E+03  0.00000000000E+00 0. -1.
          1    1    1    2  503    0  0.66562650922E+02  0.58539021107E+01 -0.29554329142E+03  0.30300279168E+03  0.00000000000E+00 0. -1.
<mgrwt>
<rscale>  0 0.56621704E+02</rscale>
<asrwt>0</asrwt>
<pdfrwt beam="2">  1        2 0.49048009E-01 0.66396039E+02</pdfrwt>
<pdfrwt beam="1">  1        1 0.96428208E-01 0.48286275E+02</pdfrwt>
<totfact> 0.48813554E+02</totfact>
</mgrwt>
</event>
<event>
 7    1  0.5277388E-004  0.5575297E+02  0.7546771E-02  0.1497649E+00
          1   -1    0    0  503    0  0.00000000000E+00  0.00000000000E+00  0.53992491627E+03  0.53992491627E+03  0.00000000000E+00 0. -1.
         -1   -1    0    0    0  501 -0.00000000000E+00 -0.00000000000E+00 -0.22253337982E+03  0.22253337982E+03  0.00000000000E+00 0.  1.
         25    2    1    2    0    0  0.24281576501E+02  0.29203004195E+02  0.34961190176E+03  0.37322488137E+03  0.12500367920E+03 0.  0.
          4    1    3    3  502    0 -0.37394493737E+02 -0.15366174859E+02  0.51137512898E+02  0.65200656569E+02  0.12700000000E+01 0. -1.
         -4    1    3    3    0  502  0.61676070238E+02  0.44569179054E+02  0.29847438886E+03  0.30802422480E+03  0.12700000000E+01 0. -1.
          2    1    1    2  503    0 -0.54222466178E+02 -0.36634381137E+02  0.17130767954E+03  0.18338068270E+03  0.00000000000E+00 0. -1.
         -2    1    1    2    0  501  0.29940889677E+02  0.74313769421E+01 -0.20352804484E+03  0.20585273201E+03  0.00000000000E+00 0.  1.
<mgrwt>
<rscale>  0 0.41472191E+02</rscale>
<asrwt>0</asrwt>
<pdfrwt beam="1">  1        1 0.83065371E-01 0.55752965E+02</pdfrwt>
<pdfrwt beam="2">  1       -1 0.34235905E-01 0.30849347E+02</pdfrwt>
<totfact> 0.33789940E+02</totfact>
</mgrwt>
</event>
<event>
 7    1  0.5277388E-004  0.7658232E+02  0.7546771E-02  0.1488827E+00
         -1   -1    0    0    0  501 -0.00000000000E+00  0.00000000000E+00  0.32724550102E+03  0.32724550102E+03  0.00000000000E+00 0.  1.
          1   -1    0    0  503    0  0.00000000000E+00 -0.00000000000E+00 -0.21987761195E+04  0.21987761195E+04  0.00000000000E+00 0. -1.
         25    2    1    2    0    0 -0.71396383775E+02 -0.21029162881E+02 -0.72189743311E+03  0.73641078982E+03  0.12500111250E+03 0.  0.
          4    1    3    3  502    0 -0.79312205889E+02 -0.51130433325E+02 -0.66392875049E+03  0.67060252448E+03  0.12700000000E+01 0. -1.
         -4    1    3    3    0  502  0.79158221140E+01  0.30101270444E+02 -0.57968682621E+02  0.65808265339E+02  0.12700000000E+01 0. -1.
          2    1    1    2  503    0  0.63822652242E+02  0.43671913785E+02 -0.14681575414E+04  0.14701928898E+04  0.00000000000E+00 0. -1.
         -2    1    1    2    0  501  0.75737315328E+01 -0.22642750904E+02  0.31852435601E+03  0.31941794087E+03  0.00000000000E+00 0.  1.
<mgrwt>
<rscale>  0 0.42760577E+02</rscale>
<asrwt>0</asrwt>
<pdfrwt beam="2">  1        1 0.33827325E+00 0.76582319E+02</pdfrwt>
<pdfrwt beam="1">  1       -1 0.50345461E-01 0.23875837E+02</pdfrwt>
<totfact> 0.12238886E+01</totfact>
</mgrwt>
</event>
<event>
 7    1  0.5277388E-004  0.9882801E+02  0.7546771E-02  0.1357348E+00
         -2   -1    0    0    0  501 -0.00000000000E+00  0.00000000000E+00  0.61779895111E+02  0.61779895111E+02  0.00000000000E+00 0.  1.
          2   -1    0    0  503    0  0.00000000000E+00 -0.00000000000E+00 -0.54469960586E+03  0.54469960586E+03  0.00000000000E+00 0. -1.
         25    2    1    2    0    0  0.13370385389E+03 -0.44928314244E+02 -0.18202587788E+03  0.26201899089E+03  0.12500102960E+03 0.  0.
          4    1    3    3  502    0  0.12366312013E+03 -0.61587716514E+02 -0.83168725833E+02  0.16125837641E+03  0.12700000000E+01 0. -1.
         -4    1    3    3    0  502  0.10040733762E+02  0.16659402270E+02 -0.98857152050E+02  0.10076061448E+03  0.12700000000E+01 0. -1.
          1    1    1    2  503    0 -0.88187661985E+02  0.22503632622E+02 -0.27029763808E+03  0.28520920455E+03  0.00000000000E+00 0. -1.
         -1    1    1    2    0  501 -0.45516191908E+02  0.22424681622E+02 -0.30596194776E+02  0.59251305525E+02  0.00000000000E+00 0.  1.
<mgrwt>
<rscale>  0 0.70813662E+02</rscale>
<asrwt>0</asrwt>
<pdfrwt beam="2">  1        2 0.83799935E-01 0.98828013E+02</pdfrwt>
<pdfrwt beam="1">  1       -2 0.95045998E-02 0.50740419E+02</pdfrwt>
<totfact> 0.36898527E+03</totfact>
</mgrwt>
</event>
<event>
 7    1  0.5277388E-004  0.3039927E+02  0.7546771E-02  0.1608468E+00
         -1   -1    0    0    0  502 -0.00000000000E+00  0.00000000000E+00  0.46150550271E+02  0.46150550271E+02  0.00000000000E+00 0.  1.
         -2   -1    0    0    0  501  0.00000000000E+00 -0.00000000000E+00 -0.41795530380E+03  0.41795530380E+03  0.00000000000E+00 0.  1.
         25    2    1    2    0    0 -0.29579634542E+01  0.55774643423E+02 -0.20076597439E+03  0.24300544908E+03  0.12500044564E+03 0.  0.
          4    1    3    3  503    0  0.13170342874E+02  0.45720465783E+02 -0.67688573293E+01  0.48075453741E+02  0.12700000000E+01 0. -1.
         -4    1    3    3    0  503 -0.16128306328E+02  0.10054177639E+02 -0.19399711707E+03  0.19492999534E+03  0.12700000000E+01 0. -1.
         -2    1    1    2    0  502  0.77601800809E+01 -0.28371238890E+02  0.14983031104E+02  0.33009677552E+02  0.00000000000E+00 0.  1.
         -1    1    1    2    0  501 -0.48022166267E+01 -0.27403404533E+02 -0.18602181024E+03  0.18809072744E+03  0.00000000000E+00 0.  1.
<mgrwt>
<rscale>  0 0.29081576E+02</rscale>
<asrwt>0</asrwt>
<pdfrwt beam="2">  1       -2 0.64300817E-01 0.27820997E+02</pdfrwt>
<pdfrwt beam="1">  1       -1 0.71000846E-02 0.30399273E+02</pdfrwt>
<totfact> 0.14748599E+03</totfact>
</mgrwt>
</event>
<event>
 7    1  0.5277388E-004  0.6298795E+02  0.7546771E-02  0.1510861E+00
          1   -1    0    0  502    0 -0.00000000000E+00  0.00000000000E+00  0.67564101135E+02  0.67564101135E+02  0.00000000000E+00 0. -1.
          2   -1    0    0  503    0  0.00000000000E+00 -0.00000000000E+00 -0.85610330083E+03  0.85610330083E+03  0.00000000000E+00 0. -1.
         25    2    1    2    0    0  0.39227550109E+02 -0.47030795966E+02 -0.15770260904E+02  0.14010027806E+03  0.12501476043E+03 0.  0.
          4    1    3    3  501    0  0.36331201777E+02  0.27814952146E+02 -0.40594960521E+02  0.61181627186E+02  0.12700000000E+01 0. -1.
         -4    1    3    3    0  501  0.28963483318E+01 -0.74845748112E+02  0.24824699617E+02  0.78918650870E+02  0.12700000000E+01 0. -1.
          2    1    1    2  502    0 -0.19828703607E+01 -0.24870336185E+02 -0.46256166246E+02  0.52555668701E+02  0.00000000000E+00 0. -1.
          1    1    1    2  503    0 -0.37244679748E+02  0.71901132152E+02 -0.72651277254E+03  0.73101145520E+03  0.00000000000E+00 0. -1.
<mgrwt>
<rscale>  0 0.39642180E+02</rscale>
<asrwt>0</asrwt>
<pdfrwt beam="2">  1        2 0.13170821E+00 0.24949256E+02</pdfrwt>
<pdfrwt beam="1">  1        1 0.10394476E-01 0.62987948E+02</pdfrwt>
<totfact> 0.27179348E+03</totfact>
</mgrwt>
</event>
<event>
 7    1  0.5277388E-004  0.5698704E+02  0.7546771E-02  0.1447451E+00
          1   -1    0    0  502    0 -0.00000000000E+00  0.00000000000E+00  0.20447759023E+04  0.20447759023E+04  0.00000000000E+00 0. -1.
          2   -1    0    0  503    0  0.00000000000E+00 -0.00000000000E+00 -0.65949747246E+03  0.65949747246E+03  0.00000000000E+00 0. -1.
         25    2    1    2    0    0 -0.89801165925E+01 -0.33506241092E+00  0.13875377084E+04  0.13931857581E+04  0.12499963755E+03 0.  0.
          4    1    3    3  501    0  0.12249522020E+01  0.41105548869E+02  0.12057226738E+04  0.12064244467E+04  0.12700000000E+01 0.  1.
         -4    1    3    3    0  501 -0.10205068794E+02 -0.41440611280E+02  0.18181503467E+03  0.18676131137E+03  0.12700000000E+01 0.  1.
          2    1    1    2  502    0  0.42170504095E+02  0.46659151679E+02  0.65166103468E+03  0.65468888181E+03  0.00000000000E+00 0. -1.
          1    1    1    2  503    0 -0.33190387502E+02 -0.46324089268E+02 -0.65392031326E+03  0.65639873489E+03  0.00000000000E+00 0. -1.
<mgrwt>
<rscale>  0 0.49611057E+02</rscale>
<asrwt>0</asrwt>
<pdfrwt beam="2">  1        2 0.10146115E+00 0.56987043E+02</pdfrwt>
<pdfrwt beam="1">  1        1 0.31458091E+00 0.43189765E+02</pdfrwt>
<totfact> 0.25660208E+01</totfact>
</mgrwt>
</event>
<event>
 7    1  0.5277388E-004  0.1189936E+03  0.7546771E-02  0.1294569E+00
          1   -1    0    0  502    0 -0.00000000000E+00  0.00000000000E+00  0.10452856470E+03  0.10452856470E+03  0.00000000000E+00 0. -1.
          2   -1    0    0  503    0  0.00000000000E+00 -0.00000000000E+00 -0.47085026363E+03  0.47085026363E+03  0.00000000000E+00 0. -1.
         25    2    1    2    0    0  0.15550354662E+02 -0.13366925531E+03 -0.71082007349E+02  0.19694452680E+03  0.12500084608E+03 0.  0.
          4    1    3    3  501    0  0.53987550768E+02 -0.12542203397E+03 -0.29493762865E+02  0.13970267425E+03  0.12700000000E+01 0.  1.
         -4    1    3    3    0  501 -0.38437196105E+02 -0.82472213403E+01 -0.41588244484E+02  0.57241852551E+02  0.12700000000E+01 0.  1.
          2    1    1    2  502    0  0.60570894726E+02  0.41604281385E+02 -0.16697068239E+02  0.75356098660E+02  0.00000000000E+00 0. -1.
          1    1    1    2  503    0 -0.76121249389E+02  0.92064973927E+02 -0.27854262335E+03  0.30307820287E+03  0.00000000000E+00 0. -1.
<mgrwt>
<rscale>  0 0.93509384E+02</rscale>
<asrwt>0</asrwt>
<pdfrwt beam="2">  1        2 0.72438502E-01 0.11899360E+03</pdfrwt>
<pdfrwt beam="1">  1        1 0.16081318E-01 0.73482988E+02</pdfrwt>
<totfact> 0.29364749E+03</totfact>
</mgrwt>
</event>
<event>
 7    1  0.5277388E-004  0.6010161E+02  0.7546771E-02  0.1503565E+00
          1   -1    0    0  502    0 -0.00000000000E+00  0.00000000000E+00  0.18298801260E+04  0.18298801260E+04  0.00000000000E+00 0. -1.
          2   -1    0    0  503    0  0.00000000000E+00 -0.00000000000E+00 -0.14605991664E+03  0.14605991664E+03  0.00000000000E+00 0. -1.
         25    2    1    2    0    0  0.81281148553E+02 -0.20167033687E+02  0.86278025744E+03  0.87580128260E+03  0.12499911847E+03 0.  0.
          4    1    3    3  501    0  0.29213862716E+02 -0.27305387728E+02  0.75321857378E+03  0.75428036350E+03  0.12700000000E+01 0.  1.
         -4    1    3    3    0  501  0.52067285837E+02  0.71383540412E+01  0.10956168366E+03  0.12152091910E+03  0.12700000000E+01 0.  1.
          2    1    1    2  502    0 -0.26979946487E+02 -0.52086158586E+01  0.95394641359E+03  0.95434208081E+03  0.00000000000E+00 0. -1.
          1    1    1    2  503    0 -0.54301202065E+02  0.25375649545E+02 -0.13290646165E+03  0.14579667926E+03  0.00000000000E+00 0. -1.
<mgrwt>
<rscale>  0 0.40638399E+02</rscale>
<asrwt>0</asrwt>
<pdfrwt beam="2">  1        2 0.22470758E-01 0.60101614E+02</pdfrwt>
<pdfrwt beam="1">  1        1 0.28152000E+00 0.27478122E+02</pdfrwt>
<totfact> 0.17981251E+02</totfact>
</mgrwt>
</event>
<event>
 7    1  0.5277388E-004  0.9421963E+02  0.7546771E-02  0.1293444E+00
          2   -1    0    0  503    0  0.00000000000E+00  0.00000000000E+00  0.10592103259E+04  0.10592103259E+04  0.00000000000E+00 0. -1.
         -2   -1    0    0    0  501 -0.00000000000E+00 -0.00000000000E+00 -0.77642811811E+02  0.77642811811E+02  0.00000000000E+00 0.  1.
         25    2    1    2    0    0 -0.28579816097E+02 -0.67181226338E+01  0.40947560620E+03  0.42913700647E+03  0.12500543664E+03 0.  0.
          4    1    3    3  502    0  0.39583298651E+01 -0.15727537373E+02 -0.18982552453E+01  0.16378036516E+02  0.12700000000E+01 0.  1.
         -4    1    3    3    0  502 -0.32538145962E+02  0.90094147389E+01  0.41137386145E+03  0.41275896995E+03  0.12700000000E+01 0.  1.
          1    1    1    2  503    0 -0.31327847096E+02  0.88858901748E+02  0.59589725687E+03  0.60329999103E+03  0.00000000000E+00 0. -1.
         -1    1    1    2    0  501  0.59907663193E+02 -0.82140779115E+02 -0.23805348963E+02  0.10441614024E+03  0.00000000000E+00 0.  1.
<mgrwt>
<rscale>  0 0.94000353E+02</rscale>
<asrwt>0</asrwt>
<pdfrwt beam="1">  1        2 0.16295542E+00 0.94219629E+02</pdfrwt>
<pdfrwt beam="2">  1       -2 0.11945049E-01 0.93781588E+02</pdfrwt>
<totfact> 0.12060386E+03</totfact>
</mgrwt>
</event>
<event>
 7    1  0.5277388E-004  0.6264338E+02  0.7546771E-02  0.1426252E+00
         -2   -1    0    0    0  501  0.00000000000E+00  0.00000000000E+00  0.38214404557E+02  0.38214404557E+02  0.00000000000E+00 0.  1.
         -1   -1    0    0    0  502 -0.00000000000E+00 -0.00000000000E+00 -0.17871171605E+04  0.17871171605E+04  0.00000000000E+00 0.  1.
         25    2    1    2    0    0 -0.71437328649E+02 -0.73154755924E+02 -0.80065986096E+03  0.81678485042E+03  0.12500547459E+03 0.  0.
          4    1    3    3  503    0 -0.70688315388E+02 -0.99589697744E+02 -0.48972495889E+03  0.50472477064E+03  0.12700000000E+01 0.  1.
         -4    1    3    3    0  503 -0.74901326022E+00  0.26434941820E+02 -0.31093490207E+03  0.31206007978E+03  0.12700000000E+01 0.  1.
         -2    1    1    2    0  502  0.41662613449E+02  0.19658042342E+02 -0.94616625098E+03  0.94728706657E+03  0.00000000000E+00 0.  1.
         -1    1    1    2    0  501  0.29774715199E+02  0.53496713582E+02 -0.20766439790E+01  0.61259648052E+02  0.00000000000E+00 0.  1.
<mgrwt>
<rscale>  0 0.53719848E+02</rscale>
<asrwt>0</asrwt>
<pdfrwt beam="1">  1       -2 0.58791405E-02 0.62643378E+02</pdfrwt>
<pdfrwt beam="2">  1       -1 0.27494104E+00 0.46067472E+02</pdfrwt>
<totfact> 0.67957945E+01</totfact>
</mgrwt>
</event>
<event>
 7    1  0.5277388E-004  0.4134866E+02  0.7546771E-02  0.1546983E+00
          1   -1    0    0  502    0 -0.00000000000E+00  0.00000000000E+00  0.86079509938E+02  0.86079509938E+02  0.00000000000E+00 0. -1.
          2   -1    0    0  503    0  0.00000000000E+00 -0.00000000000E+00 -0.31967971299E+03  0.31967971299E+03  0.00000000000E+00 0. -1.
         25    2    1    2    0    0  0.41275998595E+01 -0.32715670478E+02 -0.13210396152E+03  0.18480886097E+03  0.12496201929E+03 0.  0.
          4    1    3    3  501    0  0.50106437786E+02  0.24197690456E+02 -0.64370668864E+02  0.85096293932E+02  0.12700000000E+01 0. -1.
         -4    1    3    3    0  501 -0.45978837927E+02 -0.56913360933E+02 -0.67733292661E+02  0.99712567034E+02  0.12700000000E+01 0. -1.
          2    1    1    2  502    0  0.25801056409E+02  0.33395462414E+02  0.50627079597E+02  0.65909427325E+02  0.00000000000E+00 0. -1.
          3    1    1    2  503    0 -0.29928656269E+02 -0.67979193649E+00 -0.15212332112E+03  0.15504093464E+03  0.00000000000E+00 0. -1.
<mgrwt>
<rscale>  0 0.35182793E+02</rscale>
<asrwt>0</asrwt>
<pdfrwt beam="2">  1        2 0.49181494E-01 0.29936376E+02</pdfrwt>
<pdfrwt beam="1">  1        1 0.13243002E-01 0.41348656E+02</pdfrwt>
<totfact> 0.54232685E+03</totfact>
</mgrwt>
</event>
<event>
 7    1  0.5277388E-004  0.1353554E+03  0.7546771E-02  0.1284499E+00
         -2   -1    0    0    0  501 -0.00000000000E+00  0.00000000000E+00  0.60657252561E+02  0.60657252561E+02  0.00000000000E+00 0.  1.
          2   -1    0    0  503    0  0.00000000000E+00 -0.00000000000E+00 -0.92514899633E+03  0.92514899633E+03  0.00000000000E+00 0. -1.
         25    2    1    2    0    0  0.52412647146E+02 -0.16540323874E+03 -0.34301532177E+03  0.40421584802E+03  0.12500249540E+03 0.  0.
          4    1    3    3  502    0  0.62827234400E+02 -0.18168368164E+03 -0.29154948337E+03  0.34922619562E+03  0.12700000000E+01 0. -1.
         -4    1    3    3    0  502 -0.10414587255E+02  0.16280442898E+02 -0.51465838397E+02  0.54989652395E+02  0.12700000000E+01 0. -1.
          1    1    1    2  503    0  0.22587937826E+02  0.67305036464E+02 -0.40719912824E+03  0.41334164187E+03  0.00000000000E+00 0. -1.
         -1    1    1    2    0  501 -0.75000584972E+02  0.98098202274E+02 -0.11427729377E+03  0.16824875900E+03  0.00000000000E+00 0.  1.
<mgrwt>
<rscale>  0 0.98027838E+02</rscale>
<asrwt>0</asrwt>
<pdfrwt beam="2">  1        2 0.14233060E+00 0.70994245E+02</pdfrwt>
<pdfrwt beam="1">  1       -2 0.93318858E-02 0.13535543E+03</pdfrwt>
<totfact> 0.22106999E+03</totfact>
</mgrwt>
</event>
<event>
 7    1  0.5277388E-004  0.6206691E+02  0.7546771E-02  0.1472895E+00
          1   -1    0    0  502    0 -0.00000000000E+00  0.00000000000E+00  0.14991324831E+04  0.14991324831E+04  0.00000000000E+00 0. -1.
          2   -1    0    0  503    0  0.00000000000E+00 -0.00000000000E+00 -0.75285448289E+03  0.75285448289E+03  0.00000000000E+00 0. -1.
         25    2    1    2    0    0  0.65812072414E+02 -0.41327043265E+02 -0.18861356273E+03  0.23924946079E+03  0.12500430019E+03 0.  0.
          4    1    3    3  501    0 -0.34764667432E+02 -0.48697943172E+01 -0.22671946242E+02  0.41808217431E+02  0.12700000000E+01 0.  1.
         -4    1    3    3    0  501  0.10057673985E+03 -0.36457248948E+02 -0.16594161648E+03  0.19744124336E+03  0.12700000000E+01 0.  1.
          2    1    1    2  502    0 -0.31527984183E+02 -0.96238479772E+01  0.14718798883E+04  0.14722489728E+04  0.00000000000E+00 0. -1.
          1    1    1    2  503    0 -0.34284088231E+02  0.50950891243E+02 -0.53698832541E+03  0.54048853239E+03  0.00000000000E+00 0. -1.
<mgrwt>
<rscale>  0 0.45232512E+02</rscale>
<asrwt>0</asrwt>
<pdfrwt beam="2">  1        2 0.11582377E+00 0.62066909E+02</pdfrwt>
<pdfrwt beam="1">  1        1 0.23063577E+00 0.32964105E+02</pdfrwt>
<totfact> 0.48709425E+01</totfact>
</mgrwt>
</event>
<event>
 7    1  0.5277388E-004  0.2505248E+02  0.7546771E-02  0.1681047E+00
          2   -1    0    0  503    0  0.00000000000E+00  0.00000000000E+00  0.46882060034E+03  0.46882060034E+03  0.00000000000E+00 0. -1.
         -2   -1    0    0    0  501 -0.00000000000E+00 -0.00000000000E+00 -0.49698478829E+02  0.49698478829E+02  0.00000000000E+00 0.  1.
         25    2    1    2    0    0 -0.57268572250E+01  0.43704197258E+02  0.30494462248E+03  0.33250164301E+03  0.12499306410E+03 0.  0.
          4    1    3    3  502    0 -0.44507348650E+02  0.24597534170E+02  0.41836353396E+02  0.65862251226E+02  0.12700000000E+01 0. -1.
         -4    1    3    3    0  502  0.38780491425E+02  0.19106663088E+02  0.26310826909E+03  0.26663939178E+03  0.12700000000E+01 0. -1.
          1    1    1    2  503    0  0.97800170255E+01 -0.21732078026E+02  0.14555774657E+03  0.14749572717E+03  0.00000000000E+00 0. -1.
         -1    1    1    2    0  501 -0.40531598005E+01 -0.21972119232E+02 -0.31380247537E+02  0.38521708988E+02  0.00000000000E+00 0.  1.
<mgrwt>
<rscale>  0 0.23658894E+02</rscale>
<asrwt>0</asrwt>
<pdfrwt beam="1">  1        2 0.72126243E-01 0.25052477E+02</pdfrwt>
<pdfrwt beam="2">  1       -2 0.76459202E-02 0.22342832E+02</pdfrwt>
<totfact> 0.55883381E+03</totfact>
</mgrwt>
</event>
<event>
 7    1  0.5277388E-004  0.9588970E+02  0.7546771E-02  0.1358019E+00
         -2   -1    0    0    0  501  0.00000000000E+00  0.00000000000E+00  0.16093640382E+04  0.16093640382E+04  0.00000000000E+00 0.  1.
         -1   -1    0    0    0  502 -0.00000000000E+00 -0.00000000000E+00 -0.56771157053E+03  0.56771157053E+03  0.00000000000E+00 0.  1.
         25    2    1    2    0    0 -0.88999843821E+02 -0.11495393453E+03  0.20532382218E+03  0.28092218914E+03  0.12499610047E+03 0.  0.
          4    1    3    3  503    0 -0.31912846475E+02 -0.11314592213E+03  0.18707167703E+03  0.22094762889E+03  0.12700000000E+01 0. -1.
         -4    1    3    3    0  503 -0.57086997346E+02 -0.18080123956E+01  0.18252145156E+02  0.59974560254E+02  0.12700000000E+01 0. -1.
         -2    1    1    2    0  502  0.27539817893E+02  0.44108335696E+02 -0.52702170645E+03  0.52958083983E+03  0.00000000000E+00 0.  1.
         -1    1    1    2    0  501  0.61460025928E+02  0.70845598829E+02  0.13633503519E+04  0.13665725798E+04  0.00000000000E+00 0.  1.
<mgrwt>
<rscale>  0 0.70613401E+02</rscale>
<asrwt>0</asrwt>
<pdfrwt beam="1">  1       -2 0.24759447E+00 0.95889701E+02</pdfrwt>
<pdfrwt beam="2">  1       -1 0.87340242E-01 0.51999874E+02</pdfrwt>
<totfact> 0.87490099E-01</totfact>
</mgrwt>
</event>
<event>
 7    1  0.5277388E-004  0.2335673E+03  0.7546771E-02  0.1147765E+00
          1   -1    0    0  502    0 -0.00000000000E+00  0.00000000000E+00  0.12395579737E+04  0.12395579737E+04  0.00000000000E+00 0. -1.
          2   -1    0    0  503    0  0.00000000000E+00 -0.00000000000E+00 -0.14965012158E+04  0.14965012158E+04  0.00000000000E+00 0. -1.
         25    2    1    2    0    0 -0.47881340491E+02 -0.21803248158E+03  0.13770603253E+03  0.29054858286E+03  0.12499896727E+03 0.  0.
          4    1    3    3  501    0  0.28185930296E+02 -0.51873299142E+02 -0.41637365287E+01  0.59196582946E+02  0.12700000000E+01 0. -1.
         -4    1    3    3    0  501 -0.76067270787E+02 -0.16615918244E+03  0.14186976906E+03  0.23135199992E+03  0.12700000000E+01 0. -1.
          2    1    1    2  502    0  0.20371355325E+03  0.13770468304E+03  0.10051429885E+04  0.10347822084E+04  0.00000000000E+00 0. -1.
          1    1    1    2  503    0 -0.15583221275E+03  0.80327798536E+02 -0.13997922631E+04  0.14107283982E+04  0.00000000000E+00 0. -1.
<mgrwt>
<rscale>  0 0.20235719E+03</rscale>
<asrwt>0</asrwt>
<pdfrwt beam="2">  1        2 0.23023095E+00 0.17531752E+03</pdfrwt>
<pdfrwt beam="1">  1        1 0.19070123E+00 0.23356726E+03</pdfrwt>
<totfact> 0.21253710E+01</totfact>
</mgrwt>
</event>
<event>
 7    1  0.5277388E-004  0.8565645E+02  0.7546771E-02  0.1474215E+00
          2   -1    0    0  503    0  0.00000000000E+00  0.00000000000E+00  0.54961751079E+03  0.54961751079E+03  0.00000000000E+00 0. -1.
          1   -1    0    0  502    0 -0.00000000000E+00 -0.00000000000E+00 -0.19887629668E+03  0.19887629668E+03  0.00000000000E+00 0. -1.
         25    2    1    2    0    0 -0.92044046640E+02 -0.74142872313E+01  0.22079028386E+03  0.26999935589E+03  0.12499689818E+03 0.  0.
          4    1    3    3  501    0 -0.65637627297E+02  0.55517401031E+02  0.10645677138E+03  0.13683982244E+03  0.12700000000E+01 0.  1.
         -4    1    3    3    0  501 -0.26406419342E+02 -0.62931688263E+02  0.11433351248E+03  0.13315953344E+03  0.12700000000E+01 0.  1.
          2    1    1    2  502    0  0.84183755347E+02 -0.14904327081E+02 -0.16328130351E+03  0.18430905487E+03  0.00000000000E+00 0. -1.
          1    1    1    2  503    0  0.78602912928E+01  0.22318614312E+02  0.29323223376E+03  0.29418539671E+03  0.00000000000E+00 0. -1.
<mgrwt>
<rscale>  0 0.45020319E+02</rscale>
<asrwt>0</asrwt>
<pdfrwt beam="1">  1        2 0.84556540E-01 0.23662306E+02</pdfrwt>
<pdfrwt beam="2">  1        1 0.30596353E-01 0.85656451E+02</pdfrwt>
<totfact> 0.11499443E+03</totfact>
</mgrwt>
</event>
<event>
 7    1  0.5277388E-004  0.7660544E+02  0.7546771E-02  0.1342326E+00
          1   -1    0    0  502    0 -0.00000000000E+00  0.00000000000E+00  0.14492652120E+03  0.14492652120E+03  0.00000000000E+00 0. -1.
          2   -1    0    0  503    0  0.00000000000E+00 -0.00000000000E+00 -0.23629499490E+04  0.23629499490E+04  0.00000000000E+00 0. -1.
         25    2    1    2    0    0 -0.57453709336E+02  0.88731880432E+02 -0.60534176307E+03  0.62708957324E+03  0.12501362896E+03 0.  0.
          4    1    3    3  501    0  0.31207916352E+02  0.64700410469E+02 -0.26664016757E+03  0.27614972210E+03  0.12700000000E+01 0. -1.
         -4    1    3    3    0  501 -0.88661625688E+02  0.24031469963E+02 -0.33870159550E+03  0.35093985113E+03  0.12700000000E+01 0. -1.
          2    1    1    2  502    0  0.73116204743E+02 -0.13831078228E+02  0.12281749980E+03  0.14360158905E+03  0.00000000000E+00 0. -1.
          1    1    1    2  503    0 -0.15662495406E+02 -0.74900802204E+02 -0.17354991645E+04  0.17371853079E+04  0.00000000000E+00 0. -1.
<mgrwt>
<rscale>  0 0.75501207E+02</rscale>
<asrwt>0</asrwt>
<pdfrwt beam="2">  1        2 0.36353073E+00 0.76605443E+02</pdfrwt>
<pdfrwt beam="1">  1        1 0.22296390E-01 0.74412889E+02</pdfrwt>
<totfact> 0.16235834E+02</totfact>
</mgrwt>
</event>
<event>
 7    1  0.5277388E-004  0.4345574E+02  0.7546771E-02  0.1501864E+00
          2   -1    0    0  503    0  0.00000000000E+00  0.00000000000E+00  0.14668295439E+04  0.14668295439E+04  0.00000000000E+00 0. -1.
         -2   -1    0    0    0  501 -0.00000000000E+00 -0.00000000000E+00 -0.31676992969E+02  0.31676992969E+02  0.00000000000E+00 0.  1.
         25    2    1    2    0    0  0.67666881307E+02  0.35652157685E+02  0.10253309579E+04  0.10357495725E+04  0.12499488222E+03 0.  0.
          4    1    3    3  502    0 -0.39788527412E+01 -0.31031621879E+02  0.89613602664E+02  0.94926305669E+02  0.12700000000E+01 0.  1.
         -4    1    3    3    0  502  0.71645734048E+02  0.66683779564E+02  0.93571735521E+03  0.94082326682E+03  0.12700000000E+01 0.  1.
          1    1    1    2  503    0 -0.25235976918E+02 -0.29008001456E+02  0.41738151771E+03  0.41914872063E+03  0.00000000000E+00 0. -1.
         -1    1    1    2    0  501 -0.42430904389E+02 -0.66441562290E+01 -0.75599246755E+01  0.43608243720E+02  0.00000000000E+00 0.  1.
<mgrwt>
<rscale>  0 0.40875737E+02</rscale>
<asrwt>0</asrwt>
<pdfrwt beam="1">  1        2 0.22566603E+00 0.38448910E+02</pdfrwt>
<pdfrwt beam="2">  1       -2 0.48733847E-02 0.43455741E+02</pdfrwt>
<totfact> 0.28403674E+03</totfact>
</mgrwt>
</event>
<event>
 7    1  0.5277388E-004  0.2544678E+03  0.7546771E-02  0.1261615E+00
          2   -1    0    0  503    0  0.00000000000E+00  0.00000000000E+00  0.16086815890E+03  0.16086815890E+03  0.00000000000E+00 0. -1.
          1   -1    0    0  502    0 -0.00000000000E+00 -0.00000000000E+00 -0.35932357924E+04  0.35932357924E+04  0.00000000000E+00 0. -1.
         25    2    1    2    0    0  0.21723975900E+03  0.14663400575E+03 -0.50307905887E+03  0.58086840668E+03  0.12499968747E+03 0.  0.
          4    1    3    3  501    0  0.22480923565E+03  0.11544203129E+03 -0.40228849343E+03  0.47508283474E+03  0.12700000000E+01 0. -1.
         -4    1    3    3    0  501 -0.75694766460E+01  0.31191974467E+02 -0.10079056545E+03  0.10578557194E+03  0.12700000000E+01 0. -1.
          2    1    1    2  502    0 -0.35911554496E+02  0.30421657622E+02 -0.29192226759E+04  0.29196020531E+04  0.00000000000E+00 0. -1.
          1    1    1    2  503    0 -0.18132820451E+03 -0.17705566337E+03 -0.10065898694E+02  0.25363349148E+03  0.00000000000E+00 0. -1.
<mgrwt>
<rscale>  0 0.10943736E+03</rscale>
<asrwt>0</asrwt>
<pdfrwt beam="1">  1        2 0.24748949E-01 0.25446784E+03</pdfrwt>
<pdfrwt beam="2">  1        1 0.55280547E+00 0.47065029E+02</pdfrwt>
<totfact> 0.11156850E+01</totfact>
</mgrwt>
</event>
<event>
 7    1  0.5277388E-004  0.2949245E+02  0.7546771E-02  0.1619665E+00
         -2   -1    0    0    0  501 -0.00000000000E+00  0.00000000000E+00  0.27648349010E+03  0.27648349010E+03  0.00000000000E+00 0.  1.
          2   -1    0    0  503    0  0.00000000000E+00 -0.00000000000E+00 -0.13177899003E+04  0.13177899003E+04  0.00000000000E+00 0. -1.
         25    2    1    2    0    0  0.13834106649E+02 -0.54222740674E+02 -0.27366191066E+03  0.30601781131E+03  0.12499828552E+03 0.  0.
          4    1    3    3  502    0 -0.46958986412E+02 -0.13336129816E+01 -0.15948117900E+03  0.16626119296E+03  0.12700000000E+01 0.  1.
         -4    1    3    3    0  502  0.60793093061E+02 -0.52889127692E+02 -0.11418073166E+03  0.13975661836E+03  0.12700000000E+01 0.  1.
          1    1    1    2  503    0 -0.62403186574E+01  0.28478756615E+02 -0.10270507353E+04  0.10274644490E+04  0.00000000000E+00 0. -1.
         -1    1    1    2    0  501 -0.75937879919E+01  0.25743984058E+02  0.25940623579E+03  0.26079113002E+03  0.00000000000E+00 0.  1.
<mgrwt>
<rscale>  0 0.28135304E+02</rscale>
<asrwt>0</asrwt>
<pdfrwt beam="2">  1        2 0.20273690E+00 0.29492450E+02</pdfrwt>
<pdfrwt beam="1">  1       -2 0.42535922E-01 0.26840610E+02</pdfrwt>
<totfact> 0.10520521E+02</totfact>
</mgrwt>
</event>
<event>
 7    1  0.5277388E-004  0.5570764E+02  0.7546771E-02  0.1420309E+00
          2   -1    0    0  503    0  0.00000000000E+00  0.00000000000E+00  0.10429343766E+03  0.10429343766E+03  0.00000000000E+00 0. -1.
          1   -1    0    0  502    0 -0.00000000000E+00 -0.00000000000E+00 -0.25350564857E+04  0.25350564857E+04  0.00000000000E+00 0. -1.
         25    2    1    2    0    0  0.94929418171E+00  0.53297008959E+01 -0.13587117083E+03  0.18470505993E+03  0.12500270888E+03 0.  0.
          4    1    3    3  501    0 -0.20977553723E+01 -0.34159871256E+02  0.82564813433E+01  0.35228962034E+02  0.12700000000E+01 0. -1.
         -4    1    3    3    0  501  0.30470495540E+01  0.39489572152E+02 -0.14412765218E+03  0.14947609789E+03  0.12700000000E+01 0. -1.
          2    1    1    2  502    0 -0.49190740324E+02  0.26145988173E+02 -0.23640127479E+04  0.23646690284E+04  0.00000000000E+00 0. -1.
          1    1    1    2  503    0  0.48241446142E+02 -0.31475689069E+02  0.69120870685E+02  0.89975835047E+02  0.00000000000E+00 0. -1.
<mgrwt>
<rscale>  0 0.54955501E+02</rscale>
<asrwt>0</asrwt>
<pdfrwt beam="1">  1        2 0.16045146E-01 0.54213514E+02</pdfrwt>
<pdfrwt beam="2">  1        1 0.39000865E+00 0.55707644E+02</pdfrwt>
<totfact> 0.86520834E+01</totfact>
</mgrwt>
</event>
<event>
 7    1  0.5277388E-004  0.8750195E+02  0.7546771E-02  0.1412639E+00
         -2   -1    0    0    0  501 -0.00000000000E+00  0.00000000000E+00  0.11473057320E+03  0.11473057320E+03  0.00000000000E+00 0.  1.
          2   -1    0    0  503    0  0.00000000000E+00 -0.00000000000E+00 -0.61084942990E+03  0.61084942990E+03  0.00000000000E+00 0. -1.
         25    2    1    2    0    0 -0.18238879881E+02  0.10252576766E+03 -0.16520419309E+03  0.23186646606E+03  0.12500177157E+03 0.  0.
          4    1    3    3  502    0 -0.61307794534E+02  0.82611910161E+02 -0.15025126288E+03  0.18210005016E+03  0.12700000000E+01 0. -1.
         -4    1    3    3    0  502  0.43068914653E+02  0.19913857501E+02 -0.14952930213E+02  0.49766415904E+02  0.12700000000E+01 0. -1.
          1    1    1    2  503    0  0.32178810015E+02 -0.17486392898E+02 -0.38840142311E+03  0.39012423050E+03  0.00000000000E+00 0. -1.
         -1    1    1    2    0  501 -0.13939930133E+02 -0.85039374764E+02  0.57486759498E+02  0.10358930654E+03  0.00000000000E+00 0.  1.
<mgrwt>
<rscale>  0 0.56609102E+02</rscale>
<asrwt>0</asrwt>
<pdfrwt beam="2">  1        2 0.93976836E-01 0.36623077E+02</pdfrwt>
<pdfrwt beam="1">  1       -2 0.17650857E-01 0.87501946E+02</pdfrwt>
<totfact> 0.12921228E+03</totfact>
</mgrwt>
</event>
<event>
 7    1  0.5277388E-004  0.7848699E+02  0.7546771E-02  0.1356660E+00
          1   -1    0    0  502    0 -0.00000000000E+00  0.00000000000E+00  0.15410188711E+03  0.15410188711E+03  0.00000000000E+00 0. -1.
          2   -1    0    0  503    0  0.00000000000E+00 -0.00000000000E+00 -0.10377029822E+04  0.10377029822E+04  0.00000000000E+00 0. -1.
         25    2    1    2    0    0  0.35842383699E+02 -0.86070180403E+02 -0.19876813551E+03  0.25263829651E+03  0.12499833896E+03 0.  0.
          4    1    3    3  501    0 -0.31768907084E+02  0.14258088215E+02 -0.48380235040E+02  0.59622282574E+02  0.12700000000E+01 0. -1.
         -4    1    3    3    0  501  0.67611290783E+02 -0.10032826862E+03 -0.15038790047E+03  0.19301601393E+03  0.12700000000E+01 0. -1.
          2    1    1    2  502    0  0.27295506943E+02  0.74101376514E+02  0.11349031655E+03  0.13826102362E+03  0.00000000000E+00 0. -1.
          1    1    1    2  503    0 -0.63137890642E+02  0.11968803890E+02 -0.79832327613E+03  0.80090554918E+03  0.00000000000E+00 0. -1.
<mgrwt>
<rscale>  0 0.71019403E+02</rscale>
<asrwt>0</asrwt>
<pdfrwt beam="2">  1        2 0.15964662E+00 0.64262318E+02</pdfrwt>
<pdfrwt beam="1">  1        1 0.23707982E-01 0.78486986E+02</pdfrwt>
<totfact> 0.72601187E+02</totfact>
</mgrwt>
</event>
<event>
 7    1  0.5277388E-004  0.1092265E+03  0.7546771E-02  0.1353628E+00
          1   -1    0    0  502    0 -0.00000000000E+00  0.00000000000E+00  0.40673986219E+03  0.40673986219E+03  0.00000000000E+00 0. -1.
          2   -1    0    0  503    0  0.00000000000E+00 -0.00000000000E+00 -0.21960294407E+04  0.21960294407E+04  0.00000000000E+00 0. -1.
         25    2    1    2    0    0 -0.10913308950E+03  0.39717712209E+02 -0.12516357104E+04  0.12632140155E+04  0.12502067658E+03 0.  0.
          4    1    3    3  501    0 -0.12056324191E+03  0.68592422595E+02 -0.10672679518E+04  0.10762448186E+04  0.12700000000E+01 0. -1.
         -4    1    3    3    0  501  0.11430152404E+02 -0.28874710386E+02 -0.18436775866E+03  0.18696919698E+03  0.12700000000E+01 0. -1.
          2    1    1    2  502    0  0.10897597435E+03  0.76596260447E+01  0.39289552344E+03  0.40780059489E+03  0.00000000000E+00 0. -1.
          1    1    1    2  503    0  0.15711515247E+00 -0.47377338254E+02 -0.93054939150E+03  0.93175469244E+03  0.00000000000E+00 0. -1.
<mgrwt>
<rscale>  0 0.71936715E+02</rscale>
<asrwt>0</asrwt>
<pdfrwt beam="2">  1        2 0.33785068E+00 0.47377599E+02</pdfrwt>
<pdfrwt beam="1">  1        1 0.62575364E-01 0.10922654E+03</pdfrwt>
<totfact> 0.59257273E+01</totfact>
</mgrwt>
</event>
<event>
 7    1  0.5277388E-004  0.4424254E+02  0.7546771E-02  0.1489353E+00
          1   -1    0    0  502    0 -0.00000000000E+00  0.00000000000E+00  0.44389366182E+03  0.44389366182E+03  0.00000000000E+00 0. -1.
          2   -1    0    0  503    0  0.00000000000E+00 -0.00000000000E+00 -0.47284805374E+03  0.47284805374E+03  0.00000000000E+00 0. -1.
         25    2    1    2    0    0 -0.37677447120E+01 -0.45053467142E+02  0.29266156713E+03  0.32143510319E+03  0.12500288750E+03 0.  0.
          4    1    3    3  501    0 -0.69882544838E+01  0.23568438331E+02  0.42843637834E+01  0.24985508983E+02  0.12700000000E+01 0.  1.
         -4    1    3    3    0  501  0.32205097718E+01 -0.68621905473E+02  0.28837720335E+03  0.29644959421E+03  0.12700000000E+01 0.  1.
          2    1    1    2  502    0 -0.35472991102E+02  0.32576106850E+02  0.13164545935E+03  0.14017868170E+03  0.00000000000E+00 0. -1.
          1    1    1    2  503    0  0.39240735814E+02  0.12477360292E+02 -0.45326141840E+03  0.45512793067E+03  0.00000000000E+00 0. -1.
<mgrwt>
<rscale>  0 0.42682097E+02</rscale>
<asrwt>0</asrwt>
<pdfrwt beam="2">  1        2 0.72745855E-01 0.41176691E+02</pdfrwt>
<pdfrwt beam="1">  1        1 0.68291332E-01 0.44242541E+02</pdfrwt>
<totfact> 0.50434667E+02</totfact>
</mgrwt>
</event>
<event>
 7    1  0.5277388E-004  0.6858004E+02  0.7546771E-02  0.1498086E+00
          2   -1    0    0  503    0  0.00000000000E+00  0.00000000000E+00  0.53698139652E+04  0.53698139652E+04  0.00000000000E+00 0. -1.
          1   -1    0    0  502    0 -0.00000000000E+00 -0.00000000000E+00 -0.65172916701E+03  0.65172916701E+03  0.00000000000E+00 0. -1.
         25    2    1    2    0    0 -0.48590124699E+02 -0.77967043905E+02  0.15204050607E+04  0.15282990176E+04  0.12500591365E+03 0.  0.
          4    1    3    3  501    0  0.32458798100E+02 -0.68647875785E+01  0.70691984393E+03  0.70769907272E+03  0.12700000000E+01 0.  1.
         -4    1    3    3    0  501 -0.81048922799E+02 -0.71102256327E+02  0.81348521674E+03  0.82059994485E+03  0.12700000000E+01 0.  1.
          2    1    1    2  502    0  0.13286347799E+02  0.21181827970E+02 -0.64725011647E+03  0.64773290031E+03  0.00000000000E+00 0. -1.
          1    1    1    2  503    0  0.35303776900E+02  0.56785215936E+02  0.38449298540E+04  0.38455112143E+04  0.00000000000E+00 0. -1.
<mgrwt>
<rscale>  0 0.41409793E+02</rscale>
<asrwt>0</asrwt>
<pdfrwt beam="1">  1        2 0.82612520E+00 0.68580039E+02</pdfrwt>
<pdfrwt beam="2">  1        1 0.10026603E+00 0.25003937E+02</pdfrwt>
<totfact> 0.11463049E-01</totfact>
</mgrwt>
</event>
<event>
 7    1  0.5277388E-004  0.4409100E+02  0.7546771E-02  0.1495660E+00
          1   -1    0    0  503    0  0.00000000000E+00  0.00000000000E+00  0.87989618204E+03  0.87989618204E+03  0.00000000000E+00 0. -1.
         -3   -1    0    0    0  501 -0.00000000000E+00 -0.00000000000E+00 -0.50643732089E+02  0.50643732089E+02  0.00000000000E+00 0.  1.
         25    2    1    2    0    0 -0.37335970801E+01 -0.30453410122E+02  0.11957527441E+03  0.17568190196E+03  0.12499813795E+03 0.  0.
          4    1    3    3  502    0  0.46445776421E+02 -0.51068511653E+02  0.91380414706E+02  0.11453032839E+03  0.12700000000E+01 0. -1.
         -4    1    3    3    0  502 -0.50179373501E+02  0.20615101532E+02  0.28194859703E+02  0.61151573567E+02  0.12700000000E+01 0. -1.
          2    1    1    2  503    0  0.41164482888E+02  0.17686577563E+02  0.71370072648E+03  0.71510562623E+03  0.00000000000E+00 0. -1.
         -2    1    1    2    0  501 -0.37430885808E+02  0.12766832559E+02 -0.40235509424E+01  0.39752385943E+02  0.00000000000E+00 0.  1.
<mgrwt>
<rscale>  0 0.41757889E+02</rscale>
<asrwt>0</asrwt>
<pdfrwt beam="1">  1        1 0.13536863E+00 0.44090996E+02</pdfrwt>
<pdfrwt beam="2">  1       -3 0.77913441E-02 0.39548239E+02</pdfrwt>
<totfact> 0.10648210E+03</totfact>
</mgrwt>
</event>
<event>
 7    1  0.5277388E-004  0.2125049E+03  0.7546771E-02  0.1323850E+00
          2   -1    0    0  503    0  0.00000000000E+00  0.00000000000E+00  0.27177393594E+03  0.27177393594E+03  0.00000000000E+00 0. -1.
          1   -1    0    0  502    0 -0.00000000000E+00 -0.00000000000E+00 -0.11041429286E+04  0.11041429286E+04  0.00000000000E+00 0. -1.
         25    2    1    2    0    0 -0.15895735643E+03  0.11558317084E+03 -0.40817115579E+03  0.46995270967E+03  0.12499978544E+03 0.  0.
          4    1    3    3  501    0 -0.11866333543E+03  0.12947621461E+03 -0.38061430423E+03  0.41918246482E+03  0.12700000000E+01 0.  1.
         -4    1    3    3    0  501 -0.40294021009E+02 -0.13893043777E+02 -0.27556851560E+02  0.50770244852E+02  0.12700000000E+01 0.  1.
          2    1    1    2  502    0 -0.28987718408E+02 -0.12416085444E+02 -0.61689182528E+03  0.61769731349E+03  0.00000000000E+00 0. -1.
          1    1    1    2  503    0  0.18794507484E+03 -0.10316708539E+03  0.19269398841E+03  0.28826684138E+03  0.00000000000E+00 0. -1.
<mgrwt>
<rscale>  0 0.81861532E+02</rscale>
<asrwt>0</asrwt>
<pdfrwt beam="1">  1        2 0.41811376E-01 0.21250488E+03</pdfrwt>
<pdfrwt beam="2">  1        1 0.16986814E+00 0.31534854E+02</pdfrwt>
<totfact> 0.25988764E+02</totfact>
</mgrwt>
</event>
<event>
 7    1  0.5277388E-004  0.4611162E+02  0.7546771E-02  0.1520120E+00
         -3   -1    0    0    0  501 -0.00000000000E+00  0.00000000000E+00  0.95596098324E+02  0.95596098324E+02  0.00000000000E+00 0.  1.
          3   -1    0    0  503    0  0.00000000000E+00 -0.00000000000E+00 -0.15325087230E+03  0.15325087230E+03  0.00000000000E+00 0. -1.
         25    2    1    2    0    0 -0.41052495131E+02  0.21338615225E+01 -0.67869357925E+02  0.14804423330E+03  0.12498393716E+03 0.  0.
          4    1    3    3  502    0 -0.34064883939E+02 -0.17610352839E+02 -0.10144099550E+03  0.10845473393E+03  0.12700000000E+01 0.  1.
         -4    1    3    3    0  502 -0.69876111924E+01  0.19744214361E+02  0.33571637573E+02  0.39589499369E+02  0.12700000000E+01 0.  1.
          2    1    1    2  503    0  0.41490855633E+02  0.29885376145E+02 -0.21741093514E+02  0.55563494812E+02  0.00000000000E+00 0. -1.
         -2    1    1    2    0  501 -0.43836050205E+00 -0.32019237668E+02  0.31955677463E+02  0.45239242510E+02  0.00000000000E+00 0.  1.
<mgrwt>
<rscale>  0 0.38426518E+02</rscale>
<asrwt>0</asrwt>
<pdfrwt beam="2">  1        3 0.23577057E-01 0.46111619E+02</pdfrwt>
<pdfrwt beam="1">  1       -3 0.14707092E-01 0.32022238E+02</pdfrwt>
<totfact> 0.11192273E+03</totfact>
</mgrwt>
</event>
<event>
 7    1  0.5277388E-004  0.9643478E+02  0.7546771E-02  0.1391672E+00
         -1   -1    0    0    0  501 -0.00000000000E+00  0.00000000000E+00  0.73776559347E+02  0.73776559347E+02  0.00000000000E+00 0.  1.
          1   -1    0    0  503    0  0.00000000000E+00 -0.00000000000E+00 -0.15197140003E+04  0.15197140003E+04  0.00000000000E+00 0. -1.
         25    2    1    2    0    0 -0.40689031143E+02 -0.52942105668E+02 -0.17278367012E+03  0.22346744778E+03  0.12500015899E+03 0.  0.
          4    1    3    3  502    0  0.18128297634E+02 -0.11436491948E+02 -0.14454169621E+03  0.14612783228E+03  0.12700000000E+01 0. -1.
         -4    1    3    3    0  502 -0.58817328778E+02 -0.41505613721E+02 -0.28241973910E+02  0.77339615497E+02  0.12700000000E+01 0. -1.
          2    1    1    2  503    0  0.36246025944E+02  0.91901098004E+02 -0.13114779385E+04  0.13151935102E+04  0.00000000000E+00 0. -1.
         -2    1    1    2    0  501  0.44430051989E+01 -0.38958992336E+02  0.38324167712E+02  0.54829601584E+02  0.00000000000E+00 0.  1.
<mgrwt>
<rscale>  0 0.61492717E+02</rscale>
<asrwt>0</asrwt>
<pdfrwt beam="2">  1        1 0.23380214E+00 0.96434776E+02</pdfrwt>
<pdfrwt beam="1">  1       -1 0.11350240E-01 0.39211521E+02</pdfrwt>
<totfact> 0.34083406E+02</totfact>
</mgrwt>
</event>
<event>
 7    1  0.5277388E-004  0.4857396E+02  0.7546771E-02  0.1579513E+00
         -2   -1    0    0    0  501  0.00000000000E+00  0.00000000000E+00  0.27643490981E+02  0.27643490981E+02  0.00000000000E+00 0.  1.
         -1   -1    0    0    0  502 -0.00000000000E+00 -0.00000000000E+00 -0.14512956854E+04  0.14512956854E+04  0.00000000000E+00 0.  1.
         25    2    1    2    0    0  0.37428526329E+02  0.48692620266E+02 -0.74687139029E+03  0.75974603193E+03  0.12500117423E+03 0.  0.
          4    1    3    3  503    0  0.35970289591E+02  0.47089499618E+02 -0.13004638006E+03  0.14291590736E+03  0.12700000000E+01 0. -1.
         -4    1    3    3    0  503  0.14582367379E+01  0.16031206485E+01 -0.61682501022E+03  0.61683012458E+03  0.12700000000E+01 0. -1.
         -2    1    1    2    0  502  0.17885074860E+01 -0.20675932014E+02 -0.67023252802E+03  0.67055375216E+03  0.00000000000E+00 0.  1.
         -1    1    1    2    0  501 -0.39217033815E+02 -0.28016688252E+02 -0.65482761124E+01  0.48639392286E+02  0.00000000000E+00 0.  1.
<mgrwt>
<rscale>  0 0.31749997E+02</rscale>
<asrwt>0</asrwt>
<pdfrwt beam="1">  1       -2 0.42528443E-02 0.48573959E+02</pdfrwt>
<pdfrwt beam="2">  1       -1 0.22327628E+00 0.20753143E+02</pdfrwt>
<totfact> 0.23591225E+02</totfact>
</mgrwt>
</event>
<event>
 7    1  0.5277388E-004  0.1219572E+03  0.7546771E-02  0.1371160E+00
          1   -1    0    0  502    0 -0.00000000000E+00  0.00000000000E+00  0.50897406918E+03  0.50897406918E+03  0.00000000000E+00 0. -1.
          2   -1    0    0  503    0  0.00000000000E+00 -0.00000000000E+00 -0.20731794276E+04  0.20731794276E+04  0.00000000000E+00 0. -1.
         25    2    1    2    0    0  0.10636638922E+01 -0.15695131964E+03 -0.14560825812E+04  0.14698425945E+04  0.12500368473E+03 0.  0.
          4    1    3    3  501    0  0.33477800616E+02 -0.12124700439E+03 -0.13094649281E+04  0.13154929152E+04  0.12700000000E+01 0. -1.
         -4    1    3    3    0  501 -0.32414136724E+02 -0.35704315244E+02 -0.14661765309E+03  0.15434967925E+03  0.12700000000E+01 0. -1.
          2    1    1    2  502    0  0.82097738486E+01  0.12150548240E+03  0.49414458703E+03  0.50893010869E+03  0.00000000000E+00 0. -1.
          1    1    1    2  503    0 -0.92734377407E+01  0.35445837235E+02 -0.60226736423E+03  0.60338079356E+03  0.00000000000E+00 0. -1.
<mgrwt>
<rscale>  0 0.66845864E+02</rscale>
<asrwt>0</asrwt>
<pdfrwt beam="2">  1        2 0.31895068E+00 0.36638832E+02</pdfrwt>
<pdfrwt beam="1">  1        1 0.78303704E-01 0.12195720E+03</pdfrwt>
<totfact> 0.52693930E+01</totfact>
</mgrwt>
</event>
<event>
 7    1  0.5277388E-004  0.2118301E+03  0.7546771E-02  0.1305294E+00
          2   -1    0    0  503    0  0.00000000000E+00  0.00000000000E+00  0.19591752854E+04  0.19591752854E+04  0.00000000000E+00 0. -1.
          1   -1    0    0  502    0 -0.00000000000E+00 -0.00000000000E+00 -0.38136000596E+03  0.38136000596E+03  0.00000000000E+00 0. -1.
         25    2    1    2    0    0  0.13187641528E+03  0.12493355780E+03  0.58908152654E+03  0.62900078183E+03  0.12500062346E+03 0.  0.
          4    1    3    3  501    0  0.14811794891E+03  0.11868038986E+03  0.57791069537E+03  0.60828146976E+03  0.12700000000E+01 0. -1.
         -4    1    3    3    0  501 -0.16241533629E+02  0.62531679406E+01  0.11170831170E+02  0.20719312077E+02  0.12700000000E+01 0. -1.
          2    1    1    2  502    0 -0.16884188249E+03 -0.13056787871E+03 -0.32959893989E+03  0.39267163560E+03  0.00000000000E+00 0. -1.
          1    1    1    2  503    0  0.36965467210E+02  0.56343209027E+01  0.13183326927E+04  0.13188628739E+04  0.00000000000E+00 0. -1.
<mgrwt>
<rscale>  0 0.88999064E+02</rscale>
<asrwt>0</asrwt>
<pdfrwt beam="1">  1        2 0.30141158E+00 0.37392397E+02</pdfrwt>
<pdfrwt beam="2">  1        1 0.58670771E-01 0.21183005E+03</pdfrwt>
<totfact> 0.85535111E+01</totfact>
</mgrwt>
</event>
<event>
 7    1  0.5277388E-004  0.1340462E+03  0.7546771E-02  0.1228952E+00
          2   -1    0    0  503    0  0.00000000000E+00  0.00000000000E+00  0.28983266144E+03  0.28983266144E+03  0.00000000000E+00 0. -1.
          1   -1    0    0  502    0 -0.00000000000E+00 -0.00000000000E+00 -0.82049804789E+03  0.82049804789E+03  0.00000000000E+00 0. -1.
         25    2    1    2    0    0  0.72514928752E+02  0.56417730258E+02 -0.20681904742E+03  0.25853745246E+03  0.12500448298E+03 0.  0.
          4    1    3    3  501    0  0.10456773219E+03  0.61894905795E+02 -0.17475409142E+03  0.21285205037E+03  0.12700000000E+01 0. -1.
         -4    1    3    3    0  501 -0.32052803440E+02 -0.54771755369E+01 -0.32064956008E+02  0.45685402089E+02  0.12700000000E+01 0. -1.
          2    1    1    2  502    0  0.22750566603E+02 -0.15071977141E+03 -0.55993117513E+03  0.58030764139E+03  0.00000000000E+00 0. -1.
          1    1    1    2  503    0 -0.95265495356E+02  0.94302041156E+02  0.23608483611E+03  0.27148561548E+03  0.00000000000E+00 0. -1.
<mgrwt>
<rscale>  0 0.12899651E+03</rscale>
<asrwt>0</asrwt>
<pdfrwt beam="1">  1        2 0.44589641E-01 0.13404622E+03</pdfrwt>
<pdfrwt beam="2">  1        1 0.12623047E+00 0.12413702E+03</pdfrwt>
<totfact> 0.35556750E+02</totfact>
</mgrwt>
</event>
<event>
 7    1  0.5277388E-004  0.2245092E+03  0.7546771E-02  0.1252616E+00
          2   -1    0    0  503    0  0.00000000000E+00  0.00000000000E+00  0.45761415619E+03  0.45761415619E+03  0.00000000000E+00 0. -1.
          1   -1    0    0  502    0 -0.00000000000E+00 -0.00000000000E+00 -0.16956304312E+04  0.16956304312E+04  0.00000000000E+00 0. -1.
         25    2    1    2    0    0 -0.24232722019E+03 -0.11002121943E+03 -0.72501465151E+03  0.78236750908E+03  0.12500209595E+03 0.  0.
          4    1    3    3  501    0  0.76931179034E+00 -0.28738959074E+01 -0.13796804372E+03  0.13800596040E+03  0.12700000000E+01 0.  1.
         -4    1    3    3    0  501 -0.24309653198E+03 -0.10714732353E+03 -0.58704660778E+03  0.64436154867E+03  0.12700000000E+01 0.  1.
          2    1    1    2  502    0  0.18938257300E+03  0.85607527767E+02 -0.92841462135E+03  0.95139272485E+03  0.00000000000E+00 0. -1.
          1    1    1    2  503    0  0.52944647190E+02  0.24413691666E+02  0.41541299785E+03  0.41948435345E+03  0.00000000000E+00 0. -1.
<mgrwt>
<rscale>  0 0.11440897E+03</rscale>
<asrwt>0</asrwt>
<pdfrwt beam="1">  1        2 0.70402178E-01 0.58302350E+02</pdfrwt>
<pdfrwt beam="2">  1        1 0.26086622E+00 0.22450918E+03</pdfrwt>
<totfact> 0.51989356E+01</totfact>
</mgrwt>
</event>
<event>
 7    1  0.5277388E-004  0.5103536E+02  0.7546771E-02  0.1486925E+00
         -2   -1    0    0    0  501 -0.00000000000E+00  0.00000000000E+00  0.37661294386E+02  0.37661294386E+02  0.00000000000E+00 0.  1.
          2   -1    0    0  503    0  0.00000000000E+00 -0.00000000000E+00 -0.37079800826E+03  0.37079800826E+03  0.00000000000E+00 0. -1.
         25    2    1    2    0    0 -0.26937883369E+02 -0.45801267768E+01 -0.12329380932E+03  0.17768895656E+03  0.12500149897E+03 0.  0.
          4    1    3    3  502    0  0.44603733554E+02  0.16514031561E+02 -0.75014827351E+02  0.88831545679E+02  0.12700000000E+01 0.  1.
         -4    1    3    3    0  502 -0.71541616924E+02 -0.21094158338E+02 -0.48278981971E+02  0.88857410879E+02  0.12700000000E+01 0.  1.
          1    1    1    2  503    0  0.46184472525E+02  0.35365635082E+02 -0.10832567746E+03  0.12295603297E+03  0.00000000000E+00 0. -1.
         -1    1    1    2    0  501 -0.19246589156E+02 -0.30785508305E+02 -0.10151722709E+03  0.10781431312E+03  0.00000000000E+00 0.  1.
<mgrwt>
<rscale>  0 0.43045638E+02</rscale>
<asrwt>0</asrwt>
<pdfrwt beam="2">  1        2 0.57045847E-01 0.51035356E+02</pdfrwt>
<pdfrwt beam="1">  1       -2 0.57940454E-02 0.36306731E+02</pdfrwt>
<totfact> 0.11246109E+04</totfact>
</mgrwt>
</event>
<event>
 7    1  0.5277388E-004  0.7518753E+02  0.7546771E-02  0.1427665E+00
         -2   -1    0    0    0  501 -0.00000000000E+00  0.00000000000E+00  0.11820810240E+03  0.11820810240E+03  0.00000000000E+00 0.  1.
          2   -1    0    0  503    0  0.00000000000E+00 -0.00000000000E+00 -0.47903592731E+03  0.47903592731E+03  0.00000000000E+00 0. -1.
         25    2    1    2    0    0 -0.67912382732E+02 -0.36159516546E+02 -0.37517708489E+02  0.15150066095E+03  0.12500107781E+03 0.  0.
          4    1    3    3  502    0  0.24695884762E+02 -0.38363182975E+02  0.10960702600E+02  0.46940072792E+02  0.12700000000E+01 0. -1.
         -4    1    3    3    0  502 -0.92608267495E+02  0.22036664291E+01 -0.48478411089E+02  0.10456058816E+03  0.12700000000E+01 0. -1.
          1    1    1    2  503    0 -0.87668446488E+01  0.36944813500E+02 -0.35911225711E+03  0.36111409556E+03  0.00000000000E+00 0. -1.
         -1    1    1    2    0  501  0.76679227381E+02 -0.78529695353E+00  0.35802140688E+02  0.84629273191E+02  0.00000000000E+00 0.  1.
<mgrwt>
<rscale>  0 0.53431508E+02</rscale>
<asrwt>0</asrwt>
<pdfrwt beam="2">  1        2 0.73697835E-01 0.37970736E+02</pdfrwt>
<pdfrwt beam="1">  1       -2 0.18185862E-01 0.75187534E+02</pdfrwt>
<totfact> 0.15765264E+03</totfact>
</mgrwt>
</event>
<event>
 7    1  0.5277388E-004  0.1295337E+03  0.7546771E-02  0.1260104E+00
          1   -1    0    0  502    0 -0.00000000000E+00  0.00000000000E+00  0.70086084644E+02  0.70086084644E+02  0.00000000000E+00 0. -1.
          2   -1    0    0  503    0  0.00000000000E+00 -0.00000000000E+00 -0.66406687545E+03  0.66406687545E+03  0.00000000000E+00 0. -1.
         25    2    1    2    0    0  0.23277258418E+02  0.16449562492E+03 -0.26309487861E+03  0.33532817711E+03  0.12500171934E+03 0.  0.
          4    1    3    3  501    0  0.40448647933E+02  0.11537366410E+03 -0.25480417289E+03  0.28261980629E+03  0.12700000000E+01 0.  1.
         -4    1    3    3    0  501 -0.17171389516E+02  0.49121960820E+02 -0.82907057146E+01  0.52708370815E+02  0.12700000000E+01 0.  1.
          2    1    1    2  502    0  0.58146040354E+02 -0.73655570104E+02 -0.96567182281E+02  0.13465261123E+03  0.00000000000E+00 0. -1.
          1    1    1    2  503    0 -0.81423298771E+02 -0.90840054814E+02 -0.23431872992E+03  0.26417217176E+03  0.00000000000E+00 0. -1.
<mgrwt>
<rscale>  0 0.11025223E+03</rscale>
<asrwt>0</asrwt>
<pdfrwt beam="2">  1        2 0.10216414E+00 0.12953372E+03</pdfrwt>
<pdfrwt beam="1">  1        1 0.10782475E-01 0.93840849E+02</pdfrwt>
<totfact> 0.33787354E+03</totfact>
</mgrwt>
</event>
<event>
 7    1  0.5277388E-004  0.2404450E+03  0.7546771E-02  0.1130180E+00
          1   -1    0    0  502    0 -0.00000000000E+00  0.00000000000E+00  0.14722383393E+04  0.14722383393E+04  0.00000000000E+00 0. -1.
          2   -1    0    0  503    0  0.00000000000E+00 -0.00000000000E+00 -0.21190074480E+04  0.21190074480E+04  0.00000000000E+00 0. -1.
         25    2    1    2    0    0 -0.15888824481E+03 -0.28035469101E+03  0.63967528718E+03  0.72708926203E+03  0.12502037763E+03 0.  0.
          4    1    3    3  501    0 -0.50758770488E+02 -0.69616817350E+01  0.83047249790E+02  0.97587788128E+02  0.12700000000E+01 0. -1.
         -4    1    3    3    0  501 -0.10812947432E+03 -0.27339300928E+03  0.55662803739E+03  0.62950147390E+03  0.12700000000E+01 0. -1.
          2    1    1    2  502    0  0.21555165600E+03  0.77496489009E+02  0.76672624504E+03  0.80021082037E+03  0.00000000000E+00 0. -1.
          1    1    1    2  503    0 -0.56663411185E+02  0.20285820200E+03 -0.20531706409E+04  0.20639457049E+04  0.00000000000E+00 0. -1.
<mgrwt>
<rscale>  0 0.22504072E+03</rscale>
<asrwt>0</asrwt>
<pdfrwt beam="2">  1        2 0.32600115E+00 0.21062334E+03</pdfrwt>
<pdfrwt beam="1">  1        1 0.22649821E+00 0.24044497E+03</pdfrwt>
<totfact> 0.68831771E+00</totfact>
</mgrwt>
</event>
<event>
 7    1  0.5277388E-004  0.1152903E+03  0.7546771E-02  0.1274483E+00
          2   -1    0    0  503    0  0.00000000000E+00  0.00000000000E+00  0.40921427250E+03  0.40921427250E+03  0.00000000000E+00 0. -1.
         -2   -1    0    0    0  501 -0.00000000000E+00 -0.00000000000E+00 -0.10305251458E+04  0.10305251458E+04  0.00000000000E+00 0.  1.
         25    2    1    2    0    0 -0.25411571601E+02 -0.75754523578E+02  0.22845118180E+02  0.15010436782E+03  0.12499970400E+03 0.  0.
          4    1    3    3  502    0 -0.20476992640E+02  0.24890046941E+02 -0.22774820896E+02  0.39485782645E+02  0.12700000000E+01 0.  1.
         -4    1    3    3    0  502 -0.49345789613E+01 -0.10064457052E+03  0.45619939075E+02  0.11061858517E+03  0.12700000000E+01 0.  1.
          1    1    1    2  503    0 -0.58744995298E+02  0.11215480544E+03  0.30803507155E+03  0.33303945736E+03  0.00000000000E+00 0. -1.
         -1    1    1    2    0  501  0.84156566899E+02 -0.36400281865E+02 -0.95219106300E+03  0.95659559309E+03  0.00000000000E+00 0.  1.
<mgrwt>
<rscale>  0 0.10281600E+03</rscale>
<asrwt>0</asrwt>
<pdfrwt beam="1">  1        2 0.62956043E-01 0.11529033E+03</pdfrwt>
<pdfrwt beam="2">  1       -2 0.15854233E+00 0.91691375E+02</pdfrwt>
<totfact> 0.22990859E+01</totfact>
</mgrwt>
</event>
<event>
 7    1  0.5277388E-004  0.9006106E+02  0.7546771E-02  0.1428052E+00
         -2   -1    0    0    0  501 -0.00000000000E+00  0.00000000000E+00  0.12771582725E+03  0.12771582725E+03  0.00000000000E+00 0.  1.
          2   -1    0    0  503    0  0.00000000000E+00 -0.00000000000E+00 -0.67011730936E+03  0.67011730936E+03  0.00000000000E+00 0. -1.
         25    2    1    2    0    0 -0.41232541351E+02 -0.10781553434E+03 -0.15933737255E+03  0.23311321258E+03  0.12501623766E+03 0.  0.
          4    1    3    3  502    0 -0.54269829746E+02 -0.76323232281E+02 -0.17271531321E+03  0.19647555198E+03  0.12700000000E+01 0. -1.
         -4    1    3    3    0  502  0.13037288395E+02 -0.31492302060E+02  0.13377940669E+02  0.36637660600E+02  0.12700000000E+01 0. -1.
          1    1    1    2  503    0  0.22233821040E+02  0.22464451060E+02 -0.45216712258E+03  0.45327045028E+03  0.00000000000E+00 0. -1.
         -1    1    1    2    0  501  0.18998720311E+02  0.85351083281E+02  0.69103013011E+02  0.11144947374E+03  0.00000000000E+00 0.  1.
<mgrwt>
<rscale>  0 0.53353053E+02</rscale>
<asrwt>0</asrwt>
<pdfrwt beam="2">  1        2 0.10309497E+00 0.31606872E+02</pdfrwt>
<pdfrwt beam="1">  1       -2 0.19648588E-01 0.90061057E+02</pdfrwt>
<totfact> 0.98299363E+02</totfact>
</mgrwt>
</event>
<event>
 7    1  0.5277388E-004  0.7342083E+02  0.7546771E-02  0.1429091E+00
          1   -1    0    0  502    0 -0.00000000000E+00  0.00000000000E+00  0.19455355274E+03  0.19455355274E+03  0.00000000000E+00 0. -1.
          2   -1    0    0  503    0  0.00000000000E+00 -0.00000000000E+00 -0.16790474256E+03  0.16790474256E+03  0.00000000000E+00 0. -1.
         25    2    1    2    0    0  0.95958932259E+02 -0.24480210292E+02  0.99100144488E+02  0.18775877421E+03  0.12500048512E+03 0.  0.
          4    1    3    3  501    0  0.49935613394E+02 -0.24206609512E+02  0.12368126530E+03  0.13556619680E+03  0.12700000000E+01 0. -1.
         -4    1    3    3    0  501  0.46023318865E+02 -0.27360078091E+00 -0.24581120808E+02  0.52192577412E+02  0.12700000000E+01 0. -1.
          2    1    1    2  502    0 -0.57518596354E+02  0.23085303736E+02  0.27347988955E+02  0.67743875554E+02  0.00000000000E+00 0. -1.
          1    1    1    2  503    0 -0.38440335905E+02  0.13949065567E+01 -0.99799323262E+02  0.10695564554E+03  0.00000000000E+00 0. -1.
<mgrwt>
<rscale>  0 0.53143004E+02</rscale>
<asrwt>0</asrwt>
<pdfrwt beam="2">  1        2 0.25831499E-01 0.38465636E+02</pdfrwt>
<pdfrwt beam="1">  1        1 0.29931316E-01 0.73420827E+02</pdfrwt>
<totfact> 0.39372876E+03</totfact>
</mgrwt>
</event>
<event>
 7    1  0.5277388E-004  0.1397712E+03  0.7546771E-02  0.1244185E+00
          2   -1    0    0  503    0  0.00000000000E+00  0.00000000000E+00  0.18503936709E+04  0.18503936709E+04  0.00000000000E+00 0. -1.
          3   -1    0    0  502    0 -0.00000000000E+00 -0.00000000000E+00 -0.40673769000E+02  0.40673769000E+02  0.00000000000E+00 0. -1.
         25    2    1    2    0    0 -0.96309849754E+02 -0.41539231562E+02  0.10889968505E+04  0.11011540236E+04  0.12499979359E+03 0.  0.
          4    1    3    3  501    0 -0.88517620392E+02  0.20128669039E+02  0.44521167682E+03  0.45437383564E+03  0.12700000000E+01 0. -1.
         -4    1    3    3    0  501 -0.77922293611E+01 -0.61667900601E+02  0.64378517364E+03  0.64678018793E+03  0.12700000000E+01 0. -1.
          2    1    1    2  502    0  0.14155738986E+03 -0.49764691282E+02  0.15745416601E+03  0.21750134142E+03  0.00000000000E+00 0. -1.
          1    1    1    2  503    0 -0.45247540110E+02  0.91303922844E+02  0.56326888544E+03  0.57241207492E+03  0.00000000000E+00 0. -1.
<mgrwt>
<rscale>  0 0.11934312E+03</rscale>
<asrwt>0</asrwt>
<pdfrwt beam="1">  1        2 0.28467588E+00 0.10190067E+03</pdfrwt>
<pdfrwt beam="2">  1        3 0.62575044E-02 0.13977121E+03</pdfrwt>
<totfact> 0.92394112E+02</totfact>
</mgrwt>
</event>
<event>
 7    1  0.5277388E-004  0.8380633E+02  0.7546771E-02  0.1375557E+00
          2   -1    0    0  503    0  0.00000000000E+00  0.00000000000E+00  0.22529773849E+04  0.22529773849E+04  0.00000000000E+00 0. -1.
         -2   -1    0    0    0  501 -0.00000000000E+00 -0.00000000000E+00 -0.27173876284E+02  0.27173876284E+02  0.00000000000E+00 0.  1.
         25    2    1    2    0    0  0.72274856978E+02 -0.52343190742E+01  0.51631393434E+03  0.53614894756E+03  0.12499824851E+03 0.  0.
          4    1    3    3  502    0 -0.11120080358E+02 -0.48053077478E+02  0.21487336297E+03  0.22046525680E+03  0.12700000000E+01 0.  1.
         -4    1    3    3    0  502  0.83394937336E+02  0.42818758404E+02  0.30144057138E+03  0.31568369077E+03  0.12700000000E+01 0.  1.
          1    1    1    2  503    0 -0.65765184371E+02  0.56242012966E+02  0.16846937558E+04  0.16869147205E+04  0.00000000000E+00 0. -1.
         -1    1    1    2    0  501 -0.65096726072E+01 -0.51007693892E+02  0.24795818509E+02  0.57087593128E+02  0.00000000000E+00 0.  1.
<mgrwt>
<rscale>  0 0.65646318E+02</rscale>
<asrwt>0</asrwt>
<pdfrwt beam="1">  1        2 0.34661176E+00 0.83806329E+02</pdfrwt>
<pdfrwt beam="2">  1       -2 0.41805981E-02 0.51421403E+02</pdfrwt>
<totfact> 0.13650019E+03</totfact>
</mgrwt>
</event>
<event>
 7    1  0.5277388E-004  0.1201772E+03  0.7546771E-02  0.1318687E+00
          2   -1    0    0  503    0  0.00000000000E+00  0.00000000000E+00  0.57974329915E+03  0.57974329915E+03  0.00000000000E+00 0. -1.
          1   -1    0    0  502    0 -0.00000000000E+00 -0.00000000000E+00 -0.24417499336E+03  0.24417499336E+03  0.00000000000E+00 0. -1.
         25    2    1    2    0    0  0.41592322828E+02  0.83689739411E+02  0.11851708476E+03  0.19597268364E+03  0.12500039820E+03 0.  0.
          4    1    3    3  501    0 -0.21526211186E+02 -0.11956081434E+02  0.64943471947E+02  0.69466489042E+02  0.12700000000E+01 0.  1.
         -4    1    3    3    0  501  0.63118534013E+02  0.95645820845E+02  0.53573612813E+02  0.12650619460E+03  0.12700000000E+01 0.  1.
          2    1    1    2  502    0  0.15519213355E+00 -0.12451156021E+03 -0.18427341151E+03  0.22239568994E+03  0.00000000000E+00 0. -1.
          1    1    1    2  503    0 -0.41747514961E+02  0.40821820802E+02  0.40132463255E+03  0.40554991894E+03  0.00000000000E+00 0. -1.
<mgrwt>
<rscale>  0 0.83767701E+02</rscale>
<asrwt>0</asrwt>
<pdfrwt beam="1">  1        2 0.89191276E-01 0.58389006E+02</pdfrwt>
<pdfrwt beam="2">  1        1 0.37565384E-01 0.12017721E+03</pdfrwt>
<totfact> 0.83563246E+02</totfact>
</mgrwt>
</event>
<event>
 7    1  0.5277388E-004  0.5871571E+02  0.7546771E-02  0.1468069E+00
          1   -1    0    0  502    0 -0.00000000000E+00  0.00000000000E+00  0.74028364396E+02  0.74028364396E+02  0.00000000000E+00 0. -1.
          2   -1    0    0  503    0  0.00000000000E+00 -0.00000000000E+00 -0.16358285362E+04  0.16358285362E+04  0.00000000000E+00 0. -1.
         25    2    1    2    0    0 -0.79637767879E+01  0.23253814974E+02 -0.63050115391E+01  0.12753653425E+03  0.12498661027E+03 0.  0.
          4    1    3    3  501    0 -0.59328837820E+02  0.40905384133E+02  0.42197470151E+01  0.72198203669E+02  0.12700000000E+01 0.  1.
         -4    1    3    3    0  501  0.51365061032E+02 -0.17651569158E+02 -0.10524758554E+02  0.55338330578E+02  0.12700000000E+01 0.  1.
          2    1    1    2  502    0 -0.48260211028E+02 -0.40177096543E+02 -0.63971720210E+02  0.89641664653E+02  0.00000000000E+00 0. -1.
          1    1    1    2  503    0  0.56223987816E+02  0.16923281569E+02 -0.14915234401E+04  0.14926787017E+04  0.00000000000E+00 0. -1.
<mgrwt>
<rscale>  0 0.46020544E+02</rscale>
<asrwt>0</asrwt>
<pdfrwt beam="2">  1        2 0.25166590E+00 0.58715707E+02</pdfrwt>
<pdfrwt beam="1">  1        1 0.11388980E-01 0.36070254E+02</pdfrwt>
<totfact> 0.85724476E+02</totfact>
</mgrwt>
</event>
<event>
 7    1  0.5277388E-004  0.4119858E+03  0.7546771E-02  0.1217014E+00
          1   -1    0    0  503    0  0.00000000000E+00  0.00000000000E+00  0.99351541012E+03  0.99351541012E+03  0.00000000000E+00 0. -1.
         -1   -1    0    0    0  501 -0.00000000000E+00 -0.00000000000E+00 -0.63391392157E+03  0.63391392157E+03  0.00000000000E+00 0.  1.
         25    2    1    2    0    0  0.18505891645E+03  0.40357559394E+03 -0.18216994850E+03  0.49591328246E+03  0.12499612392E+03 0.  0.
          4    1    3    3  502    0  0.30745287597E+02  0.84431284530E+02  0.13702934413E+02  0.90902683285E+02  0.12700000000E+01 0.  1.
         -4    1    3    3    0  502  0.15431362885E+03  0.31914430941E+03 -0.19587288291E+03  0.40501059917E+03  0.12700000000E+01 0.  1.
          2    1    1    2  503    0 -0.19338945703E+03 -0.35858590686E+03  0.78478397579E+03  0.88423369273E+03  0.00000000000E+00 0. -1.
         -2    1    1    2    0  501  0.83305405878E+01 -0.44989687080E+02 -0.24301253875E+03  0.24728235651E+03  0.00000000000E+00 0.  1.
<mgrwt>
<rscale>  0 0.13729598E+03</rscale>
<asrwt>0</asrwt>
<pdfrwt beam="1">  1        1 0.15284853E+00 0.41198585E+03</pdfrwt>
<pdfrwt beam="2">  1       -1 0.97525218E-01 0.45754452E+02</pdfrwt>
<totfact> 0.18415595E+01</totfact>
</mgrwt>
</event>
<event>
 7    1  0.5277388E-004  0.4599033E+02  0.7546771E-02  0.1550508E+00
         -2   -1    0    0    0  501  0.00000000000E+00  0.00000000000E+00  0.34814936230E+02  0.34814936230E+02  0.00000000000E+00 0.  1.
         -1   -1    0    0    0  502 -0.00000000000E+00 -0.00000000000E+00 -0.55993264214E+03  0.55993264214E+03  0.00000000000E+00 0.  1.
         25    2    1    2    0    0  0.49311619446E+02  0.19043236523E+02 -0.26680925605E+03  0.29934253649E+03  0.12499797747E+03 0.  0.
          4    1    3    3  503    0  0.36563210788E+02 -0.50775977088E+02 -0.15174629657E+03  0.16414511767E+03  0.12700000000E+01 0.  1.
         -4    1    3    3    0  503  0.12748408659E+02  0.69819213611E+02 -0.11506295948E+03  0.13519741883E+03  0.12700000000E+01 0.  1.
         -2    1    1    2    0  502 -0.45375882496E+02  0.69721645739E+01 -0.26443439972E+03  0.26838989092E+03  0.00000000000E+00 0.  1.
         -1    1    1    2    0  501 -0.39357369502E+01 -0.26015401097E+02  0.61259498595E+01  0.27015150958E+02  0.00000000000E+00 0.  1.
<mgrwt>
<rscale>  0 0.34786078E+02</rscale>
<asrwt>0</asrwt>
<pdfrwt beam="1">  1       -2 0.53561437E-02 0.26311426E+02</pdfrwt>
<pdfrwt beam="2">  1       -1 0.86143488E-01 0.45990334E+02</pdfrwt>
<totfact> 0.15310970E+03</totfact>
</mgrwt>
</event>
<event>
 7    1  0.5277388E-004  0.2087684E+03  0.7546771E-02  0.1228180E+00
         -1   -1    0    0    0  501 -0.00000000000E+00  0.00000000000E+00  0.35868692711E+03  0.35868692711E+03  0.00000000000E+00 0.  1.
          1   -1    0    0  503    0  0.00000000000E+00 -0.00000000000E+00 -0.10863887935E+04  0.10863887935E+04  0.00000000000E+00 0. -1.
         25    2    1    2    0    0  0.18090199518E+03 -0.35791374098E+02 -0.13956537025E+03  0.26288780205E+03  0.12499979828E+03 0.  0.
          4    1    3    3  502    0  0.68609408656E+02  0.29676422142E+02 -0.37010518070E+01  0.74854870729E+02  0.12700000000E+01 0.  1.
         -4    1    3    3    0  502  0.11229258652E+03 -0.65467796240E+02 -0.13586431845E+03  0.18803293132E+03  0.12700000000E+01 0.  1.
          2    1    1    2  503    0 -0.21298284340E+03 -0.37871781791E+02 -0.86617180370E+03  0.89277631967E+03  0.00000000000E+00 0. -1.
         -2    1    1    2    0  501  0.32080848222E+02  0.73663155889E+02  0.27803530753E+03  0.28941159893E+03  0.00000000000E+00 0.  1.
<mgrwt>
<rscale>  0 0.12951315E+03</rscale>
<asrwt>0</asrwt>
<pdfrwt beam="2">  1        1 0.16713673E+00 0.20876839E+03</pdfrwt>
<pdfrwt beam="1">  1       -1 0.55182605E-01 0.80345761E+02</pdfrwt>
<totfact> 0.49423136E+01</totfact>
</mgrwt>
</event>
<event>
 7    1  0.5277388E-004  0.1397667E+03  0.7546771E-02  0.1242747E+00
          1   -1    0    0  502    0 -0.00000000000E+00  0.00000000000E+00  0.95693872986E+03  0.95693872986E+03  0.00000000000E+00 0. -1.
          2   -1    0    0  503    0  0.00000000000E+00 -0.00000000000E+00 -0.20970327924E+04  0.20970327924E+04  0.00000000000E+00 0. -1.
         25    2    1    2    0    0 -0.13630335477E+03  0.62816438948E+02 -0.23090594546E+01  0.19533533335E+03  0.12500420463E+03 0.  0.
          4    1    3    3  501    0 -0.11685056176E+03  0.91520218094E+02  0.25830529988E+02  0.15066131980E+03  0.12700000000E+01 0.  1.
         -4    1    3    3    0  501 -0.19452793014E+02 -0.28703779145E+02 -0.28139589442E+02  0.44674013556E+02  0.12700000000E+01 0.  1.
          2    1    1    2  502    0  0.79788951155E+02  0.65757380297E+02  0.85483883410E+03  0.86106895315E+03  0.00000000000E+00 0. -1.
          1    1    1    2  503    0  0.56514403618E+02 -0.12857381925E+03 -0.19926238372E+04  0.19975672358E+04  0.00000000000E+00 0. -1.
<mgrwt>
<rscale>  0 0.12021244E+03</rscale>
<asrwt>0</asrwt>
<pdfrwt beam="2">  1        2 0.32262043E+00 0.13976670E+03</pdfrwt>
<pdfrwt beam="1">  1        1 0.14722134E+00 0.10339395E+03</pdfrwt>
<totfact> 0.17834899E+01</totfact>
</mgrwt>
</event>
<event>
 7    1  0.5277388E-004  0.9384837E+02  0.7546771E-02  0.1378950E+00
         -2   -1    0    0    0  501 -0.00000000000E+00  0.00000000000E+00  0.90281677392E+02  0.90281677392E+02  0.00000000000E+00 0.  1.
          2   -1    0    0  503    0  0.00000000000E+00 -0.00000000000E+00 -0.14107182448E+04  0.14107182448E+04  0.00000000000E+00 0. -1.
         25    2    1    2    0    0 -0.38756033282E+02 -0.41315857509E+02 -0.54534627997E+03  0.56234892058E+03  0.12499885279E+03 0.  0.
          4    1    3    3  502    0  0.92699980249E+01  0.34336464428E+02 -0.68909442703E+02  0.77556752423E+02  0.12700000000E+01 0.  1.
         -4    1    3    3    0  502 -0.48026031307E+02 -0.75652321937E+02 -0.47643683727E+03  0.48479216815E+03  0.12700000000E+01 0.  1.
          1    1    1    2  503    0 -0.40197516230E+01 -0.44479396750E+02 -0.82796518839E+03  0.82916881775E+03  0.00000000000E+00 0. -1.
         -1    1    1    2    0  501  0.42775784905E+02  0.85795254259E+02  0.52874900971E+02  0.10948218385E+03  0.00000000000E+00 0.  1.
<mgrwt>
<rscale>  0 0.64740487E+02</rscale>
<asrwt>0</asrwt>
<pdfrwt beam="2">  1        2 0.21703358E+00 0.44660667E+02</pdfrwt>
<pdfrwt beam="1">  1       -2 0.13889489E-01 0.93848367E+02</pdfrwt>
<totfact> 0.64955095E+02</totfact>
</mgrwt>
</event>
<event>
 7    1  0.5277388E-004  0.4691105E+02  0.7546771E-02  0.1466478E+00
          2   -1    0    0  503    0  0.00000000000E+00  0.00000000000E+00  0.23933852283E+03  0.23933852283E+03  0.00000000000E+00 0. -1.
          1   -1    0    0  502    0 -0.00000000000E+00 -0.00000000000E+00 -0.26995191662E+03  0.26995191662E+03  0.00000000000E+00 0. -1.
         25    2    1    2    0    0  0.11569770481E+02 -0.19342088905E+02  0.13211832496E+02  0.12770296804E+03  0.12500207813E+03 0.  0.
          4    1    3    3  501    0 -0.39538118642E+02 -0.29832652724E+02 -0.31725322614E+02  0.58833315300E+02  0.12700000000E+01 0.  1.
         -4    1    3    3    0  501  0.51107889122E+02  0.10490563819E+02  0.44937155110E+02  0.68869652744E+02  0.12700000000E+01 0.  1.
          2    1    1    2  502    0  0.30139107243E+02  0.37937938837E+02 -0.20676655711E+03  0.21236775209E+03  0.00000000000E+00 0. -1.
          1    1    1    2  503    0 -0.41708877724E+02 -0.18595849932E+02  0.16294133082E+03  0.16921971932E+03  0.00000000000E+00 0. -1.
<mgrwt>
<rscale>  0 0.46284631E+02</rscale>
<asrwt>0</asrwt>
<pdfrwt beam="1">  1        2 0.36821311E-01 0.45666575E+02</pdfrwt>
<pdfrwt beam="2">  1        1 0.41531064E-01 0.46911051E+02</pdfrwt>
<totfact> 0.18343762E+03</totfact>
</mgrwt>
</event>
<event>
 7    1  0.5277388E-004  0.7793341E+02  0.7546771E-02  0.1430073E+00
          2   -1    0    0  503    0  0.00000000000E+00  0.00000000000E+00  0.12929148418E+04  0.12929148418E+04  0.00000000000E+00 0. -1.
          1   -1    0    0  502    0 -0.00000000000E+00 -0.00000000000E+00 -0.23216948235E+03  0.23216948235E+03  0.00000000000E+00 0. -1.
         25    2    1    2    0    0  0.47209655265E+02 -0.18716292661E+01 -0.68554403086E+02  0.15019894733E+03  0.12501105172E+03 0.  0.
          4    1    3    3  501    0  0.17405850898E+02  0.14464208739E+02 -0.10080889125E+03  0.10332580721E+03  0.12700000000E+01 0. -1.
         -4    1    3    3    0  501  0.29803804366E+02 -0.16335838005E+02  0.32254488168E+02  0.46873140123E+02  0.12700000000E+01 0. -1.
          2    1    1    2  502    0  0.28461668222E+02  0.21993812607E+02 -0.11890535716E+03  0.12422672142E+03  0.00000000000E+00 0. -1.
          1    1    1    2  503    0 -0.75671323487E+02 -0.20122183341E+02  0.12482051198E+04  0.12506586554E+04  0.00000000000E+00 0. -1.
<mgrwt>
<rscale>  0 0.52945390E+02</rscale>
<asrwt>0</asrwt>
<pdfrwt beam="1">  1        2 0.19890997E+00 0.77933411E+02</pdfrwt>
<pdfrwt beam="2">  1        1 0.35718383E-01 0.35969353E+02</pdfrwt>
<totfact> 0.31156326E+02</totfact>
</mgrwt>
</event>
<event>
 7    1  0.5277388E-004  0.2635329E+03  0.7546771E-02  0.1340695E+00
          1   -1    0    0  502    0 -0.00000000000E+00  0.00000000000E+00  0.31254556986E+03  0.31254556986E+03  0.00000000000E+00 0. -1.
          2   -1    0    0  503    0  0.00000000000E+00 -0.00000000000E+00 -0.45823847596E+03  0.45823847596E+03  0.00000000000E+00 0. -1.
         25    2    1    2    0    0  0.23830747332E+03 -0.66298568897E+02 -0.22632410327E+03  0.35781607165E+03  0.12499515723E+03 0.  0.
          4    1    3    3  501    0  0.31247656846E+02  0.33772603096E+02 -0.50486408024E+02  0.68319068154E+02  0.12700000000E+01 0. -1.
         -4    1    3    3    0  501  0.20705981648E+03 -0.10007117199E+03 -0.17583769524E+03  0.28949700349E+03  0.12700000000E+01 0. -1.
          2    1    1    2  502    0 -0.25530912160E+03  0.80162839396E+02  0.17259065249E+03  0.31842795373E+03  0.00000000000E+00 0. -1.
          1    1    1    2  503    0  0.17001648273E+02 -0.13864270499E+02 -0.91959455323E+02  0.94540020435E+02  0.00000000000E+00 0. -1.
<mgrwt>
<rscale>  0 0.76035341E+02</rscale>
<asrwt>0</asrwt>
<pdfrwt beam="2">  1        2 0.70498227E-01 0.21937959E+02</pdfrwt>
<pdfrwt beam="1">  1        1 0.48083934E-01 0.26353286E+03</pdfrwt>
<totfact> 0.79369397E+02</totfact>
</mgrwt>
</event>
<event>
 7    1  0.5277388E-004  0.1699145E+03  0.7546771E-02  0.1311264E+00
          2   -1    0    0  503    0  0.00000000000E+00  0.00000000000E+00  0.31931033718E+04  0.31931033718E+04  0.00000000000E+00 0. -1.
         -2   -1    0    0    0  501 -0.00000000000E+00 -0.00000000000E+00 -0.11825520102E+03  0.11825520102E+03  0.00000000000E+00 0.  1.
         25    2    1    2    0    0  0.16815752407E+03 -0.11703663218E+03  0.30223045243E+04  0.30318185033E+04  0.12499709300E+03 0.  0.
          4    1    3    3  502    0 -0.41392543628E+01  0.14359238636E+02  0.70823165436E+02  0.72393748509E+02  0.12700000000E+01 0.  1.
         -4    1    3    3    0  502  0.17229677844E+03 -0.13139587081E+03  0.29514813588E+04  0.29594247548E+04  0.12700000000E+01 0.  1.
          1    1    1    2  503    0 -0.44107463326E+02  0.19764608369E+01  0.95295340140E+02  0.10502655174E+03  0.00000000000E+00 0. -1.
         -1    1    1    2    0  501 -0.12405006075E+03  0.11506017134E+03 -0.42751693597E+02  0.17451351783E+03  0.00000000000E+00 0.  1.
<mgrwt>
<rscale>  0 0.86614182E+02</rscale>
<asrwt>0</asrwt>
<pdfrwt beam="1">  1        2 0.49124661E+00 0.44151724E+02</pdfrwt>
<pdfrwt beam="2">  1       -2 0.18193110E-01 0.16991446E+03</pdfrwt>
<totfact> 0.53204589E+01</totfact>
</mgrwt>
</event>
<event>
 7    1  0.5277388E-004  0.7014023E+02  0.7546771E-02  0.1362891E+00
          1   -1    0    0  502    0 -0.00000000000E+00  0.00000000000E+00  0.12112606160E+02  0.12112606160E+02  0.00000000000E+00 0. -1.
          2   -1    0    0  503    0  0.00000000000E+00 -0.00000000000E+00 -0.25574522945E+04  0.25574522945E+04  0.00000000000E+00 0. -1.
         25    2    1    2    0    0  0.32985725562E+02 -0.89041737463E+01 -0.17014244582E+04  0.17063523093E+04  0.12500269623E+03 0.  0.
          4    1    3    3  501    0  0.20475339919E+01 -0.21220510379E+02 -0.47365834468E+02  0.51958037213E+02  0.12700000000E+01 0.  1.
         -4    1    3    3    0  501  0.30938191570E+02  0.12316336632E+02 -0.16540586237E+04  0.16543942721E+04  0.12700000000E+01 0.  1.
          2    1    1    2  502    0 -0.50021500202E+02 -0.57175563049E+02 -0.17438714564E+03  0.19021585648E+03  0.00000000000E+00 0. -1.
          1    1    1    2  503    0  0.17035774640E+02  0.66079736795E+02 -0.66952808453E+03  0.67299673492E+03  0.00000000000E+00 0. -1.
<mgrwt>
<rscale>  0 0.69183785E+02</rscale>
<asrwt>0</asrwt>
<pdfrwt beam="2">  1        2 0.39345429E+00 0.68240378E+02</pdfrwt>
<pdfrwt beam="1">  1        1 0.18634775E-02 0.70140234E+02</pdfrwt>
<totfact> 0.34387207E+03</totfact>
</mgrwt>
</event>
<event>
 7    1  0.5277388E-004  0.3564904E+02  0.7546771E-02  0.1590843E+00
         -1   -1    0    0    0  501 -0.00000000000E+00  0.00000000000E+00  0.66834141540E+02  0.66834141540E+02  0.00000000000E+00 0.  1.
          1   -1    0    0  503    0  0.00000000000E+00 -0.00000000000E+00 -0.63171821122E+03  0.63171821122E+03  0.00000000000E+00 0. -1.
         25    2    1    2    0    0 -0.57568832785E+01  0.26145671417E+02 -0.11844289589E+03  0.17425318118E+03  0.12497485238E+03 0.  0.
          4    1    3    3  502    0  0.11653122375E+01 -0.39880578276E+02 -0.17073258595E+01  0.39954303120E+02  0.12700000000E+01 0. -1.
         -4    1    3    3    0  502 -0.69221955160E+01  0.66026249692E+02 -0.11673557003E+03  0.13429887806E+03  0.12700000000E+01 0. -1.
          2    1    1    2  503    0  0.26010685905E+02  0.43939596200E+01 -0.47629965127E+03  0.47702958028E+03  0.00000000000E+00 0. -1.
         -2    1    1    2    0  501 -0.20253802627E+02 -0.30539631037E+02  0.29858477474E+02  0.47269591301E+02  0.00000000000E+00 0.  1.
<mgrwt>
<rscale>  0 0.30665837E+02</rscale>
<asrwt>0</asrwt>
<pdfrwt beam="2">  1        1 0.97187414E-01 0.26379209E+02</pdfrwt>
<pdfrwt beam="1">  1       -1 0.10282176E-01 0.35649043E+02</pdfrwt>
<totfact> 0.18128194E+03</totfact>
</mgrwt>
</event>
<event>
 7    1  0.5277388E-004  0.5104841E+02  0.7546771E-02  0.1442336E+00
          1   -1    0    0  502    0 -0.00000000000E+00  0.00000000000E+00  0.22025277399E+04  0.22025277399E+04  0.00000000000E+00 0. -1.
          2   -1    0    0  503    0  0.00000000000E+00 -0.00000000000E+00 -0.19356517419E+04  0.19356517419E+04  0.00000000000E+00 0. -1.
         25    2    1    2    0    0 -0.70973288246E+02 -0.47191434196E+02 -0.60328845725E+03  0.62196957140E+03  0.12499978399E+03 0.  0.
          4    1    3    3  501    0  0.23866486359E+02  0.19192963327E+02 -0.20208292204E+03  0.20439446982E+03  0.12700000000E+01 0.  1.
         -4    1    3    3    0  501 -0.94839774605E+02 -0.66384397523E+02 -0.40120553520E+03  0.41757510158E+03  0.12700000000E+01 0.  1.
          2    1    1    2  502    0  0.51022692293E+02  0.12576073531E+01  0.21924161778E+04  0.21930101671E+04  0.00000000000E+00 0. -1.
          1    1    1    2  503    0  0.19950595953E+02  0.45933826843E+02 -0.13222517225E+04  0.13231997432E+04  0.00000000000E+00 0. -1.
<mgrwt>
<rscale>  0 0.50561564E+02</rscale>
<asrwt>0</asrwt>
<pdfrwt beam="2">  1        2 0.29779257E+00 0.50079364E+02</pdfrwt>
<pdfrwt beam="1">  1        1 0.33885042E+00 0.51048406E+02</pdfrwt>
<totfact> 0.40980797E+00</totfact>
</mgrwt>
</event>
<event>
 7    1  0.5277388E-004  0.1687547E+03  0.7546771E-02  0.1325928E+00
          2   -1    0    0  503    0  0.00000000000E+00  0.00000000000E+00  0.92120595531E+03  0.92120595531E+03  0.00000000000E+00 0. -1.
          1   -1    0    0  502    0 -0.00000000000E+00 -0.00000000000E+00 -0.12673974379E+04  0.12673974379E+04  0.00000000000E+00 0. -1.
         25    2    1    2    0    0  0.52567347200E+02 -0.13870087782E+03 -0.19503049117E+03  0.27506796404E+03  0.12499693139E+03 0.  0.
          4    1    3    3  501    0  0.28422263360E+02  0.11483090528E+02 -0.41073334112E+01  0.30954313275E+02  0.12700000000E+01 0.  1.
         -4    1    3    3    0  501  0.24145083840E+02 -0.15018396835E+03 -0.19092315776E+03  0.24411365077E+03  0.12700000000E+01 0.  1.
          2    1    1    2  502    0  0.38761313125E+02 -0.41735971205E+01 -0.10238160273E+04  0.10245580101E+04  0.00000000000E+00 0. -1.
          1    1    1    2  503    0 -0.91328660326E+02  0.14287447495E+03  0.87265503593E+03  0.88897741902E+03  0.00000000000E+00 0. -1.
<mgrwt>
<rscale>  0 0.81110809E+02</rscale>
<asrwt>0</asrwt>
<pdfrwt beam="1">  1        2 0.14172399E+00 0.16875471E+03</pdfrwt>
<pdfrwt beam="2">  1        1 0.19498422E+00 0.38985360E+02</pdfrwt>
<totfact> 0.49862180E+01</totfact>
</mgrwt>
</event>
<event>
 7    1  0.5277388E-004  0.1110821E+03  0.7546771E-02  0.1307851E+00
          2   -1    0    0  503    0  0.00000000000E+00  0.00000000000E+00  0.88607859177E+03  0.88607859177E+03  0.00000000000E+00 0. -1.
          1   -1    0    0  502    0 -0.00000000000E+00 -0.00000000000E+00 -0.31663610605E+03  0.31663610605E+03  0.00000000000E+00 0. -1.
         25    2    1    2    0    0  0.13623624551E+03  0.69251447777E+02  0.14255122556E+03  0.24351087854E+03  0.12498247257E+03 0.  0.
          4    1    3    3  501    0  0.15683623640E+03  0.40968651377E+02  0.12229496710E+03  0.20306084635E+03  0.12700000000E+01 0.  1.
         -4    1    3    3    0  501 -0.20599990892E+02  0.28282796401E+02  0.20256258463E+02  0.40450032187E+02  0.12700000000E+01 0.  1.
          2    1    1    2  502    0 -0.10925667593E+03 -0.50261146584E+01 -0.25306492937E+03  0.27568848641E+03  0.00000000000E+00 0. -1.
          1    1    1    2  503    0 -0.26979569580E+02 -0.64225333119E+02  0.67995618953E+03  0.68351533287E+03  0.00000000000E+00 0. -1.
<mgrwt>
<rscale>  0 0.87967048E+02</rscale>
<asrwt>0</asrwt>
<pdfrwt beam="1">  1        2 0.13631978E+00 0.69661974E+02</pdfrwt>
<pdfrwt beam="2">  1        1 0.48713247E-01 0.11108215E+03</pdfrwt>
<totfact> 0.36872245E+02</totfact>
</mgrwt>
</event>
<event>
 7    1  0.5277388E-004  0.5431417E+02  0.7546771E-02  0.1433215E+00
          2   -1    0    0  503    0  0.00000000000E+00  0.00000000000E+00  0.40390078719E+03  0.40390078719E+03  0.00000000000E+00 0. -1.
          1   -1    0    0  502    0 -0.00000000000E+00 -0.00000000000E+00 -0.20933774481E+03  0.20933774481E+03  0.00000000000E+00 0. -1.
         25    2    1    2    0    0  0.17486671488E+02  0.89137051759E+01  0.80778492112E+02  0.15014582904E+03  0.12503346500E+03 0.  0.
          4    1    3    3  501    0 -0.20172981677E+02 -0.88096348884E+01 -0.26849697679E+02  0.34743028395E+02  0.12700000000E+01 0.  1.
         -4    1    3    3    0  501  0.37659653165E+02  0.17723340064E+02  0.10762818979E+03  0.11540280065E+03  0.12700000000E+01 0.  1.
          2    1    1    2  502    0  0.32361309457E+02 -0.38636774457E+02 -0.16799828606E+03  0.17539520748E+03  0.00000000000E+00 0. -1.
          1    1    1    2  503    0 -0.49847980945E+02  0.29723069281E+02  0.28178283633E+03  0.28769749547E+03  0.00000000000E+00 0. -1.
<mgrwt>
<rscale>  0 0.52319954E+02</rscale>
<asrwt>0</asrwt>
<pdfrwt beam="1">  1        2 0.62138582E-01 0.54314173E+02</pdfrwt>
<pdfrwt beam="2">  1        1 0.32205807E-01 0.50398955E+02</pdfrwt>
<totfact> 0.14590132E+03</totfact>
</mgrwt>
</event>
<event>
 7    1  0.5277388E-004  0.4563641E+03  0.7546771E-02  0.1236869E+00
          1   -1    0    0  502    0 -0.00000000000E+00  0.00000000000E+00  0.24954048557E+04  0.24954048557E+04  0.00000000000E+00 0. -1.
          2   -1    0    0  503    0  0.00000000000E+00 -0.00000000000E+00 -0.19414823023E+04  0.19414823023E+04  0.00000000000E+00 0. -1.
         25    2    1    2    0    0 -0.35770176519E+03  0.26732524770E+03  0.28712089066E+03  0.54541467428E+03  0.12500168075E+03 0.  0.
          4    1    3    3  501    0 -0.16918089921E+01  0.42203459528E+02  0.21160052795E+02  0.47258384950E+02  0.12700000000E+01 0.  1.
         -4    1    3    3    0  501 -0.35600995620E+03  0.22512178817E+03  0.26596083787E+03  0.49815628933E+03  0.12700000000E+01 0.  1.
          2    1    1    2  502    0  0.38540642413E+03 -0.24829018563E+03  0.20537038465E+04  0.21042541712E+04  0.00000000000E+00 0. -1.
          1    1    1    2  503    0 -0.27704658938E+02 -0.19035062069E+02 -0.17869021839E+04  0.17872183125E+04  0.00000000000E+00 0. -1.
<mgrwt>
<rscale>  0 0.12385513E+03</rscale>
<asrwt>0</asrwt>
<pdfrwt beam="2">  1        2 0.29868958E+00 0.33613713E+02</pdfrwt>
<pdfrwt beam="1">  1        1 0.38390844E+00 0.45636413E+03</pdfrwt>
<totfact> 0.20569460E+00</totfact>
</mgrwt>
</event>
<event>
 7    1  0.5277388E-004  0.1476710E+03  0.7546771E-02  0.1237973E+00
          2   -1    0    0  503    0  0.00000000000E+00  0.00000000000E+00  0.13593487884E+03  0.13593487884E+03  0.00000000000E+00 0. -1.
          1   -1    0    0  502    0 -0.00000000000E+00 -0.00000000000E+00 -0.15450405438E+04  0.15450405438E+04  0.00000000000E+00 0. -1.
         25    2    1    2    0    0 -0.54328033368E+02  0.16177588588E+03 -0.23319425286E+03  0.31484508527E+03  0.12499958275E+03 0.  0.
          4    1    3    3  501    0 -0.24948828787E+01  0.12321203402E+03 -0.75763774634E+02  0.14466925110E+03  0.12700000000E+01 0.  1.
         -4    1    3    3    0  501 -0.51833150489E+02  0.38563851864E+02 -0.15743047822E+03  0.17017583416E+03  0.12700000000E+01 0.  1.
          2    1    1    2  502    0 -0.67865640232E+02 -0.77105174077E+02 -0.12093907497E+04  0.12137450055E+04  0.00000000000E+00 0. -1.
          1    1    1    2  503    0  0.12219367360E+03 -0.84670711803E+02  0.33479337618E+02  0.15238533182E+03  0.00000000000E+00 0. -1.
<mgrwt>
<rscale>  0 0.12316025E+03</rscale>
<asrwt>0</asrwt>
<pdfrwt beam="1">  1        2 0.20913058E-01 0.14767102E+03</pdfrwt>
<pdfrwt beam="2">  1        1 0.23769855E+00 0.10271783E+03</pdfrwt>
<totfact> 0.25817285E+02</totfact>
</mgrwt>
</event>
<event>
 7    1  0.5277388E-004  0.8848432E+02  0.7546771E-02  0.1325753E+00
         -1   -1    0    0    0  501 -0.00000000000E+00  0.00000000000E+00  0.15929118515E+04  0.15929118515E+04  0.00000000000E+00 0.  1.
          1   -1    0    0  503    0  0.00000000000E+00 -0.00000000000E+00 -0.17681977566E+04  0.17681977566E+04  0.00000000000E+00 0. -1.
         25    2    1    2    0    0 -0.22736359244E+02  0.10514780781E+03  0.24154315083E+03  0.29247695365E+03  0.12500668456E+03 0.  0.
          4    1    3    3  502    0 -0.54238315266E+02  0.91791124841E+02  0.97710354438E+02  0.14462479631E+03  0.12700000000E+01 0. -1.
         -4    1    3    3    0  502  0.31501956022E+02  0.13356682973E+02  0.14383279639E+03  0.14785215734E+03  0.12700000000E+01 0. -1.
          2    1    1    2  503    0  0.72948060037E+02 -0.50155252903E+02 -0.17405594655E+04  0.17428092902E+04  0.00000000000E+00 0. -1.
         -2    1    1    2    0  501 -0.50211700793E+02 -0.54992554911E+02  0.13237304096E+04  0.13258233643E+04  0.00000000000E+00 0.  1.
<mgrwt>
<rscale>  0 0.81173881E+02</rscale>
<asrwt>0</asrwt>
<pdfrwt beam="2">  1        1 0.27203042E+00 0.88484324E+02</pdfrwt>
<pdfrwt beam="1">  1       -1 0.24506336E+00 0.74467416E+02</pdfrwt>
<totfact> 0.53321184E-01</totfact>
</mgrwt>
</event>
<event>
 7    1  0.5277388E-004  0.1284673E+03  0.7546771E-02  0.1235809E+00
         -2   -1    0    0    0  501  0.00000000000E+00  0.00000000000E+00  0.25551971414E+03  0.25551971414E+03  0.00000000000E+00 0.  1.
         -1   -1    0    0    0  502 -0.00000000000E+00 -0.00000000000E+00 -0.23634557561E+03  0.23634557561E+03  0.00000000000E+00 0.  1.
         25    2    1    2    0    0 -0.24412252595E+02  0.55269459966E+02  0.42027939636E+02  0.14506313415E+03  0.12500517549E+03 0.  0.
          4    1    3    3  503    0  0.10822946228E+02 -0.11467293234E+02 -0.34266811330E+02  0.37742048672E+02  0.12700000000E+01 0.  1.
         -4    1    3    3    0  503 -0.35235198823E+02  0.66736753201E+02  0.76294750966E+02  0.10732108548E+03  0.12700000000E+01 0.  1.
         -2    1    1    2    0  502  0.15138872240E+03 -0.35754530454E+02 -0.11091764856E+03  0.19104883271E+03  0.00000000000E+00 0.  1.
         -1    1    1    2    0  501 -0.12697646980E+03 -0.19514929512E+02  0.88063847464E+02  0.15575332288E+03  0.00000000000E+00 0.  1.
<mgrwt>
<rscale>  0 0.12452816E+03</rscale>
<asrwt>0</asrwt>
<pdfrwt beam="1">  1       -2 0.39310726E-01 0.12846734E+03</pdfrwt>
<pdfrwt beam="2">  1       -1 0.36360858E-01 0.12070978E+03</pdfrwt>
<totfact> 0.33210479E+02</totfact>
</mgrwt>
</event>
<event>
 7    1  0.5277388E-004  0.7127949E+02  0.7546771E-02  0.1372587E+00
         -2   -1    0    0    0  501 -0.00000000000E+00  0.00000000000E+00  0.10665529826E+03  0.10665529826E+03  0.00000000000E+00 0.  1.
          2   -1    0    0  503    0  0.00000000000E+00 -0.00000000000E+00 -0.51833582641E+03  0.51833582641E+03  0.00000000000E+00 0. -1.
         25    2    1    2    0    0  0.48570118861E+01  0.61339100385E+02 -0.43511055806E+02  0.14596617966E+03  0.12500735109E+03 0.  0.
          4    1    3    3  502    0 -0.37249688636E+02 -0.18780680620E+02 -0.36032977186E+02  0.55138386021E+02  0.12700000000E+01 0. -1.
         -4    1    3    3    0  502  0.42106700522E+02  0.80119781005E+02 -0.74780786191E+01  0.90827793637E+02  0.12700000000E+01 0. -1.
          1    1    1    2  503    0 -0.61761099286E+02 -0.48814193025E+01 -0.39084118127E+03  0.39572097571E+03  0.00000000000E+00 0. -1.
         -1    1    1    2    0  501  0.56904087400E+02 -0.56457681082E+02  0.22671708932E+02  0.83303969305E+02  0.00000000000E+00 0.  1.
<mgrwt>
<rscale>  0 0.66453204E+02</rscale>
<asrwt>0</asrwt>
<pdfrwt beam="2">  1        2 0.79743973E-01 0.61953706E+02</pdfrwt>
<pdfrwt beam="1">  1       -2 0.16408507E-01 0.71279486E+02</pdfrwt>
<totfact> 0.17028985E+03</totfact>
</mgrwt>
</event>
<event>
 7    1  0.5277388E-004  0.4439811E+02  0.7546771E-02  0.1525250E+00
          2   -1    0    0  503    0  0.00000000000E+00  0.00000000000E+00  0.71170614091E+03  0.71170614091E+03  0.00000000000E+00 0. -1.
          1   -1    0    0  502    0 -0.00000000000E+00 -0.00000000000E+00 -0.69162424267E+02  0.69162424267E+02  0.00000000000E+00 0. -1.
         25    2    1    2    0    0  0.39635161984E+02 -0.48515977948E+02  0.19760688393E+03  0.24207138704E+03  0.12500131866E+03 0.  0.
          4    1    3    3  501    0 -0.36044955818E+02 -0.33546096780E+02  0.13165827802E+03  0.14057060333E+03  0.12700000000E+01 0.  1.
         -4    1    3    3    0  501  0.75680117802E+02 -0.14969881167E+02  0.65948605912E+02  0.10150078371E+03  0.12700000000E+01 0.  1.
          2    1    1    2  502    0  0.11006889970E+01  0.32121822033E+02 -0.40317078824E+02  0.51560545109E+02  0.00000000000E+00 0. -1.
          1    1    1    2  503    0 -0.40735850981E+02  0.16394155914E+02  0.48525391154E+03  0.48723663303E+03  0.00000000000E+00 0. -1.
<mgrwt>
<rscale>  0 0.37775456E+02</rscale>
<asrwt>0</asrwt>
<pdfrwt beam="1">  1        2 0.10949325E+00 0.44398105E+02</pdfrwt>
<pdfrwt beam="2">  1        1 0.10640373E-01 0.32140675E+02</pdfrwt>
<totfact> 0.30349209E+03</totfact>
</mgrwt>
</event>
<event>
 7    1  0.5277388E-004  0.8908084E+02  0.7546771E-02  0.1387940E+00
         -1   -1    0    0    0  501 -0.00000000000E+00  0.00000000000E+00  0.17876458517E+04  0.17876458517E+04  0.00000000000E+00 0.  1.
          1   -1    0    0  503    0  0.00000000000E+00 -0.00000000000E+00 -0.15907614878E+04  0.15907614878E+04  0.00000000000E+00 0. -1.
         25    2    1    2    0    0  0.30071900093E+02  0.46081367585E+02 -0.54769545826E+03  0.56446772565E+03  0.12500274672E+03 0.  0.
          4    1    3    3  502    0  0.32291290948E+02  0.71489189607E+02 -0.52331075976E+03  0.52915895143E+03  0.12700000000E+01 0. -1.
         -4    1    3    3    0  502 -0.22193908545E+01 -0.25407822022E+02 -0.24384698500E+02  0.35308774216E+02  0.12700000000E+01 0. -1.
          2    1    1    2  503    0 -0.57526735940E+02 -0.80133375444E+02 -0.10320589597E+04  0.10367624509E+04  0.00000000000E+00 0. -1.
         -2    1    1    2    0  501  0.27454835847E+02  0.34052007860E+02  0.17766387819E+04  0.17771771630E+04  0.00000000000E+00 0.  1.
<mgrwt>
<rscale>  0 0.62422093E+02</rscale>
<asrwt>0</asrwt>
<pdfrwt beam="2">  1        1 0.24473254E+00 0.89080837E+02</pdfrwt>
<pdfrwt beam="1">  1       -1 0.27502244E+00 0.43741368E+02</pdfrwt>
<totfact> 0.48400181E-01</totfact>
</mgrwt>
</event>
<event>
 7    1  0.5277388E-004  0.1133139E+03  0.7546771E-02  0.1270978E+00
          2   -1    0    0  503    0  0.00000000000E+00  0.00000000000E+00  0.19169296152E+04  0.19169296152E+04  0.00000000000E+00 0. -1.
         -2   -1    0    0    0  501 -0.00000000000E+00 -0.00000000000E+00 -0.84385312553E+03  0.84385312553E+03  0.00000000000E+00 0.  1.
         25    2    1    2    0    0 -0.19860860077E+03 -0.47566285658E+02  0.29302193181E+02  0.24122208079E+03  0.12498618286E+03 0.  0.
          4    1    3    3  502    0 -0.12501280718E+03 -0.71068534826E+02  0.62905173788E+02  0.15696372954E+03  0.12700000000E+01 0.  1.
         -4    1    3    3    0  502 -0.73595793584E+02  0.23502249169E+02 -0.33602980607E+02  0.84258351247E+02  0.12700000000E+01 0.  1.
          1    1    1    2  503    0  0.88364186934E+02  0.38764005220E+02  0.17762065780E+04  0.17788256479E+04  0.00000000000E+00 0. -1.
         -1    1    1    2    0  501  0.11024441383E+03  0.88022804379E+01 -0.73243228159E+03  0.74073501203E+03  0.00000000000E+00 0.  1.
<mgrwt>
<rscale>  0 0.10456572E+03</rscale>
<asrwt>0</asrwt>
<pdfrwt beam="1">  1        2 0.29491225E+00 0.96492889E+02</pdfrwt>
<pdfrwt beam="2">  1       -2 0.12982356E+00 0.11331394E+03</pdfrwt>
<totfact> 0.43981940E+00</totfact>
</mgrwt>
</event>
<event>
 7    1  0.5277388E-004  0.1286607E+03  0.7546771E-02  0.1240947E+00
          1   -1    0    0  503    0  0.00000000000E+00  0.00000000000E+00  0.92170485904E+03  0.92170485904E+03  0.00000000000E+00 0. -1.
         -1   -1    0    0    0  501 -0.00000000000E+00 -0.00000000000E+00 -0.84473257113E+02  0.84473257113E+02  0.00000000000E+00 0.  1.
         25    2    1    2    0    0 -0.37401786700E+02  0.13179239710E+03  0.25280246177E+03  0.31352957737E+03  0.12499432640E+03 0.  0.
          4    1    3    3  502    0  0.40433959105E+02  0.11850049755E+02  0.65341351403E+02  0.77758818350E+02  0.12700000000E+01 0.  1.
         -4    1    3    3    0  502 -0.77835745805E+02  0.11994234734E+03  0.18746111036E+03  0.23577075902E+03  0.12700000000E+01 0.  1.
          2    1    1    2  503    0 -0.75615457183E+02 -0.11415956722E+03  0.55892666481E+03  0.57545557673E+03  0.00000000000E+00 0. -1.
         -2    1    1    2    0  501  0.11301724388E+03 -0.17632829878E+02  0.25502475347E+02  0.11719296205E+03  0.00000000000E+00 0.  1.
<mgrwt>
<rscale>  0 0.12131280E+03</rscale>
<asrwt>0</asrwt>
<pdfrwt beam="1">  1        1 0.14180074E+00 0.12866074E+03</pdfrwt>
<pdfrwt beam="2">  1       -1 0.12995886E-01 0.11438450E+03</pdfrwt>
<totfact> 0.74529748E+02</totfact>
</mgrwt>
</event>
<event>
 7    1  0.5277388E-004  0.3973383E+02  0.7546771E-02  0.1593066E+00
          2   -1    0    0  503    0  0.00000000000E+00  0.00000000000E+00  0.12120023064E+04  0.12120023064E+04  0.00000000000E+00 0. -1.
         -2   -1    0    0    0  501 -0.00000000000E+00 -0.00000000000E+00 -0.10509786430E+02  0.10509786430E+02  0.00000000000E+00 0.  1.
         25    2    1    2    0    0  0.92651349376E+00  0.30392392035E+02  0.65739409947E+03  0.66986402874E+03  0.12500503618E+03 0.  0.
          4    1    3    3  502    0  0.48483320479E+01  0.79298879749E+02  0.41987685011E+03  0.42732891408E+03  0.12700000000E+01 0. -1.
         -4    1    3    3    0  502 -0.39218185541E+01 -0.48906487714E+02  0.23751724936E+03  0.24253511466E+03  0.12700000000E+01 0. -1.
          1    1    1    2  503    0  0.21872996511E+02 -0.35430882655E+02  0.50769600921E+03  0.50940064113E+03  0.00000000000E+00 0. -1.
         -1    1    1    2    0  501 -0.22799510005E+02  0.50384906199E+01  0.36402411308E+02  0.43247422967E+02  0.00000000000E+00 0.  1.
<mgrwt>
<rscale>  0 0.30459306E+02</rscale>
<asrwt>0</asrwt>
<pdfrwt beam="1">  1        2 0.18646178E+00 0.39733833E+02</pdfrwt>
<pdfrwt beam="2">  1       -2 0.16168912E-02 0.23349605E+02</pdfrwt>
<totfact> 0.16216878E+04</totfact>
</mgrwt>
</event>
<event>
 7    1  0.5277388E-004  0.2423993E+03  0.7546771E-02  0.1216475E+00
          2   -1    0    0  503    0  0.00000000000E+00  0.00000000000E+00  0.24016107277E+03  0.24016107277E+03  0.00000000000E+00 0. -1.
          1   -1    0    0  502    0 -0.00000000000E+00 -0.00000000000E+00 -0.42071330360E+04  0.42071330360E+04  0.00000000000E+00 0. -1.
         25    2    1    2    0    0  0.19103089995E+03 -0.62562070105E+01 -0.49812801478E+03  0.54798553354E+03  0.12499872399E+03 0.  0.
          4    1    3    3  501    0  0.11847959076E+02 -0.12956627928E+02  0.99418666904E+00  0.17630928752E+02  0.12700000000E+01 0.  1.
         -4    1    3    3    0  501  0.17918294087E+03  0.67004209180E+01 -0.49912220145E+03  0.53035460479E+03  0.12700000000E+01 0.  1.
          2    1    1    2  502    0  0.50260842265E+02 -0.59920448371E+02 -0.36107961244E+04  0.36116430145E+04  0.00000000000E+00 0. -1.
          1    1    1    2  503    0 -0.24129174221E+03  0.66176655382E+02  0.14195217592E+03  0.28766556072E+03  0.00000000000E+00 0. -1.
<mgrwt>
<rscale>  0 0.13768716E+03</rscale>
<asrwt>0</asrwt>
<pdfrwt beam="1">  1        2 0.36947855E-01 0.24239934E+03</pdfrwt>
<pdfrwt beam="2">  1        1 0.64725127E+00 0.78208774E+02</pdfrwt>
<totfact> 0.20774420E+00</totfact>
</mgrwt>
</event>
<event>
 7    1  0.5277388E-004  0.5921560E+02  0.7546771E-02  0.1455115E+00
          1   -1    0    0  502    0 -0.00000000000E+00  0.00000000000E+00  0.53546246224E+02  0.53546246224E+02  0.00000000000E+00 0. -1.
          2   -1    0    0  503    0  0.00000000000E+00 -0.00000000000E+00 -0.58781249701E+03  0.58781249701E+03  0.00000000000E+00 0. -1.
         25    2    1    2    0    0  0.27738156025E+02 -0.13741903470E+02 -0.14158389945E+03  0.19139151893E+03  0.12500587076E+03 0.  0.
          4    1    3    3  501    0  0.26563867842E+02  0.53080535949E+02 -0.85743849851E+02  0.10429191272E+03  0.12700000000E+01 0. -1.
         -4    1    3    3    0  501  0.11742881833E+01 -0.66822439419E+02 -0.55840049596E+02  0.87099606207E+02  0.12700000000E+01 0. -1.
          2    1    1    2  502    0 -0.66208653727E+02  0.57759661552E+01 -0.12333574503E+02  0.67594856856E+02  0.00000000000E+00 0. -1.
          1    1    1    2  503    0  0.38470497701E+02  0.79659373144E+01 -0.38034877684E+03  0.38237236746E+03  0.00000000000E+00 0. -1.
<mgrwt>
<rscale>  0 0.48232545E+02</rscale>
<asrwt>0</asrwt>
<pdfrwt beam="2">  1        2 0.90432699E-01 0.39286580E+02</pdfrwt>
<pdfrwt beam="1">  1        1 0.82378834E-02 0.59215600E+02</pdfrwt>
<totfact> 0.54820655E+03</totfact>
</mgrwt>
</event>
<event>
 7    1  0.5277388E-004  0.4504980E+02  0.7546771E-02  0.1488779E+00
         -2   -1    0    0    0  501  0.00000000000E+00  0.00000000000E+00  0.35473864683E+03  0.35473864683E+03  0.00000000000E+00 0.  1.
         -1   -1    0    0    0  502 -0.00000000000E+00 -0.00000000000E+00 -0.31088024789E+03  0.31088024789E+03  0.00000000000E+00 0.  1.
         25    2    1    2    0    0  0.35104872475E+02 -0.73530268951E+02  0.14666182533E+03  0.20921982213E+03  0.12499676172E+03 0.  0.
          4    1    3    3  503    0  0.13866105557E+02  0.10248499962E+02  0.11633972233E+03  0.11761736490E+03  0.12700000000E+01 0. -1.
         -4    1    3    3    0  503  0.21238766919E+02 -0.83778768913E+02  0.30322102999E+02  0.91602457233E+02  0.12700000000E+01 0. -1.
         -2    1    1    2    0  502 -0.23803937643E+02  0.32891119617E+02 -0.27557653165E+03  0.27855139201E+03  0.00000000000E+00 0.  1.
         -1    1    1    2    0  501 -0.11300934832E+02  0.40639149334E+02  0.17277310526E+03  0.17784768058E+03  0.00000000000E+00 0.  1.
<mgrwt>
<rscale>  0 0.42767669E+02</rscale>
<asrwt>0</asrwt>
<pdfrwt beam="1">  1       -2 0.54575176E-01 0.45049798E+02</pdfrwt>
<pdfrwt beam="2">  1       -1 0.47827731E-01 0.40601148E+02</pdfrwt>
<totfact> 0.10837743E+02</totfact>
</mgrwt>
</event>
<event>
 7    1  0.5277388E-004  0.1197974E+03  0.7546771E-02  0.1359492E+00
          1   -1    0    0  502    0 -0.00000000000E+00  0.00000000000E+00  0.97645115628E+03  0.97645115628E+03  0.00000000000E+00 0. -1.
          2   -1    0    0  503    0  0.00000000000E+00 -0.00000000000E+00 -0.17967767067E+03  0.17967767067E+03  0.00000000000E+00 0. -1.
         25    2    1    2    0    0 -0.44077742920E+02 -0.15296338411E+03 -0.47061212605E+02  0.20779993350E+03  0.12500164131E+03 0.  0.
          4    1    3    3  501    0  0.36706110522E+02 -0.97949399834E+02 -0.26548378449E+02  0.10792521844E+03  0.12700000000E+01 0. -1.
         -4    1    3    3    0  501 -0.80783853441E+02 -0.55013984277E+02 -0.20512834156E+02  0.99874715058E+02  0.12700000000E+01 0. -1.
          2    1    1    2  502    0  0.38098030980E+02  0.11229101801E+03  0.88337025900E+03  0.89129330031E+03  0.00000000000E+00 0. -1.
          1    1    1    2  503    0  0.59797119391E+01  0.40672366099E+02 -0.39535560786E+02  0.57035593147E+02  0.00000000000E+00 0. -1.
<mgrwt>
<rscale>  0 0.70177065E+02</rscale>
<asrwt>0</asrwt>
<pdfrwt beam="2">  1        2 0.27642719E-01 0.41109589E+02</pdfrwt>
<pdfrwt beam="1">  1        1 0.15022325E+00 0.11979736E+03</pdfrwt>
<totfact> 0.43672381E+02</totfact>
</mgrwt>
</event>
<event>
 7    1  0.5277388E-004  0.2783109E+02  0.7546771E-02  0.1650105E+00
          1   -1    0    0  502    0 -0.00000000000E+00  0.00000000000E+00  0.13565877109E+04  0.13565877109E+04  0.00000000000E+00 0. -1.
          2   -1    0    0  503    0  0.00000000000E+00 -0.00000000000E+00 -0.79722825543E+03  0.79722825543E+03  0.00000000000E+00 0. -1.
         25    2    1    2    0    0  0.57668420749E+01 -0.95346035714E+01 -0.12554076218E+03  0.17750972706E+03  0.12500022039E+03 0.  0.
          4    1    3    3  501    0  0.14839874748E+02 -0.53670038568E+02 -0.11974161029E+03  0.13206195916E+03  0.12700000000E+01 0.  1.
         -4    1    3    3    0  501 -0.90730326735E+01  0.44135434997E+02 -0.57991518924E+01  0.45447767898E+02  0.12700000000E+01 0.  1.
          2    1    1    2  502    0  0.22300956398E+02  0.85168562753E+01  0.13301906655E+04  0.13304048542E+04  0.00000000000E+00 0. -1.
          1    1    1    2  503    0 -0.28067798473E+02  0.10177472961E+01 -0.64529044786E+03  0.64590138506E+03  0.00000000000E+00 0. -1.
<mgrwt>
<rscale>  0 0.25775611E+02</rscale>
<asrwt>0</asrwt>
<pdfrwt beam="2">  1        2 0.12265050E+00 0.27831091E+02</pdfrwt>
<pdfrwt beam="1">  1        1 0.20870580E+00 0.23871940E+02</pdfrwt>
<totfact> 0.59305131E+01</totfact>
</mgrwt>
</event>
<event>
 7    1  0.5277388E-004  0.4971355E+02  0.7546771E-02  0.1493229E+00
          1   -1    0    0  503    0  0.00000000000E+00  0.00000000000E+00  0.98303721722E+03  0.98303721722E+03  0.00000000000E+00 0. -1.
         -1   -1    0    0    0  501 -0.00000000000E+00 -0.00000000000E+00 -0.44577889936E+03  0.44577889936E+03  0.00000000000E+00 0.  1.
         25    2    1    2    0    0 -0.77147937268E+02 -0.32723905062E+02 -0.45479287205E+02  0.15721068666E+03  0.12499670495E+03 0.  0.
          4    1    3    3  502    0 -0.68880873281E+02 -0.65943600534E+02  0.57989433721E+01  0.95542523515E+02  0.12700000000E+01 0.  1.
         -4    1    3    3    0  502 -0.82670639866E+01  0.33219695471E+02 -0.51278230577E+02  0.61668163142E+02  0.12700000000E+01 0.  1.
          2    1    1    2  503    0  0.42115616453E+02  0.26005070009E+02  0.92558492384E+03  0.92690746035E+03  0.00000000000E+00 0. -1.
         -2    1    1    2    0  501  0.35032320814E+02  0.67188350529E+01 -0.34284731877E+03  0.34469796958E+03  0.00000000000E+00 0.  1.
<mgrwt>
<rscale>  0 0.42110832E+02</rscale>
<asrwt>0</asrwt>
<pdfrwt beam="1">  1        1 0.15123649E+00 0.49713546E+02</pdfrwt>
<pdfrwt beam="2">  1       -1 0.68581369E-01 0.35670804E+02</pdfrwt>
<totfact> 0.43402455E+01</totfact>
</mgrwt>
</event>
<event>
 7    1  0.5277388E-004  0.3591572E+02  0.7546771E-02  0.1540845E+00
          2   -1    0    0  503    0  0.00000000000E+00  0.00000000000E+00  0.26721583806E+04  0.26721583806E+04  0.00000000000E+00 0. -1.
          1   -1    0    0  502    0 -0.00000000000E+00 -0.00000000000E+00 -0.45651920320E+03  0.45651920320E+03  0.00000000000E+00 0. -1.
         25    2    1    2    0    0 -0.34946869722E+02  0.23498210725E+02 -0.40655287153E+02  0.13803032361E+03  0.12500427294E+03 0.  0.
          4    1    3    3  501    0  0.37706086338E+02 -0.21543141684E+02 -0.18905943005E+00  0.43445420288E+02  0.12700000000E+01 0. -1.
         -4    1    3    3    0  501 -0.72652956060E+02  0.45041352409E+02 -0.40466227723E+02  0.94584903326E+02  0.12700000000E+01 0. -1.
          2    1    1    2  502    0  0.12026957087E+01 -0.35842154876E+02 -0.36617736156E+03  0.36792929574E+03  0.00000000000E+00 0. -1.
          1    1    1    2  503    0  0.33744174013E+02  0.12343944151E+02  0.26224718261E+04  0.26227179645E+04  0.00000000000E+00 0. -1.
<mgrwt>
<rscale>  0 0.35889015E+02</rscale>
<asrwt>0</asrwt>
<pdfrwt beam="1">  1        2 0.41110128E+00 0.35915722E+02</pdfrwt>
<pdfrwt beam="2">  1        1 0.70233725E-01 0.35862328E+02</pdfrwt>
<totfact> 0.31384434E+01</totfact>
</mgrwt>
</event>
<event>
 7    1  0.5277388E-004  0.1507248E+03  0.7546771E-02  0.1280324E+00
          1   -1    0    0  502    0 -0.00000000000E+00  0.00000000000E+00  0.75664933352E+03  0.75664933352E+03  0.00000000000E+00 0. -1.
          2   -1    0    0  503    0  0.00000000000E+00 -0.00000000000E+00 -0.38468235218E+03  0.38468235218E+03  0.00000000000E+00 0. -1.
         25    2    1    2    0    0  0.11957338087E+03  0.16779192263E+01  0.27344740520E+03  0.32357273876E+03  0.12500090012E+03 0.  0.
          4    1    3    3  501    0  0.14570817005E+01 -0.96528169822E+01 -0.11360619012E+02  0.15032515661E+02  0.12700000000E+01 0. -1.
         -4    1    3    3    0  501  0.11811629917E+03  0.11330736209E+02  0.28480802421E+03  0.30854022309E+03  0.12700000000E+01 0. -1.
          2    1    1    2  502    0 -0.16616430435E+03 -0.48887357307E+02  0.43844770315E+03  0.47142012912E+03  0.00000000000E+00 0. -1.
          1    1    1    2  503    0  0.46590923472E+02  0.47209438081E+02 -0.33992812702E+03  0.34633881782E+03  0.00000000000E+00 0. -1.
<mgrwt>
<rscale>  0 0.99986602E+02</rscale>
<asrwt>0</asrwt>
<pdfrwt beam="2">  1        2 0.59181901E-01 0.66328314E+02</pdfrwt>
<pdfrwt beam="1">  1        1 0.11640759E+00 0.15072478E+03</pdfrwt>
<totfact> 0.29511853E+02</totfact>
</mgrwt>
</event>
<event>
 7    1  0.5277388E-004  0.7422584E+02  0.7546771E-02  0.1401807E+00
         -2   -1    0    0    0  501 -0.00000000000E+00  0.00000000000E+00  0.24623722870E+03  0.24623722870E+03  0.00000000000E+00 0.  1.
          2   -1    0    0  503    0  0.00000000000E+00 -0.00000000000E+00 -0.59592164452E+03  0.59592164452E+03  0.00000000000E+00 0. -1.
         25    2    1    2    0    0 -0.40512566563E+02 -0.11057580295E+03 -0.81055519884E+02  0.18990490838E+03  0.12500240267E+03 0.  0.
          4    1    3    3  502    0  0.31963318684E+02 -0.71896183434E+02 -0.65006638319E+01  0.78959397566E+02  0.12700000000E+01 0. -1.
         -4    1    3    3    0  502 -0.72475885247E+02 -0.38679619518E+02 -0.74554856052E+02  0.11094551081E+03  0.12700000000E+01 0. -1.
          1    1    1    2  503    0  0.23971353877E+02  0.40424341929E+02 -0.45241019086E+03  0.45484473617E+03  0.00000000000E+00 0. -1.
         -1    1    1    2    0  501  0.16541212686E+02  0.70151461023E+02  0.18378129492E+03  0.19740922867E+03  0.00000000000E+00 0.  1.
<mgrwt>
<rscale>  0 0.59062844E+02</rscale>
<asrwt>0</asrwt>
<pdfrwt beam="2">  1        2 0.91680253E-01 0.46997375E+02</pdfrwt>
<pdfrwt beam="1">  1       -2 0.37882650E-01 0.74225838E+02</pdfrwt>
<totfact> 0.34806501E+02</totfact>
</mgrwt>
</event>
<event>
 7    1  0.5277388E-004  0.8757496E+02  0.7546771E-02  0.1325068E+00
          1   -1    0    0  502    0 -0.00000000000E+00  0.00000000000E+00  0.24819418115E+03  0.24819418115E+03  0.00000000000E+00 0. -1.
          2   -1    0    0  503    0  0.00000000000E+00 -0.00000000000E+00 -0.54397970243E+03  0.54397970243E+03  0.00000000000E+00 0. -1.
         25    2    1    2    0    0  0.29731928241E+02  0.25722846147E+01 -0.43106661707E+03  0.44981720598E+03  0.12500594479E+03 0.  0.
          4    1    3    3  501    0  0.15711218135E+02 -0.54368076874E+02 -0.31192631027E+03  0.31702108148E+03  0.12700000000E+01 0. -1.
         -4    1    3    3    0  501  0.14020710106E+02  0.56940361489E+02 -0.11914030680E+03  0.13279612450E+03  0.12700000000E+01 0. -1.
          2    1    1    2  502    0 -0.45140456540E+02 -0.76686314764E+02  0.21483959549E+03  0.23253925148E+03  0.00000000000E+00 0. -1.
          3    1    1    2  503    0  0.15408528299E+02  0.74114030150E+02 -0.79558499695E+02  0.10981742614E+03  0.00000000000E+00 0. -1.
<mgrwt>
<rscale>  0 0.81420647E+02</rscale>
<asrwt>0</asrwt>
<pdfrwt beam="2">  1        2 0.83689185E-01 0.75698826E+02</pdfrwt>
<pdfrwt beam="1">  1        1 0.38183720E-01 0.87574961E+02</pdfrwt>
<totfact> 0.87140328E+02</totfact>
</mgrwt>
</event>
<event>
 7    1  0.5277388E-004  0.8530442E+02  0.7546771E-02  0.1353770E+00
          1   -1    0    0  502    0 -0.00000000000E+00  0.00000000000E+00  0.93873387240E+02  0.93873387240E+02  0.00000000000E+00 0. -1.
          2   -1    0    0  503    0  0.00000000000E+00 -0.00000000000E+00 -0.28822133622E+03  0.28822133622E+03  0.00000000000E+00 0. -1.
         25    2    1    2    0    0 -0.23662326141E+02 -0.10426625533E+03 -0.15737565025E+03  0.22764322722E+03  0.12499194345E+03 0.  0.
          4    1    3    3  501    0  0.46508239171E+02 -0.70367402935E+02 -0.10019155450E+03  0.13097537249E+03  0.12700000000E+01 0. -1.
         -4    1    3    3    0  501 -0.70170565312E+02 -0.33898852393E+02 -0.57184095749E+02  0.96667854722E+02  0.12700000000E+01 0. -1.
          2    1    1    2  502    0  0.51892479433E+02  0.31279632615E+02  0.12503212855E+02  0.61867399896E+02  0.00000000000E+00 0. -1.
          1    1    1    2  503    0 -0.28230153291E+02  0.72986622714E+02 -0.49475511581E+02  0.92584096346E+02  0.00000000000E+00 0. -1.
<mgrwt>
<rscale>  0 0.71893416E+02</rscale>
<asrwt>0</asrwt>
<pdfrwt beam="2">  1        2 0.44341744E-01 0.85304425E+02</pdfrwt>
<pdfrwt beam="1">  1        1 0.14442060E-01 0.60590798E+02</pdfrwt>
<totfact> 0.55961592E+03</totfact>
</mgrwt>
</event>
<event>
 7    1  0.5277388E-004  0.1411706E+03  0.7546771E-02  0.1424120E+00
          1   -1    0    0  502    0 -0.00000000000E+00  0.00000000000E+00  0.83202368039E+02  0.83202368039E+02  0.00000000000E+00 0. -1.
          2   -1    0    0  503    0  0.00000000000E+00 -0.00000000000E+00 -0.13498837653E+04  0.13498837653E+04  0.00000000000E+00 0. -1.
         25    2    1    2    0    0 -0.28325485316E+02 -0.14136245584E+03 -0.35948797013E+03  0.40699048352E+03  0.12499590383E+03 0.  0.
          4    1    3    3  501    0  0.26964795612E+02 -0.21027118066E+02 -0.18390841899E+03  0.18706458610E+03  0.12700000000E+01 0.  1.
         -4    1    3    3    0  501 -0.55290280927E+02 -0.12033533777E+03 -0.17557955114E+03  0.21992589743E+03  0.12700000000E+01 0.  1.
          2    1    1    2  502    0 -0.18859334511E+02  0.87191967610E+01  0.52327370283E+02  0.56301443774E+02  0.00000000000E+00 0. -1.
          1    1    1    2  503    0  0.47184819826E+02  0.13264325907E+03 -0.95952079746E+03  0.96979420609E+03  0.00000000000E+00 0. -1.
<mgrwt>
<rscale>  0 0.54158583E+02</rscale>
<asrwt>0</asrwt>
<pdfrwt beam="2">  1        2 0.20767440E+00 0.14117056E+03</pdfrwt>
<pdfrwt beam="1">  1        1 0.12800366E-01 0.20777365E+02</pdfrwt>
<totfact> 0.92494587E+02</totfact>
</mgrwt>
</event>
<event>
 7    1  0.5277388E-004  0.1842364E+03  0.7546771E-02  0.1265108E+00
          1   -1    0    0  503    0  0.00000000000E+00  0.00000000000E+00  0.34725624906E+03  0.34725624906E+03  0.00000000000E+00 0. -1.
         -1   -1    0    0    0  501 -0.00000000000E+00 -0.00000000000E+00 -0.18942042527E+04  0.18942042527E+04  0.00000000000E+00 0.  1.
         25    2    1    2    0    0  0.10602273035E+03 -0.12621600296E+03  0.18962540107E+03  0.28063037137E+03  0.12499725538E+03 0.  0.
          4    1    3    3  502    0  0.60106629610E+02 -0.10029312415E+03  0.19525098885E+03  0.22758751991E+03  0.12700000000E+01 0. -1.
         -4    1    3    3    0  502  0.45916100736E+02 -0.25922878813E+02 -0.56255877795E+01  0.53042851456E+02  0.12700000000E+01 0. -1.
          2    1    1    2  503    0 -0.41664612194E+02 -0.47021362468E+02  0.98306703721E+02  0.11666686091E+03  0.00000000000E+00 0. -1.
         -2    1    1    2    0  501 -0.64358118151E+02  0.17323736543E+03 -0.18348801084E+04  0.18441632695E+04  0.00000000000E+00 0.  1.
<mgrwt>
<rscale>  0 0.10758535E+03</rscale>
<asrwt>0</asrwt>
<pdfrwt beam="1">  1        1 0.53424038E-01 0.62824744E+02</pdfrwt>
<pdfrwt beam="2">  1       -1 0.29141604E+00 0.18423644E+03</pdfrwt>
<totfact> 0.33987811E+00</totfact>
</mgrwt>
</event>
<event>
 7    1  0.5277388E-004  0.9256158E+02  0.7546771E-02  0.1377278E+00
         -1   -1    0    0    0  501 -0.00000000000E+00  0.00000000000E+00  0.56605261874E+03  0.56605261874E+03  0.00000000000E+00 0.  1.
          1   -1    0    0  503    0  0.00000000000E+00 -0.00000000000E+00 -0.72942792436E+03  0.72942792436E+03  0.00000000000E+00 0. -1.
         25    2    1    2    0    0 -0.82315621447E+02 -0.77246413498E+02 -0.16171135424E+03  0.23352607541E+03  0.12506396714E+03 0.  0.
          4    1    3    3  502    0  0.28370417910E+02  0.27618511450E+01 -0.47841868720E+02  0.55704270364E+02  0.12700000000E+01 0. -1.
         -4    1    3    3    0  502 -0.11068603936E+03 -0.80008264643E+02 -0.11386948552E+03  0.17782180505E+03  0.12700000000E+01 0. -1.
          2    1    1    2  503    0  0.85613328633E+02  0.31459883358E+02 -0.52688982679E+03  0.53472633736E+03  0.00000000000E+00 0. -1.
         -2    1    1    2    0  501 -0.32977071861E+01  0.45786530140E+02  0.52522587540E+03  0.52722813033E+03  0.00000000000E+00 0.  1.
<mgrwt>
<rscale>  0 0.65184750E+02</rscale>
<asrwt>0</asrwt>
<pdfrwt beam="2">  1        1 0.11221968E+00 0.92561581E+02</pdfrwt>
<pdfrwt beam="1">  1       -1 0.87085018E-01 0.45905133E+02</pdfrwt>
<totfact> 0.40893192E+01</totfact>
</mgrwt>
</event>
<event>
 7    1  0.5277388E-004  0.3422388E+02  0.7546771E-02  0.1601691E+00
          2   -1    0    0  503    0  0.00000000000E+00  0.00000000000E+00  0.31599524461E+03  0.31599524461E+03  0.00000000000E+00 0. -1.
          1   -1    0    0  502    0 -0.00000000000E+00 -0.00000000000E+00 -0.13317475728E+04  0.13317475728E+04  0.00000000000E+00 0. -1.
         25    2    1    2    0    0 -0.11718796007E+02  0.57060040409E+02 -0.10575555293E+04  0.10665093583E+04  0.12500134124E+03 0.  0.
          4    1    3    3  501    0 -0.20781793934E+02 -0.23042746638E+02 -0.66681111667E+03  0.66753391625E+03  0.12700000000E+01 0.  1.
         -4    1    3    3    0  501  0.90629979265E+01  0.80102787047E+02 -0.39074441263E+03  0.39897544201E+03  0.12700000000E+01 0.  1.
          2    1    1    2  502    0  0.11823471476E+02 -0.22856514110E+02 -0.26815844821E+03  0.26939036371E+03  0.00000000000E+00 0. -1.
          1    1    1    2  503    0 -0.10467546840E+00 -0.34203526299E+02  0.30996164929E+03  0.31184309548E+03  0.00000000000E+00 0. -1.
<mgrwt>
<rscale>  0 0.29676614E+02</rscale>
<asrwt>0</asrwt>
<pdfrwt beam="1">  1        2 0.48614653E-01 0.34223884E+02</pdfrwt>
<pdfrwt beam="2">  1        1 0.20488424E+00 0.25733533E+02</pdfrwt>
<totfact> 0.15966177E+02</totfact>
</mgrwt>
</event>
<event>
 7    1  0.5277388E-004  0.4816048E+02  0.7546771E-02  0.1546245E+00
         -1   -1    0    0    0  501 -0.00000000000E+00  0.00000000000E+00  0.17580091607E+03  0.17580091607E+03  0.00000000000E+00 0.  1.
          1   -1    0    0  503    0  0.00000000000E+00 -0.00000000000E+00 -0.22709003384E+03  0.22709003384E+03  0.00000000000E+00 0. -1.
         25    2    1    2    0    0  0.44269356807E+02 -0.70880680750E+00 -0.12134627770E+03  0.17975027043E+03  0.12499984899E+03 0.  0.
          4    1    3    3  502    0  0.19035974204E+02 -0.11915759644E+02 -0.14292548627E+03  0.14468469569E+03  0.12700000000E+01 0.  1.
         -4    1    3    3    0  502  0.25233382603E+02  0.11206952837E+02  0.21579208565E+02  0.35065574738E+02  0.12700000000E+01 0.  1.
          2    1    1    2  503    0 -0.27573678950E+01  0.25677236465E+02 -0.70175615102E+02  0.74776603996E+02  0.00000000000E+00 0. -1.
         -2    1    1    2    0  501 -0.41511988912E+02 -0.24968429658E+02  0.14023277503E+03  0.14836407549E+03  0.00000000000E+00 0.  1.
<mgrwt>
<rscale>  0 0.35266666E+02</rscale>
<asrwt>0</asrwt>
<pdfrwt beam="2">  1        1 0.34936928E-01 0.25824863E+02</pdfrwt>
<pdfrwt beam="1">  1       -1 0.27046295E-01 0.48160476E+02</pdfrwt>
<totfact> 0.14171802E+03</totfact>
</mgrwt>
</event>
<event>
 7    1  0.5277388E-004  0.8056664E+02  0.7546771E-02  0.1423828E+00
         -1   -1    0    0    0  502 -0.00000000000E+00  0.00000000000E+00  0.43433937966E+03  0.43433937966E+03  0.00000000000E+00 0.  1.
         -2   -1    0    0    0  501  0.00000000000E+00 -0.00000000000E+00 -0.13278620792E+04  0.13278620792E+04  0.00000000000E+00 0.  1.
         25    2    1    2    0    0  0.64939550426E+02  0.72112383938E+02  0.84481982209E+02  0.17938632762E+03  0.12499963237E+03 0.  0.
          4    1    3    3  503    0  0.48751728128E+02  0.10779677627E+03  0.70699348973E+02  0.13782919435E+03  0.12700000000E+01 0. -1.
         -4    1    3    3    0  503  0.16187822298E+02 -0.35684392331E+02  0.13782633236E+02  0.41557133271E+02  0.12700000000E+01 0. -1.
         -2    1    1    2    0  502 -0.36355206810E+02  0.31106086392E+01  0.30003449728E+03  0.30224506035E+03  0.00000000000E+00 0.  1.
         -1    1    1    2    0  501 -0.28584343617E+02 -0.75222992577E+02 -0.12780391791E+04  0.12805700709E+04  0.00000000000E+00 0.  1.
<mgrwt>
<rscale>  0 0.54219171E+02</rscale>
<asrwt>0</asrwt>
<pdfrwt beam="2">  1       -2 0.20428647E+00 0.80566636E+02</pdfrwt>
<pdfrwt beam="1">  1       -1 0.66821444E-01 0.36488038E+02</pdfrwt>
<totfact> 0.27100263E+00</totfact>
</mgrwt>
</event>
<event>
 7    1  0.5277388E-004  0.2538541E+02  0.7546771E-02  0.1682432E+00
          1   -1    0    0  502    0 -0.00000000000E+00  0.00000000000E+00  0.37157017373E+03  0.37157017373E+03  0.00000000000E+00 0. -1.
          2   -1    0    0  503    0  0.00000000000E+00 -0.00000000000E+00 -0.34944167479E+02  0.34944167479E+02  0.00000000000E+00 0. -1.
         25    2    1    2    0    0 -0.62284900082E+01  0.52463928422E+01  0.23735581259E+03  0.26838619623E+03  0.12500819905E+03 0.  0.
          4    1    3    3  501    0 -0.16880759605E+02 -0.51189794659E+02  0.54271132641E+02  0.76500482745E+02  0.12700000000E+01 0. -1.
         -4    1    3    3    0  501  0.10652269597E+02  0.56436187502E+02  0.18308467995E+03  0.19188571348E+03  0.12700000000E+01 0. -1.
          2    1    1    2  502    0  0.46067013811E+01 -0.27070812105E+02  0.11026786294E+03  0.11363561134E+03  0.00000000000E+00 0. -1.
          1    1    1    2  503    0  0.16217886271E+01  0.21824419263E+02 -0.10997669284E+02  0.24492533642E+02  0.00000000000E+00 0. -1.
<mgrwt>
<rscale>  0 0.23570093E+02</rscale>
<asrwt>0</asrwt>
<pdfrwt beam="2">  1        2 0.53760260E-02 0.21884594E+02</pdfrwt>
<pdfrwt beam="1">  1        1 0.57164639E-01 0.25385405E+02</pdfrwt>
<totfact> 0.10273420E+04</totfact>
</mgrwt>
</event>
<event>
 7    1  0.5277388E-004  0.4889295E+02  0.7546771E-02  0.1500515E+00
          1   -1    0    0  502    0 -0.00000000000E+00  0.00000000000E+00  0.32155976653E+03  0.32155976653E+03  0.00000000000E+00 0. -1.
          2   -1    0    0  503    0  0.00000000000E+00 -0.00000000000E+00 -0.91919744879E+03  0.91919744879E+03  0.00000000000E+00 0. -1.
         25    2    1    2    0    0 -0.58712966959E+02  0.19486807668E+02 -0.32694323122E+02  0.14325280933E+03  0.12500200181E+03 0.  0.
          4    1    3    3  501    0  0.78594620325E+01  0.60626221625E+02 -0.16370387225E+02  0.63300176697E+02  0.12700000000E+01 0. -1.
         -4    1    3    3    0  501 -0.66572428991E+02 -0.41139413957E+02 -0.16323935897E+02  0.79952632638E+02  0.12700000000E+01 0. -1.
          2    1    1    2  502    0  0.28727724832E+02  0.19087759562E+02  0.26444168974E+03  0.26668151794E+03  0.00000000000E+00 0. -1.
          1    1    1    2  503    0  0.29985242127E+02 -0.38574567230E+02 -0.82938504888E+03  0.83082288804E+03  0.00000000000E+00 0. -1.
<mgrwt>
<rscale>  0 0.41065357E+02</rscale>
<asrwt>0</asrwt>
<pdfrwt beam="2">  1        2 0.14141499E+00 0.48892948E+02</pdfrwt>
<pdfrwt beam="1">  1        1 0.49470733E-01 0.34490937E+02</pdfrwt>
<totfact> 0.35113434E+02</totfact>
</mgrwt>
</event>
<event>
 7    1  0.5277388E-004  0.7457717E+02  0.7546771E-02  0.1386565E+00
          1   -1    0    0  502    0 -0.00000000000E+00  0.00000000000E+00  0.10929787135E+04  0.10929787135E+04  0.00000000000E+00 0. -1.
          2   -1    0    0  503    0  0.00000000000E+00 -0.00000000000E+00 -0.27946230419E+03  0.27946230419E+03  0.00000000000E+00 0. -1.
         25    2    1    2    0    0 -0.10478608099E+03  0.53697611222E+02  0.16796491206E+03  0.24021162228E+03  0.12500342224E+03 0.  0.
          4    1    3    3  501    0  0.14611262373E+02  0.41320584489E+00  0.82977637331E+02  0.84264826139E+02  0.12700000000E+01 0. -1.
         -4    1    3    3    0  501 -0.11939734337E+03  0.53284405377E+02  0.84987274731E+02  0.15594679614E+03  0.12700000000E+01 0. -1.
          2    1    1    2  502    0  0.32193058049E+02 -0.41889264415E+02  0.88252514323E+03  0.88410504574E+03  0.00000000000E+00 0. -1.
          1    1    1    2  503    0  0.72593022944E+02 -0.11808346807E+02 -0.23697364596E+03  0.24812434970E+03  0.00000000000E+00 0. -1.
<mgrwt>
<rscale>  0 0.62769250E+02</rscale>
<asrwt>0</asrwt>
<pdfrwt beam="2">  1        2 0.42994201E-01 0.74577173E+02</pdfrwt>
<pdfrwt beam="1">  1        1 0.16815057E+00 0.52830895E+02</pdfrwt>
<totfact> 0.24456700E+02</totfact>
</mgrwt>
</event>
<event>
 7    1  0.5277388E-004  0.6384425E+02  0.7546771E-02  0.1406575E+00
          1   -1    0    0  502    0 -0.00000000000E+00  0.00000000000E+00  0.41226633496E+03  0.41226633496E+03  0.00000000000E+00 0. -1.
          2   -1    0    0  503    0  0.00000000000E+00 -0.00000000000E+00 -0.53642919315E+03  0.53642919315E+03  0.00000000000E+00 0. -1.
         25    2    1    2    0    0 -0.13873684147E+02 -0.50171611555E+02  0.22501212170E+03  0.26261293131E+03  0.12500170823E+03 0.  0.
          4    1    3    3  501    0  0.31795442626E+02 -0.37230383233E+02  0.20553446238E+03  0.21128909043E+03  0.12700000000E+01 0. -1.
         -4    1    3    3    0  501 -0.45669126772E+02 -0.12941228321E+02  0.19477659324E+02  0.51323840886E+02  0.12700000000E+01 0. -1.
          2    1    1    2  502    0  0.52619497553E+02 -0.90294503326E+00  0.16229300941E+03  0.17061256617E+03  0.00000000000E+00 0. -1.
          1    1    1    2  503    0 -0.38745813406E+02  0.51074556588E+02 -0.51146798930E+03  0.51547003062E+03  0.00000000000E+00 0. -1.
<mgrwt>
<rscale>  0 0.57965048E+02</rscale>
<asrwt>0</asrwt>
<pdfrwt beam="2">  1        2 0.82527569E-01 0.63844248E+02</pdfrwt>
<pdfrwt beam="1">  1        1 0.63425590E-01 0.52627244E+02</pdfrwt>
<totfact> 0.47949387E+02</totfact>
</mgrwt>
</event>
<event>
 7    1  0.5277388E-004  0.1168022E+03  0.7546771E-02  0.1315334E+00
          2   -1    0    0  503    0  0.00000000000E+00  0.00000000000E+00  0.91315359205E+03  0.91315359205E+03  0.00000000000E+00 0. -1.
          1   -1    0    0  502    0 -0.00000000000E+00 -0.00000000000E+00 -0.12567390411E+03  0.12567390411E+03  0.00000000000E+00 0. -1.
         25    2    1    2    0    0  0.64877831549E+02 -0.68286151742E+02  0.23550361462E+03  0.28277309192E+03  0.12500614974E+03 0.  0.
          4    1    3    3  501    0 -0.12963366259E+02 -0.70182200868E+02  0.15563211598E+03  0.17122078907E+03  0.12700000000E+01 0. -1.
         -4    1    3    3    0  501  0.77841197808E+02  0.18960491258E+01  0.79871498631E+02  0.11155230285E+03  0.12700000000E+01 0. -1.
          2    1    1    2  502    0 -0.11668297606E+03  0.34385421353E+02 -0.63672523361E+02  0.13730063487E+03  0.00000000000E+00 0. -1.
          1    1    1    2  503    0  0.51805144510E+02  0.33900730388E+02  0.61564859668E+03  0.61875376937E+03  0.00000000000E+00 0. -1.
<mgrwt>
<rscale>  0 0.85037617E+02</rscale>
<asrwt>0</asrwt>
<pdfrwt beam="1">  1        2 0.14048516E+00 0.61911489E+02</pdfrwt>
<pdfrwt beam="2">  1        1 0.19334447E-01 0.11680217E+03</pdfrwt>
<totfact> 0.11239589E+03</totfact>
</mgrwt>
</event>
<event>
 7    1  0.5277388E-004  0.9625941E+02  0.7546771E-02  0.1370941E+00
          1   -1    0    0  502    0 -0.00000000000E+00  0.00000000000E+00  0.42731279794E+03  0.42731279794E+03  0.00000000000E+00 0. -1.
          2   -1    0    0  503    0  0.00000000000E+00 -0.00000000000E+00 -0.98114102467E+03  0.98114102467E+03  0.00000000000E+00 0. -1.
         25    2    1    2    0    0 -0.22186729293E+02  0.80129948787E+02 -0.38048402856E+03  0.40902963222E+03  0.12499633752E+03 0.  0.
          4    1    3    3  501    0  0.48679890791E+02  0.18303408331E+02 -0.93134872804E+02  0.10667925739E+03  0.12700000000E+01 0. -1.
         -4    1    3    3    0  501 -0.70866620084E+02  0.61826540456E+02 -0.28734915576E+03  0.30235037483E+03  0.12700000000E+01 0. -1.
          2    1    1    2  502    0 -0.46349500457E+02 -0.37869288036E+01  0.40721902530E+03  0.40986577265E+03  0.00000000000E+00 0. -1.
          1    1    1    2  503    0  0.68536229750E+02 -0.76343019983E+02 -0.58056322347E+03  0.58955841774E+03  0.00000000000E+00 0. -1.
<mgrwt>
<rscale>  0 0.66906220E+02</rscale>
<asrwt>0</asrwt>
<pdfrwt beam="2">  1        2 0.15094477E+00 0.96259408E+02</pdfrwt>
<pdfrwt beam="1">  1        1 0.65740431E-01 0.46503946E+02</pdfrwt>
<totfact> 0.22194669E+02</totfact>
</mgrwt>
</event>
<event>
 7    1  0.5277388E-004  0.6504852E+02  0.7546771E-02  0.1497137E+00
          2   -1    0    0  503    0  0.00000000000E+00  0.00000000000E+00  0.33020675939E+04  0.33020675939E+04  0.00000000000E+00 0. -1.
          1   -1    0    0  502    0 -0.00000000000E+00 -0.00000000000E+00 -0.24166582372E+03  0.24166582372E+03  0.00000000000E+00 0. -1.
         25    2    1    2    0    0  0.98256122715E+01  0.54710771778E+02  0.15644455434E+03  0.20782330645E+03  0.12500326762E+03 0.  0.
          4    1    3    3  501    0 -0.34695748428E+02  0.20797491432E+02 -0.12460563699E+01  0.40490692329E+02  0.12700000000E+01 0. -1.
         -4    1    3    3    0  501  0.44521360700E+02  0.33913280346E+02  0.15769061071E+03  0.16733261412E+03  0.12700000000E+01 0. -1.
          2    1    1    2  502    0  0.26528817169E+02 -0.54392140707E+00 -0.21481907171E+03  0.21645162868E+03  0.00000000000E+00 0. -1.
          1    1    1    2  503    0 -0.36354429441E+02 -0.54166850371E+02  0.31187762875E+04  0.31194584824E+04  0.00000000000E+00 0. -1.
<mgrwt>
<rscale>  0 0.41545432E+02</rscale>
<asrwt>0</asrwt>
<pdfrwt beam="1">  1        2 0.50801037E+00 0.65048518E+02</pdfrwt>
<pdfrwt beam="2">  1        1 0.37179360E-01 0.26534393E+02</pdfrwt>
<totfact> 0.26726758E+01</totfact>
</mgrwt>
</event>
<event>
 7    1  0.5277388E-004  0.7293297E+02  0.7546771E-02  0.1374114E+00
          2   -1    0    0  503    0  0.00000000000E+00  0.00000000000E+00  0.24500543411E+04  0.24500543411E+04  0.00000000000E+00 0. -1.
         -2   -1    0    0    0  501 -0.00000000000E+00 -0.00000000000E+00 -0.15035546200E+02  0.15035546200E+02  0.00000000000E+00 0.  1.
         25    2    1    2    0    0 -0.64012969945E+02  0.79549166228E+02  0.18273417455E+04  0.18344557690E+04  0.12499753248E+03 0.  0.
          4    1    3    3  502    0 -0.14271807422E+02  0.98148397954E+02  0.14506466095E+04  0.14540336967E+04  0.12700000000E+01 0. -1.
         -4    1    3    3    0  502 -0.49741162523E+02 -0.18599231726E+02  0.37669513600E+03  0.38042207226E+03  0.12700000000E+01 0. -1.
          1    1    1    2  503    0 -0.51917517353E+01 -0.59566752600E+02  0.48266551775E+03  0.48635496741E+03  0.00000000000E+00 0. -1.
         -1    1    1    2    0  501  0.69204721680E+02 -0.19982413628E+02  0.12501153164E+03  0.14427915096E+03  0.00000000000E+00 0.  1.
<mgrwt>
<rscale>  0 0.66036734E+02</rscale>
<asrwt>0</asrwt>
<pdfrwt beam="1">  1        2 0.37693112E+00 0.59792577E+02</pdfrwt>
<pdfrwt beam="2">  1       -2 0.23131629E-02 0.72932970E+02</pdfrwt>
<totfact> 0.27776119E+03</totfact>
</mgrwt>
</event>
<event>
 7    1  0.5277388E-004  0.1237511E+03  0.7546771E-02  0.1339038E+00
          1   -1    0    0  502    0 -0.00000000000E+00  0.00000000000E+00  0.11749274897E+04  0.11749274897E+04  0.00000000000E+00 0. -1.
          2   -1    0    0  503    0  0.00000000000E+00 -0.00000000000E+00 -0.11347353684E+03  0.11347353684E+03  0.00000000000E+00 0. -1.
         25    2    1    2    0    0 -0.10660157644E+03  0.14557781788E+02  0.83925029625E+03  0.85530278924E+03  0.12500390560E+03 0.  0.
          4    1    3    3  501    0 -0.89450468079E+02 -0.10966386149E+02  0.80170264644E+03  0.80675299446E+03  0.12700000000E+01 0. -1.
         -4    1    3    3    0  501 -0.17151108357E+02  0.25524167937E+02  0.37547649814E+02  0.48549794781E+02  0.12700000000E+01 0. -1.
          2    1    1    2  502    0 -0.17585862049E+01  0.47360661889E+02  0.28809616536E+03  0.29196836373E+03  0.00000000000E+00 0. -1.
          1    1    1    2  503    0  0.10836016264E+03 -0.61918443677E+02 -0.65892508724E+02  0.14112987360E+03  0.00000000000E+00 0. -1.
<mgrwt>
<rscale>  0 0.76583122E+02</rscale>
<asrwt>0</asrwt>
<pdfrwt beam="2">  1        2 0.17457468E-01 0.12375113E+03</pdfrwt>
<pdfrwt beam="1">  1        1 0.18075807E+00 0.47393300E+02</pdfrwt>
<totfact> 0.58545570E+02</totfact>
</mgrwt>
</event>
<event>
 7    1  0.5277388E-004  0.7983312E+02  0.7546771E-02  0.1340229E+00
          1   -1    0    0  502    0 -0.00000000000E+00  0.00000000000E+00  0.13578560740E+04  0.13578560740E+04  0.00000000000E+00 0. -1.
          2   -1    0    0  503    0  0.00000000000E+00 -0.00000000000E+00 -0.23194006820E+03  0.23194006820E+03  0.00000000000E+00 0. -1.
         25    2    1    2    0    0 -0.20967154878E+02 -0.28330459107E+02  0.38449196325E+03  0.40582983979E+03  0.12498620948E+03 0.  0.
          4    1    3    3  501    0 -0.73049550553E+02 -0.26229758372E+02  0.22237556046E+03  0.23553500770E+03  0.12700000000E+01 0. -1.
         -4    1    3    3    0  501  0.52082395676E+02 -0.21007007352E+01  0.16211640279E+03  0.17029483209E+03  0.12700000000E+01 0. -1.
          2    1    1    2  502    0  0.90810471991E+02  0.81129443977E+01  0.95449046589E+03  0.95883492384E+03  0.00000000000E+00 0. -1.
          1    1    1    2  503    0 -0.69843317113E+02  0.20217514709E+02 -0.21306642337E+03  0.22513137856E+03  0.00000000000E+00 0. -1.
<mgrwt>
<rscale>  0 0.76188695E+02</rscale>
<asrwt>0</asrwt>
<pdfrwt beam="2">  1        2 0.35683088E-01 0.72710638E+02</pdfrwt>
<pdfrwt beam="1">  1        1 0.20890093E+00 0.79833122E+02</pdfrwt>
<totfact> 0.19185736E+02</totfact>
</mgrwt>
</event>
<event>
 7    1  0.5277388E-004  0.7627412E+02  0.7546771E-02  0.1438091E+00
         -2   -1    0    0    0  501 -0.00000000000E+00  0.00000000000E+00  0.70592678325E+02  0.70592678325E+02  0.00000000000E+00 0.  1.
          2   -1    0    0  503    0  0.00000000000E+00 -0.00000000000E+00 -0.14471264723E+04  0.14471264723E+04  0.00000000000E+00 0. -1.
         25    2    1    2    0    0 -0.51930284288E+02  0.23887961695E+02 -0.72158864974E+02  0.15523863858E+03  0.12499897589E+03 0.  0.
          4    1    3    3  502    0  0.10816766049E+02  0.62661204904E+02 -0.36001052993E+02  0.73082951119E+02  0.12700000000E+01 0. -1.
         -4    1    3    3    0  502 -0.62747050336E+02 -0.38773243209E+02 -0.36157811982E+02  0.82155687461E+02  0.12700000000E+01 0. -1.
          1    1    1    2  503    0  0.50033938616E+02 -0.58432873493E+02 -0.13215970634E+04  0.13238340507E+04  0.00000000000E+00 0. -1.
         -1    1    1    2    0  501  0.18963456721E+01  0.34544911798E+02  0.17222134450E+02  0.38646461326E+02  0.00000000000E+00 0.  1.
<mgrwt>
<rscale>  0 0.51369737E+02</rscale>
<asrwt>0</asrwt>
<pdfrwt beam="2">  1        2 0.22263485E+00 0.76274123E+02</pdfrwt>
<pdfrwt beam="1">  1       -2 0.10860412E-01 0.34596923E+02</pdfrwt>
<totfact> 0.81686840E+02</totfact>
</mgrwt>
</event>
<event>
 7    1  0.5277388E-004  0.8186904E+02  0.7546771E-02  0.1333479E+00
          1   -1    0    0  502    0 -0.00000000000E+00  0.00000000000E+00  0.75875669785E+03  0.75875669785E+03  0.00000000000E+00 0. -1.
          2   -1    0    0  503    0  0.00000000000E+00 -0.00000000000E+00 -0.25193504472E+04  0.25193504472E+04  0.00000000000E+00 0. -1.
         25    2    1    2    0    0 -0.19114896797E+02 -0.43784202304E+01 -0.55684802566E+03  0.57104188202E+03  0.12499822996E+03 0.  0.
          4    1    3    3  501    0 -0.13068337767E+02  0.59305316391E+02 -0.22337976031E+03  0.23149089014E+03  0.12700000000E+01 0.  1.
         -4    1    3    3    0  501 -0.60465590295E+01 -0.63683736621E+02 -0.33346826535E+03  0.33955099188E+03  0.12700000000E+01 0.  1.
          2    1    1    2  502    0  0.53092419844E+02 -0.62700502663E+02  0.74868881515E+03  0.75318331102E+03  0.00000000000E+00 0. -1.
          1    1    1    2  503    0 -0.33977523047E+02  0.67078922893E+02 -0.19524345388E+04  0.19538819520E+04  0.00000000000E+00 0. -1.
<mgrwt>
<rscale>  0 0.78460279E+02</rscale>
<asrwt>0</asrwt>
<pdfrwt beam="2">  1        2 0.38759237E+00 0.75193444E+02</pdfrwt>
<pdfrwt beam="1">  1        1 0.11673180E+00 0.81869045E+02</pdfrwt>
<totfact> 0.16826761E+01</totfact>
</mgrwt>
</event>
<event>
 7    1  0.5277388E-004  0.9709392E+02  0.7546771E-02  0.1317748E+00
          1   -1    0    0  502    0 -0.00000000000E+00  0.00000000000E+00  0.16400625066E+04  0.16400625066E+04  0.00000000000E+00 0. -1.
          2   -1    0    0  503    0  0.00000000000E+00 -0.00000000000E+00 -0.13681401746E+04  0.13681401746E+04  0.00000000000E+00 0. -1.
         25    2    1    2    0    0 -0.25429631295E+02 -0.18358321842E+02 -0.12781592471E+03  0.18150142603E+03  0.12498865113E+03 0.  0.
          4    1    3    3  501    0  0.38742129392E+02 -0.41662141441E+02 -0.79856818235E+02  0.98058201788E+02  0.12700000000E+01 0. -1.
         -4    1    3    3    0  501 -0.64171760687E+02  0.23303819598E+02 -0.47959106472E+02  0.83443224238E+02  0.12700000000E+01 0. -1.
          2    1    1    2  502    0 -0.37777507920E+02 -0.62325450252E+02  0.16102298113E+04  0.16118782979E+04  0.00000000000E+00 0. -1.
          1    1    1    2  503    0  0.63207139215E+02  0.80683772094E+02 -0.12104915547E+04  0.12148229573E+04  0.00000000000E+00 0. -1.
<mgrwt>
<rscale>  0 0.84120606E+02</rscale>
<asrwt>0</asrwt>
<pdfrwt beam="2">  1        2 0.21048310E+00 0.97093918E+02</pdfrwt>
<pdfrwt beam="1">  1        1 0.25231731E+00 0.72880737E+02</pdfrwt>
<totfact> 0.15757963E+01</totfact>
</mgrwt>
</event>
<event>
 7    1  0.5277388E-004  0.4648102E+02  0.7546771E-02  0.1501915E+00
          2   -1    0    0  503    0  0.00000000000E+00  0.00000000000E+00  0.30986480190E+04  0.30986480190E+04  0.00000000000E+00 0. -1.
         -2   -1    0    0    0  501 -0.00000000000E+00 -0.00000000000E+00 -0.55010533367E+02  0.55010533367E+02  0.00000000000E+00 0.  1.
         25    2    1    2    0    0  0.40994980657E+00  0.26383641454E+02  0.13024818293E+04  0.13087321830E+04  0.12499898550E+03 0.  0.
          4    1    3    3  502    0  0.42302874359E+02  0.59145361097E+02  0.64035149442E+03  0.64446827402E+03  0.12700000000E+01 0.  1.
         -4    1    3    3    0  502 -0.41892924552E+02 -0.32761719643E+02  0.66213033493E+03  0.66426390895E+03  0.12700000000E+01 0.  1.
          1    1    1    2  503    0 -0.35681419313E+02  0.42529150963E+01  0.17823062568E+04  0.17826684616E+04  0.00000000000E+00 0. -1.
         -1    1    1    2    0  501  0.35271469507E+02 -0.30636556551E+02 -0.41150600519E+02  0.62257907783E+02  0.00000000000E+00 0.  1.
<mgrwt>
<rscale>  0 0.40868670E+02</rscale>
<asrwt>0</asrwt>
<pdfrwt beam="1">  1        2 0.47671494E+00 0.35933981E+02</pdfrwt>
<pdfrwt beam="2">  1       -2 0.84631614E-02 0.46481023E+02</pdfrwt>
<totfact> 0.19494344E+02</totfact>
</mgrwt>
</event>
<event>
 7    1  0.5277388E-004  0.4518566E+02  0.7546771E-02  0.1591997E+00
          2   -1    0    0  503    0  0.00000000000E+00  0.00000000000E+00  0.43708739136E+03  0.43708739136E+03  0.00000000000E+00 0. -1.
          1   -1    0    0  502    0 -0.00000000000E+00 -0.00000000000E+00 -0.14763363985E+04  0.14763363985E+04  0.00000000000E+00 0. -1.
         25    2    1    2    0    0 -0.75288205513E+00 -0.56859667735E+02 -0.19204152996E+01  0.13734369606E+03  0.12500405676E+03 0.  0.
          4    1    3    3  501    0 -0.33807219685E+01 -0.73279544375E+02  0.46005292700E+02  0.86599196077E+02  0.12700000000E+01 0. -1.
         -4    1    3    3    0  501  0.26278399134E+01  0.16419876640E+02 -0.47925707999E+02  0.50744499985E+02  0.12700000000E+01 0. -1.
          2    1    1    2  502    0  0.15042488490E+02  0.14171013682E+02 -0.14052565029E+04  0.14054084577E+04  0.00000000000E+00 0. -1.
          1    1    1    2  503    0 -0.14289606435E+02  0.42688654054E+02  0.36792791107E+03  0.37067163606E+03  0.00000000000E+00 0. -1.
<mgrwt>
<rscale>  0 0.30558440E+02</rscale>
<asrwt>0</asrwt>
<pdfrwt beam="1">  1        2 0.67244215E-01 0.45185655E+02</pdfrwt>
<pdfrwt beam="2">  1        1 0.22712867E+00 0.20666255E+02</pdfrwt>
<totfact> 0.96287236E+01</totfact>
</mgrwt>
</event>
<event>
 7    1  0.5277388E-004  0.1452937E+03  0.7546771E-02  0.1267650E+00
          1   -1    0    0  502    0 -0.00000000000E+00  0.00000000000E+00  0.24647373780E+03  0.24647373780E+03  0.00000000000E+00 0. -1.
          2   -1    0    0  503    0  0.00000000000E+00 -0.00000000000E+00 -0.25945943051E+03  0.25945943051E+03  0.00000000000E+00 0. -1.
         25    2    1    2    0    0 -0.82137716830E+02  0.37902362395E+02  0.51534895544E+02  0.16270267421E+03  0.12503248033E+03 0.  0.
          4    1    3    3  501    0 -0.79643710962E+02  0.76991148578E+02  0.54385061417E+02  0.12341031343E+03  0.12700000000E+01 0.  1.
         -4    1    3    3    0  501 -0.24940058673E+01 -0.39088786184E+02 -0.28501658730E+01  0.39292360785E+02  0.12700000000E+01 0.  1.
          2    1    1    2  502    0 -0.77709550363E+02 -0.11612203269E+01  0.89291363975E+02  0.11837681501E+03  0.00000000000E+00 0. -1.
          1    1    1    2  503    0  0.15984726719E+03 -0.36741142068E+02 -0.15381195223E+03  0.22485367908E+03  0.00000000000E+00 0. -1.
<mgrwt>
<rscale>  0 0.10626368E+03</rscale>
<asrwt>0</asrwt>
<pdfrwt beam="2">  1        2 0.39916835E-01 0.14529373E+03</pdfrwt>
<pdfrwt beam="1">  1        1 0.37919037E-01 0.77718226E+02</pdfrwt>
<totfact> 0.19235113E+03</totfact>
</mgrwt>
</event>
<event>
 7    1  0.5277388E-004  0.1383483E+03  0.7546771E-02  0.1286072E+00
          1   -1    0    0  502    0 -0.00000000000E+00  0.00000000000E+00  0.50169546917E+03  0.50169546917E+03  0.00000000000E+00 0. -1.
          2   -1    0    0  503    0  0.00000000000E+00 -0.00000000000E+00 -0.17168319699E+03  0.17168319699E+03  0.00000000000E+00 0. -1.
         25    2    1    2    0    0  0.13897116134E+03 -0.58053792361E+02  0.51261161582E+02  0.20232857419E+03  0.12500367497E+03 0.  0.
          4    1    3    3  501    0  0.18459587794E+02 -0.70875374866E+02  0.82027712388E+01  0.73708707083E+02  0.12700000000E+01 0.  1.
         -4    1    3    3    0  501  0.12051157354E+03  0.12821582505E+02  0.43058390343E+02  0.12861986711E+03  0.12700000000E+01 0.  1.
          2    1    1    2  502    0 -0.13823847288E+03 -0.10377441543E+02  0.34744828462E+03  0.37408271433E+03  0.00000000000E+00 0. -1.
          1    1    1    2  503    0 -0.73268845527E+00  0.68431233904E+02 -0.68697174023E+02  0.96967377631E+02  0.00000000000E+00 0. -1.
<mgrwt>
<rscale>  0 0.97303086E+02</rscale>
<asrwt>0</asrwt>
<pdfrwt beam="2">  1        2 0.26412800E-01 0.68435156E+02</pdfrwt>
<pdfrwt beam="1">  1        1 0.77183918E-01 0.13834834E+03</pdfrwt>
<totfact> 0.12119743E+03</totfact>
</mgrwt>
</event>
<event>
 7    1  0.5277388E-004  0.8095889E+02  0.7546771E-02  0.1383202E+00
          2   -1    0    0  503    0  0.00000000000E+00  0.00000000000E+00  0.17444374172E+04  0.17444374172E+04  0.00000000000E+00 0. -1.
          1   -1    0    0  502    0 -0.00000000000E+00 -0.00000000000E+00 -0.59436414038E+03  0.59436414038E+03  0.00000000000E+00 0. -1.
         25    2    1    2    0    0 -0.32287502664E+02  0.36258120256E+02  0.54069959785E+03  0.55707988478E+03  0.12499923517E+03 0.  0.
          4    1    3    3  501    0  0.33761742832E+02  0.50014020488E+02  0.34066734579E+03  0.34597270255E+03  0.12700000000E+01 0.  1.
         -4    1    3    3    0  501 -0.66049245496E+02 -0.13755900233E+02  0.20003225206E+03  0.21110718223E+03  0.12700000000E+01 0.  1.
          2    1    1    2  502    0 -0.49870054312E+02 -0.37323094261E+01 -0.58347022932E+03  0.58560947819E+03  0.00000000000E+00 0. -1.
          1    1    1    2  503    0  0.82157556976E+02 -0.32525810830E+02  0.11928439083E+04  0.11961121946E+04  0.00000000000E+00 0. -1.
<mgrwt>
<rscale>  0 0.63629516E+02</rscale>
<asrwt>0</asrwt>
<pdfrwt beam="1">  1        2 0.26837498E+00 0.80958886E+02</pdfrwt>
<pdfrwt beam="2">  1        1 0.91440638E-01 0.50009524E+02</pdfrwt>
<totfact> 0.58507183E+01</totfact>
</mgrwt>
</event>
<event>
 7    1  0.5277388E-004  0.1187840E+03  0.7546771E-02  0.1359708E+00
         -2   -1    0    0    0  501 -0.00000000000E+00  0.00000000000E+00  0.39244452826E+03  0.39244452826E+03  0.00000000000E+00 0.  1.
          2   -1    0    0  503    0  0.00000000000E+00 -0.00000000000E+00 -0.15704010398E+04  0.15704010398E+04  0.00000000000E+00 0. -1.
         25    2    1    2    0    0 -0.54263000399E+02 -0.11733750332E+03 -0.44517292147E+02  0.18525298241E+03  0.12499726114E+03 0.  0.
          4    1    3    3  502    0  0.30631728487E+02 -0.54474139934E+02 -0.49135354552E+02  0.79508683039E+02  0.12700000000E+01 0.  1.
         -4    1    3    3    0  502 -0.84894728886E+02 -0.62863363386E+02  0.46180624050E+01  0.10574429937E+03  0.12700000000E+01 0.  1.
          1    1    1    2  503    0  0.41383634255E+02 -0.32887240932E+00 -0.14443337790E+04  0.14449265651E+04  0.00000000000E+00 0. -1.
         -1    1    1    2    0  501  0.12879366143E+02  0.11766637573E+03  0.31089455960E+03  0.33266602056E+03  0.00000000000E+00 0.  1.
<mgrwt>
<rscale>  0 0.70113271E+02</rscale>
<asrwt>0</asrwt>
<pdfrwt beam="2">  1        2 0.24160016E+00 0.41384941E+02</pdfrwt>
<pdfrwt beam="1">  1       -2 0.60376081E-01 0.11878405E+03</pdfrwt>
<totfact> 0.39256195E+01</totfact>
</mgrwt>
</event>
<event>
 7    1  0.5277388E-004  0.1380892E+03  0.7546771E-02  0.1241121E+00
          1   -1    0    0  502    0 -0.00000000000E+00  0.00000000000E+00  0.79994454191E+03  0.79994454191E+03  0.00000000000E+00 0. -1.
          2   -1    0    0  503    0  0.00000000000E+00 -0.00000000000E+00 -0.74927530696E+03  0.74927530696E+03  0.00000000000E+00 0. -1.
         25    2    1    2    0    0  0.15619959519E+03  0.18135478807E+03  0.11623987735E+03  0.29397957501E+03  0.12499763495E+03 0.  0.
          4    1    3    3  501    0  0.14013931012E+03  0.13194541227E+03  0.32185571628E+02  0.19515671134E+03  0.12700000000E+01 0. -1.
         -4    1    3    3    0  501  0.16060285064E+02  0.49409375800E+02  0.84054305718E+02  0.98822863665E+02  0.12700000000E+01 0. -1.
          2    1    1    2  502    0 -0.57866142981E+02 -0.89273128856E+02  0.58310131403E+03  0.59272702356E+03  0.00000000000E+00 0. -1.
          1    1    1    2  503    0 -0.98333452206E+02 -0.92081659218E+02 -0.64867195642E+03  0.66251325030E+03  0.00000000000E+00 0. -1.
<mgrwt>
<rscale>  0 0.12120599E+03</rscale>
<asrwt>0</asrwt>
<pdfrwt beam="2">  1        2 0.11527312E+00 0.13808924E+03</pdfrwt>
<pdfrwt beam="1">  1        1 0.12306839E+00 0.10638694E+03</pdfrwt>
<totfact> 0.13048251E+02</totfact>
</mgrwt>
</event>
<event>
 7    1  0.5277388E-004  0.1114851E+03  0.7546771E-02  0.1460600E+00
         -1   -1    0    0    0  502 -0.00000000000E+00  0.00000000000E+00  0.86162241507E+02  0.86162241507E+02  0.00000000000E+00 0.  1.
         -2   -1    0    0    0  501  0.00000000000E+00 -0.00000000000E+00 -0.21736291063E+04  0.21736291063E+04  0.00000000000E+00 0.  1.
         25    2    1    2    0    0 -0.70973011106E+02 -0.85937720565E+02 -0.45548502516E+03  0.48529780057E+03  0.12499954786E+03 0.  0.
          4    1    3    3  503    0 -0.87974650490E+02 -0.10103748641E+03 -0.43315918869E+03  0.45340556727E+03  0.12700000000E+01 0. -1.
         -4    1    3    3    0  503  0.17001639384E+02  0.15099765840E+02 -0.22325836472E+02  0.31892233292E+02  0.12700000000E+01 0. -1.
         -2    1    1    2    0  502  0.16413407152E+02 -0.11514710851E+02  0.67975814744E+02  0.70871008815E+02  0.00000000000E+00 0.  1.
         -1    1    1    2    0  501  0.54559603954E+02  0.97452431417E+02 -0.16999576544E+04  0.17036225385E+04  0.00000000000E+00 0.  1.
<mgrwt>
<rscale>  0 0.47278295E+02</rscale>
<asrwt>0</asrwt>
<pdfrwt beam="2">  1       -2 0.33440445E+00 0.11148509E+03</pdfrwt>
<pdfrwt beam="1">  1       -1 0.13255731E-01 0.20049651E+02</pdfrwt>
<totfact> 0.63198921E+00</totfact>
</mgrwt>
</event>
<event>
 7    1  0.5277388E-004  0.1280381E+03  0.7546771E-02  0.1244252E+00
          1   -1    0    0  503    0  0.00000000000E+00  0.00000000000E+00  0.17481682487E+04  0.17481682487E+04  0.00000000000E+00 0. -1.
         -1   -1    0    0    0  501 -0.00000000000E+00 -0.00000000000E+00 -0.50199679343E+03  0.50199679343E+03  0.00000000000E+00 0.  1.
         25    2    1    2    0    0  0.12601687653E+02  0.31675627619E+02  0.50712385488E+03  0.52341529916E+03  0.12500729296E+03 0.  0.
          4    1    3    3  502    0 -0.40632747867E+01 -0.38003163091E+02  0.64148617730E+02  0.74682050478E+02  0.12700000000E+01 0.  1.
         -4    1    3    3    0  502  0.16664962440E+02  0.69678790710E+02  0.44297523715E+03  0.44873324868E+03  0.12700000000E+01 0.  1.
          2    1    1    2  503    0 -0.74945092771E+02 -0.14351055799E+03  0.12191572781E+04  0.12298603644E+04  0.00000000000E+00 0. -1.
         -2    1    1    2    0  501  0.62343405118E+02  0.11183493037E+03 -0.48010967775E+03  0.49688937852E+03  0.00000000000E+00 0.  1.
<mgrwt>
<rscale>  0 0.11930251E+03</rscale>
<asrwt>0</asrwt>
<pdfrwt beam="1">  1        1 0.26894896E+00 0.11116293E+03</pdfrwt>
<pdfrwt beam="2">  1       -1 0.77230277E-01 0.12803809E+03</pdfrwt>
<totfact> 0.98468495E+00</totfact>
</mgrwt>
</event>
<event>
 7    1  0.5277388E-004  0.3855520E+02  0.7546771E-02  0.1616514E+00
          1   -1    0    0  502    0 -0.00000000000E+00  0.00000000000E+00  0.10536102853E+03  0.10536102853E+03  0.00000000000E+00 0. -1.
          2   -1    0    0  503    0  0.00000000000E+00 -0.00000000000E+00 -0.12845696512E+04  0.12845696512E+04  0.00000000000E+00 0. -1.
         25    2    1    2    0    0 -0.47287885842E+02  0.11594510730E+02 -0.26691181107E+03  0.29872596669E+03  0.12499884584E+03 0.  0.
          4    1    3    3  501    0 -0.82199177725E+02  0.37676048089E+02 -0.18589692067E+03  0.20672558485E+03  0.12700000000E+01 0. -1.
         -4    1    3    3    0  501  0.34911291883E+02 -0.26081537359E+02 -0.81014890394E+02  0.92000381834E+02  0.12700000000E+01 0. -1.
          2    1    1    2  502    0  0.37816901750E+02  0.70536359488E+01  0.85203402616E+02  0.93485248330E+02  0.00000000000E+00 0. -1.
          1    1    1    2  503    0  0.94709840921E+01 -0.18648146678E+02 -0.99750021419E+03  0.99771946469E+03  0.00000000000E+00 0. -1.
<mgrwt>
<rscale>  0 0.28397121E+02</rscale>
<asrwt>0</asrwt>
<pdfrwt beam="2">  1        2 0.19762610E+00 0.20915375E+02</pdfrwt>
<pdfrwt beam="1">  1        1 0.16209389E-01 0.38555201E+02</pdfrwt>
<totfact> 0.90091326E+02</totfact>
</mgrwt>
</event>
<event>
 7    1  0.5277388E-004  0.5338528E+02  0.7546771E-02  0.1436019E+00
         -2   -1    0    0    0  501 -0.00000000000E+00  0.00000000000E+00  0.40342123555E+02  0.40342123555E+02  0.00000000000E+00 0.  1.
          2   -1    0    0  503    0  0.00000000000E+00 -0.00000000000E+00 -0.52841435093E+03  0.52841435093E+03  0.00000000000E+00 0. -1.
         25    2    1    2    0    0 -0.43433814351E+02 -0.13369161984E+02 -0.27901546178E+03  0.30909569768E+03  0.12500116675E+03 0.  0.
          4    1    3    3  502    0 -0.55592822602E+02 -0.61128030557E+02 -0.15525103074E+03  0.17587408419E+03  0.12700000000E+01 0. -1.
         -4    1    3    3    0  502  0.12159008251E+02  0.47758868573E+02 -0.12376443104E+03  0.13322161349E+03  0.12700000000E+01 0. -1.
          1    1    1    2  503    0  0.35861066642E+02 -0.39547088588E+02 -0.19800419336E+03  0.20507473980E+03  0.00000000000E+00 0. -1.
         -1    1    1    2    0  501  0.75727477092E+01  0.52916250573E+02 -0.11052572228E+02  0.54586037000E+02  0.00000000000E+00 0.  1.
<mgrwt>
<rscale>  0 0.51770583E+02</rscale>
<asrwt>0</asrwt>
<pdfrwt beam="2">  1        2 0.81294508E-01 0.53385282E+02</pdfrwt>
<pdfrwt beam="1">  1       -2 0.62064811E-02 0.50204722E+02</pdfrwt>
<totfact> 0.72886710E+03</totfact>
</mgrwt>
</event>
<event>
 7    1  0.5277388E-004  0.3131740E+03  0.7546771E-02  0.1147217E+00
          2   -1    0    0  503    0  0.00000000000E+00  0.00000000000E+00  0.13565256602E+04  0.13565256602E+04  0.00000000000E+00 0. -1.
          1   -1    0    0  502    0 -0.00000000000E+00 -0.00000000000E+00 -0.14762468648E+04  0.14762468648E+04  0.00000000000E+00 0. -1.
         25    2    1    2    0    0  0.83736114743E+02 -0.29474051879E+03 -0.24915308172E+03  0.41422300979E+03  0.12497893176E+03 0.  0.
          4    1    3    3  501    0  0.97310200815E+02 -0.30054125454E+03 -0.24078621401E+03  0.39720767191E+03  0.12700000000E+01 0.  1.
         -4    1    3    3    0  501 -0.13574086072E+02  0.58007357568E+01 -0.83668677099E+01  0.17015337883E+02  0.12700000000E+01 0.  1.
          2    1    1    2  502    0  0.11989608944E+03  0.54276845313E+02 -0.11211668814E+04  0.11288650159E+04  0.00000000000E+00 0. -1.
          1    1    1    2  503    0 -0.20363220418E+03  0.24046367347E+03  0.12505987585E+04  0.12896844993E+04  0.00000000000E+00 0. -1.
<mgrwt>
<rscale>  0 0.20301887E+03</rscale>
<asrwt>0</asrwt>
<pdfrwt beam="1">  1        2 0.20869626E+00 0.31317402E+03</pdfrwt>
<pdfrwt beam="2">  1        1 0.22711490E+00 0.13160945E+03</pdfrwt>
<totfact> 0.17669601E+01</totfact>
</mgrwt>
</event>
<event>
 7    1  0.5277388E-004  0.9701352E+02  0.7546771E-02  0.1294831E+00
          2   -1    0    0  503    0  0.00000000000E+00  0.00000000000E+00  0.20994972612E+03  0.20994972612E+03  0.00000000000E+00 0. -1.
          1   -1    0    0  502    0 -0.00000000000E+00 -0.00000000000E+00 -0.20264581044E+04  0.20264581044E+04  0.00000000000E+00 0. -1.
         25    2    1    2    0    0  0.15057694946E+02 -0.23813721051E+02 -0.98835596605E+01  0.12851629592E+03  0.12499970431E+03 0.  0.
          4    1    3    3  501    0  0.55366509603E+02  0.26212987843E+02  0.80620170991E+01  0.61799515669E+02  0.12700000000E+01 0.  1.
         -4    1    3    3    0  501 -0.40308814657E+02 -0.50026708894E+02 -0.17945576760E+02  0.66716780251E+02  0.12700000000E+01 0.  1.
          2    1    1    2  502    0 -0.98267751550E+02 -0.10249407460E+02 -0.19424728488E+04  0.19449838996E+04  0.00000000000E+00 0. -1.
          1    1    1    2  503    0  0.83210056604E+02  0.34063128511E+02  0.13584803017E+03  0.16290763501E+03  0.00000000000E+00 0. -1.
<mgrwt>
<rscale>  0 0.93395411E+02</rscale>
<asrwt>0</asrwt>
<pdfrwt beam="1">  1        2 0.32299958E-01 0.89912236E+02</pdfrwt>
<pdfrwt beam="2">  1        1 0.31176278E+00 0.97013523E+02</pdfrwt>
<totfact> 0.79280541E+01</totfact>
</mgrwt>
</event>
<event>
 7    1  0.5277388E-004  0.1437559E+03  0.7546771E-02  0.1396270E+00
          1   -1    0    0  503    0  0.00000000000E+00  0.00000000000E+00  0.10625240321E+04  0.10625240321E+04  0.00000000000E+00 0. -1.
         -1   -1    0    0    0  501 -0.00000000000E+00 -0.00000000000E+00 -0.11238467971E+03  0.11238467971E+03  0.00000000000E+00 0.  1.
         25    2    1    2    0    0  0.12127406432E+03 -0.34336930036E+02  0.40680160108E+03  0.44384529358E+03  0.12499871422E+03 0.  0.
          4    1    3    3  502    0  0.12857004657E+03  0.10908626361E+02  0.26370475900E+03  0.29358315316E+03  0.12700000000E+01 0. -1.
         -4    1    3    3    0  502 -0.72959822506E+01 -0.45245556397E+02  0.14309684208E+03  0.15026214042E+03  0.12700000000E+01 0. -1.
          2    1    1    2  503    0  0.14035694586E+02 -0.21116142485E+02  0.57980004199E+03  0.58035418572E+03  0.00000000000E+00 0. -1.
         -2    1    1    2    0  501 -0.13530975890E+03  0.55453072521E+02 -0.36462290717E+02  0.15070923247E+03  0.00000000000E+00 0.  1.
<mgrwt>
<rscale>  0 0.60373643E+02</rscale>
<asrwt>0</asrwt>
<pdfrwt beam="1">  1        1 0.16346523E+00 0.25355319E+02</pdfrwt>
<pdfrwt beam="2">  1       -1 0.17289951E-01 0.14375590E+03</pdfrwt>
<totfact> 0.42676790E+02</totfact>
</mgrwt>
</event>
<event>
 7    1  0.5277388E-004  0.7743320E+02  0.7546771E-02  0.1420712E+00
          2   -1    0    0  503    0  0.00000000000E+00  0.00000000000E+00  0.11712074283E+04  0.11712074283E+04  0.00000000000E+00 0. -1.
          1   -1    0    0  502    0 -0.00000000000E+00 -0.00000000000E+00 -0.43535000504E+02  0.43535000504E+02  0.00000000000E+00 0. -1.
         25    2    1    2    0    0  0.56758870415E+02 -0.41115186405E+02  0.29818008040E+03  0.33082713147E+03  0.12499281036E+03 0.  0.
          4    1    3    3  501    0  0.47211684629E+02  0.36950808628E+02  0.17183642845E+03  0.18199911117E+03  0.12700000000E+01 0.  1.
         -4    1    3    3    0  501  0.95471857856E+01 -0.78065995034E+02  0.12634365196E+03  0.14882802030E+03  0.12700000000E+01 0.  1.
          2    1    1    2  502    0 -0.79701157648E+02  0.97227050662E+01  0.33543124147E+02  0.87016933420E+02  0.00000000000E+00 0. -1.
          1    1    1    2  503    0  0.22942287233E+02  0.31392481339E+02  0.79594922323E+03  0.79689836390E+03  0.00000000000E+00 0. -1.
<mgrwt>
<rscale>  0 0.54870610E+02</rscale>
<asrwt>0</asrwt>
<pdfrwt beam="1">  1        2 0.18018573E+00 0.38882341E+02</pdfrwt>
<pdfrwt beam="2">  1        1 0.66976933E-02 0.77433195E+02</pdfrwt>
<totfact> 0.32105542E+03</totfact>
</mgrwt>
</event>
<event>
 7    1  0.5277388E-004  0.4654405E+02  0.7546771E-02  0.1478854E+00
         -2   -1    0    0    0  501 -0.00000000000E+00  0.00000000000E+00  0.34781493390E+02  0.34781493390E+02  0.00000000000E+00 0.  1.
          2   -1    0    0  503    0  0.00000000000E+00 -0.00000000000E+00 -0.30565289355E+04  0.30565289355E+04  0.00000000000E+00 0. -1.
         25    2    1    2    0    0 -0.80492326791E+02 -0.33309070663E+02 -0.88415946130E+03  0.89719274376E+03  0.12501342967E+03 0.  0.
          4    1    3    3  502    0  0.13801546181E+02  0.14513190828E+02 -0.44617543194E+03  0.44662651550E+03  0.12700000000E+01 0.  1.
         -4    1    3    3    0  502 -0.94293872972E+02 -0.47822261491E+02 -0.43798402936E+03  0.45056622826E+03  0.12700000000E+01 0.  1.
          1    1    1    2  503    0  0.42405234317E+02  0.15286554253E+02 -0.21497806159E+04  0.21502531430E+04  0.00000000000E+00 0. -1.
         -1    1    1    2    0  501  0.38087092475E+02  0.18022516410E+02  0.12192635012E+02  0.43864542166E+02  0.00000000000E+00 0.  1.
<mgrwt>
<rscale>  0 0.44285181E+02</rscale>
<asrwt>0</asrwt>
<pdfrwt beam="2">  1        2 0.47023520E+00 0.46544046E+02</pdfrwt>
<pdfrwt beam="1">  1       -2 0.53509992E-02 0.42135943E+02</pdfrwt>
<totfact> 0.38243477E+02</totfact>
</mgrwt>
</event>
<event>
 7    1  0.5277388E-004  0.3203415E+02  0.7546771E-02  0.1584775E+00
         -2   -1    0    0    0  501 -0.00000000000E+00  0.00000000000E+00  0.17103212034E+02  0.17103212034E+02  0.00000000000E+00 0.  1.
          2   -1    0    0  503    0  0.00000000000E+00 -0.00000000000E+00 -0.91851999694E+03  0.91851999694E+03  0.00000000000E+00 0. -1.
         25    2    1    2    0    0  0.20960191299E+02  0.12890960367E+01 -0.73352672223E+03  0.74439764240E+03  0.12500162558E+03 0.  0.
          4    1    3    3  502    0  0.73239144899E+01  0.16093585180E+01 -0.73027937691E+03  0.73031897893E+03  0.12700000000E+01 0.  1.
         -4    1    3    3    0  502  0.13636276809E+02 -0.32026248135E+00 -0.32473453233E+01  0.14078663464E+02  0.12700000000E+01 0.  1.
          3    1    1    2  503    0 -0.28493256119E+02  0.28230031838E+02 -0.15132009353E+03  0.15654574746E+03  0.00000000000E+00 0. -1.
         -3    1    1    2    0  501  0.75330648193E+01 -0.29519127875E+02 -0.16569969137E+02  0.34679819107E+02  0.00000000000E+00 0.  1.
<mgrwt>
<rscale>  0 0.31239804E+02</rscale>
<asrwt>0</asrwt>
<pdfrwt beam="2">  1        2 0.14131082E+00 0.32034146E+02</pdfrwt>
<pdfrwt beam="1">  1       -2 0.26312624E-02 0.30465160E+02</pdfrwt>
<totfact> 0.12709328E+04</totfact>
</mgrwt>
</event>
<event>
 7    1  0.5277388E-004  0.7006380E+02  0.7546771E-02  0.1428522E+00
          1   -1    0    0  502    0 -0.00000000000E+00  0.00000000000E+00  0.28613586919E+03  0.28613586919E+03  0.00000000000E+00 0. -1.
          2   -1    0    0  503    0  0.00000000000E+00 -0.00000000000E+00 -0.21400961522E+04  0.21400961522E+04  0.00000000000E+00 0. -1.
         25    2    1    2    0    0  0.65709260426E+02  0.65080746289E+02 -0.14775580610E+04  0.14857165067E+04  0.12499001665E+03 0.  0.
          4    1    3    3  501    0 -0.11567134729E+01  0.50574229957E+02 -0.11486786345E+04  0.11497927244E+04  0.12700000000E+01 0.  1.
         -4    1    3    3    0  501  0.66865973898E+02  0.14506516332E+02 -0.32887942650E+03  0.33592378236E+03  0.12700000000E+01 0.  1.
          2    1    1    2  502    0 -0.39796332266E+02 -0.74253109405E+01  0.27907574413E+03  0.28199672741E+03  0.00000000000E+00 0. -1.
          1    1    1    2  503    0 -0.25912928160E+02 -0.57655435348E+02 -0.65547796617E+03  0.65851878729E+03  0.00000000000E+00 0. -1.
<mgrwt>
<rscale>  0 0.53257878E+02</rscale>
<asrwt>0</asrwt>
<pdfrwt beam="2">  1        2 0.32924556E+00 0.70063801E+02</pdfrwt>
<pdfrwt beam="1">  1        1 0.44020903E-01 0.40483124E+02</pdfrwt>
<totfact> 0.92476605E+01</totfact>
</mgrwt>
</event>
<event>
 7    1  0.5277388E-004  0.8228863E+02  0.7546771E-02  0.1356448E+00
         -2   -1    0    0    0  501 -0.00000000000E+00  0.00000000000E+00  0.78437508501E+03  0.78437508501E+03  0.00000000000E+00 0.  1.
          2   -1    0    0  503    0  0.00000000000E+00 -0.00000000000E+00 -0.40034508166E+03  0.40034508166E+03  0.00000000000E+00 0. -1.
         25    2    1    2    0    0 -0.20691721626E+02 -0.25680163404E+02  0.15101775486E+03  0.19879201581E+03  0.12499714049E+03 0.  0.
          4    1    3    3  502    0 -0.90503612148E+01 -0.57128045152E+02  0.15457439763E+03  0.16504659913E+03  0.12700000000E+01 0. -1.
         -4    1    3    3    0  502 -0.11641360411E+02  0.31447881748E+02 -0.35566427794E+01  0.33745416674E+02  0.12700000000E+01 0. -1.
          1    1    1    2  503    0 -0.59983481899E+02 -0.13130409374E+02 -0.37063064611E+03  0.37568271399E+03  0.00000000000E+00 0. -1.
         -1    1    1    2    0  501  0.80675203525E+02  0.38810572778E+02  0.60364289461E+03  0.61024543688E+03  0.00000000000E+00 0.  1.
<mgrwt>
<rscale>  0 0.71083289E+02</rscale>
<asrwt>0</asrwt>
<pdfrwt beam="2">  1        2 0.61591551E-01 0.61403793E+02</pdfrwt>
<pdfrwt beam="1">  1       -2 0.12067309E+00 0.82288629E+02</pdfrwt>
<totfact> 0.46546975E+01</totfact>
</mgrwt>
</event>
<event>
 7    1  0.5277388E-004  0.6394031E+02  0.7546771E-02  0.1533621E+00
          2   -1    0    0  503    0  0.00000000000E+00  0.00000000000E+00  0.10420505283E+04  0.10420505283E+04  0.00000000000E+00 0. -1.
         -2   -1    0    0    0  501 -0.00000000000E+00 -0.00000000000E+00 -0.71203508298E+02  0.71203508298E+02  0.00000000000E+00 0.  1.
         25    2    1    2    0    0 -0.49106143086E+02  0.48260541256E+02  0.14690060213E+03  0.20480370774E+03  0.12499711464E+03 0.  0.
          4    1    3    3  502    0  0.16443125784E+01 -0.37560843696E+02  0.67759572657E+02  0.77501569852E+02  0.12700000000E+01 0. -1.
         -4    1    3    3    0  502 -0.50750455665E+02  0.85821384951E+02  0.79141029476E+02  0.12730213789E+03  0.12700000000E+01 0. -1.
          1    1    1    2  503    0 -0.77595143373E+01 -0.19640341010E+02  0.84201054824E+03  0.84227532103E+03  0.00000000000E+00 0. -1.
         -1    1    1    2    0  501  0.56865657424E+02 -0.28620200245E+02 -0.18064130365E+02  0.66175007836E+02  0.00000000000E+00 0.  1.
<mgrwt>
<rscale>  0 0.36745965E+02</rscale>
<asrwt>0</asrwt>
<pdfrwt beam="1">  1        2 0.16031545E+00 0.21117601E+02</pdfrwt>
<pdfrwt beam="2">  1       -2 0.10954387E-01 0.63940310E+02</pdfrwt>
<totfact> 0.14993111E+03</totfact>
</mgrwt>
</event>
<event>
 7    1  0.5277388E-004  0.5583124E+02  0.7546771E-02  0.1438762E+00
          1   -1    0    0  502    0 -0.00000000000E+00  0.00000000000E+00  0.31330232536E+03  0.31330232536E+03  0.00000000000E+00 0. -1.
          2   -1    0    0  503    0  0.00000000000E+00 -0.00000000000E+00 -0.10936169841E+04  0.10936169841E+04  0.00000000000E+00 0. -1.
         25    2    1    2    0    0 -0.49228588631E+02 -0.17384348120E+02 -0.88229551150E+03  0.89263464409E+03  0.12500227486E+03 0.  0.
          4    1    3    3  501    0 -0.64982921023E+02 -0.57150097095E+02 -0.45159709101E+03  0.45981567952E+03  0.12700000000E+01 0.  1.
         -4    1    3    3    0  501  0.15754332392E+02  0.39765748975E+02 -0.43069842049E+03  0.43281896457E+03  0.12700000000E+01 0.  1.
          2    1    1    2  502    0  0.18306029137E+02  0.52815722041E+02  0.30285942031E+03  0.30797473869E+03  0.00000000000E+00 0. -1.
          1    1    1    2  503    0  0.30922559493E+02 -0.35431373920E+02 -0.20087856753E+03  0.20630992665E+03  0.00000000000E+00 0. -1.
<mgrwt>
<rscale>  0 0.51240652E+02</rscale>
<asrwt>0</asrwt>
<pdfrwt beam="2">  1        2 0.16824877E+00 0.47027513E+02</pdfrwt>
<pdfrwt beam="1">  1        1 0.48200357E-01 0.55831242E+02</pdfrwt>
<totfact> 0.28949168E+02</totfact>
</mgrwt>
</event>
<event>
 7    1  0.5277388E-004  0.1175840E+03  0.7546771E-02  0.1362702E+00
         -2   -1    0    0    0  501 -0.00000000000E+00  0.00000000000E+00  0.80583583180E+02  0.80583583180E+02  0.00000000000E+00 0.  1.
          2   -1    0    0  503    0  0.00000000000E+00 -0.00000000000E+00 -0.14463935028E+04  0.14463935028E+04  0.00000000000E+00 0. -1.
         25    2    1    2    0    0 -0.59716858510E+02 -0.91785533089E+02 -0.62736918612E+03  0.64900547820E+03  0.12500131107E+03 0.  0.
          4    1    3    3  502    0  0.52682985132E+00  0.46381096183E+01  0.47272480219E+01  0.67638291214E+01  0.12700000000E+01 0.  1.
         -4    1    3    3    0  502 -0.60243688361E+02 -0.96423642708E+02 -0.63209643414E+03  0.64224164908E+03  0.12700000000E+01 0.  1.
          1    1    1    2  503    0 -0.35233669158E+02  0.20514167074E+02 -0.75674770792E+03  0.75784519259E+03  0.00000000000E+00 0. -1.
         -1    1    1    2    0  501  0.94950527668E+02  0.71271366015E+02  0.18306974400E+02  0.12012641520E+03  0.00000000000E+00 0.  1.
<mgrwt>
<rscale>  0 0.69238511E+02</rscale>
<asrwt>0</asrwt>
<pdfrwt beam="2">  1        2 0.22252208E+00 0.40770608E+02</pdfrwt>
<pdfrwt beam="1">  1       -2 0.12397474E-01 0.11758401E+03</pdfrwt>
<totfact> 0.76311087E+02</totfact>
</mgrwt>
</event>
<event>
 7    1  0.5277388E-004  0.8121601E+02  0.7546771E-02  0.1501007E+00
          1   -1    0    0  502    0 -0.00000000000E+00  0.00000000000E+00  0.71311800130E+03  0.71311800130E+03  0.00000000000E+00 0. -1.
          2   -1    0    0  503    0  0.00000000000E+00 -0.00000000000E+00 -0.35293460771E+02  0.35293460771E+02  0.00000000000E+00 0. -1.
         25    2    1    2    0    0  0.77528602372E+02  0.27352228120E+02  0.51790823697E+03  0.53908547712E+03  0.12500152459E+03 0.  0.
          4    1    3    3  501    0  0.18383065853E+02  0.26189096250E+02  0.20175519454E+02  0.37847990142E+02  0.12700000000E+01 0.  1.
         -4    1    3    3    0  501  0.59145536519E+02  0.11631318701E+01  0.49773271752E+03  0.50123748698E+03  0.12700000000E+01 0.  1.
          2    1    1    2  502    0 -0.81265488140E+02 -0.69985669487E+01  0.16827995766E+03  0.18700589202E+03  0.00000000000E+00 0. -1.
          3    1    1    2  503    0  0.37368857679E+01 -0.20353661171E+02 -0.83636541016E+01  0.22320092926E+02  0.00000000000E+00 0. -1.
<mgrwt>
<rscale>  0 0.40996009E+02</rscale>
<asrwt>0</asrwt>
<pdfrwt beam="2">  1        2 0.54297638E-02 0.20693860E+02</pdfrwt>
<pdfrwt beam="1">  1        1 0.10971045E+00 0.81216010E+02</pdfrwt>
<totfact> 0.42994883E+03</totfact>
</mgrwt>
</event>
<event>
 7    1  0.5277388E-004  0.1081892E+03  0.7546771E-02  0.1360819E+00
          1   -1    0    0  502    0 -0.00000000000E+00  0.00000000000E+00  0.31960770442E+02  0.31960770442E+02  0.00000000000E+00 0. -1.
          2   -1    0    0  503    0  0.00000000000E+00 -0.00000000000E+00 -0.16631286254E+04  0.16631286254E+04  0.00000000000E+00 0. -1.
         25    2    1    2    0    0  0.69042828124E+02 -0.44537177049E+02 -0.43254581825E+03  0.45767893034E+03  0.12499458443E+03 0.  0.
          4    1    3    3  501    0  0.50582672546E+02 -0.81570177368E+02 -0.20451910414E+03  0.22592471635E+03  0.12700000000E+01 0.  1.
         -4    1    3    3    0  501  0.18460155578E+02  0.37033000319E+02 -0.22802671411E+03  0.23175421399E+03  0.12700000000E+01 0.  1.
          2    1    1    2  502    0  0.27852658342E+01 -0.44929678685E+02 -0.13853283780E+02  0.47099333371E+02  0.00000000000E+00 0. -1.
          1    1    1    2  503    0 -0.71828093958E+02  0.89466855734E+02 -0.11847687529E+04  0.11903111321E+04  0.00000000000E+00 0. -1.
<mgrwt>
<rscale>  0 0.69787088E+02</rscale>
<asrwt>0</asrwt>
<pdfrwt beam="2">  1        2 0.25586603E+00 0.10818921E+03</pdfrwt>
<pdfrwt beam="1">  1        1 0.49170399E-02 0.45015928E+02</pdfrwt>
<totfact> 0.23717263E+03</totfact>
</mgrwt>
</event>
<event>
 7    1  0.5277388E-004  0.5516860E+02  0.7546771E-02  0.1442508E+00
         -2   -1    0    0    0  501 -0.00000000000E+00  0.00000000000E+00  0.18400422913E+03  0.18400422913E+03  0.00000000000E+00 0.  1.
          2   -1    0    0  503    0  0.00000000000E+00 -0.00000000000E+00 -0.12676981780E+04  0.12676981780E+04  0.00000000000E+00 0. -1.
         25    2    1    2    0    0  0.21248824542E+02 -0.66066686985E+02 -0.27733587064E+03  0.31202189245E+03  0.12500462612E+03 0.  0.
          4    1    3    3  502    0  0.37400682354E+02 -0.78000927030E+02 -0.27873338207E+03  0.29185076124E+03  0.12700000000E+01 0.  1.
         -4    1    3    3    0  502 -0.16151857812E+02  0.11934240045E+02  0.13975114261E+01  0.20171131213E+02  0.12700000000E+01 0.  1.
          3    1    1    2  503    0 -0.47638486582E+02  0.28047958124E+02 -0.96900334704E+03  0.97057900241E+03  0.00000000000E+00 0. -1.
         -1    1    1    2    0  501  0.26389662040E+02  0.38018728861E+02  0.16264526877E+03  0.16910151229E+03  0.00000000000E+00 0.  1.
<mgrwt>
<rscale>  0 0.50529226E+02</rscale>
<asrwt>0</asrwt>
<pdfrwt beam="2">  1        2 0.19503050E+00 0.55168601E+02</pdfrwt>
<pdfrwt beam="1">  1       -2 0.28308341E-01 0.46279996E+02</pdfrwt>
<totfact> 0.22391186E+02</totfact>
</mgrwt>
</event>
<event>
 7    1  0.5277388E-004  0.6023187E+02  0.7546771E-02  0.1500228E+00
         -1   -1    0    0    0  502 -0.00000000000E+00  0.00000000000E+00  0.12510493140E+04  0.12510493140E+04  0.00000000000E+00 0.  1.
         -2   -1    0    0    0  501  0.00000000000E+00 -0.00000000000E+00 -0.39298569377E+02  0.39298569377E+02  0.00000000000E+00 0.  1.
         25    2    1    2    0    0 -0.51523452899E+02  0.33589325518E+02  0.11101023867E+03  0.17813765166E+03  0.12500736322E+03 0.  0.
          4    1    3    3  503    0  0.11927633446E+02  0.24020313136E+02  0.11074794210E+03  0.11395597159E+03  0.12700000000E+01 0. -1.
         -4    1    3    3    0  503 -0.63451086344E+02  0.95690123823E+01  0.26229657439E+00  0.64181680063E+02  0.12700000000E+01 0. -1.
         -2    1    1    2    0  502  0.59972475973E+02 -0.68387814909E+01  0.10653088658E+04  0.10670175473E+04  0.00000000000E+00 0.  1.
         -1    1    1    2    0  501 -0.84490230746E+01 -0.26750544028E+02  0.35431640157E+02  0.45192684374E+02  0.00000000000E+00 0.  1.
<mgrwt>
<rscale>  0 0.41105863E+02</rscale>
<asrwt>0</asrwt>
<pdfrwt beam="2">  1       -2 0.60459347E-02 0.28053121E+02</pdfrwt>
<pdfrwt beam="1">  1       -1 0.19246910E+00 0.60231871E+02</pdfrwt>
<totfact> 0.18634744E+02</totfact>
</mgrwt>
</event>
<event>
 7    1  0.5277388E-004  0.1360241E+03  0.7546771E-02  0.1315972E+00
          2   -1    0    0  503    0  0.00000000000E+00  0.00000000000E+00  0.18170914655E+03  0.18170914655E+03  0.00000000000E+00 0. -1.
          1   -1    0    0  502    0 -0.00000000000E+00 -0.00000000000E+00 -0.15287457460E+04  0.15287457460E+04  0.00000000000E+00 0. -1.
         25    2    1    2    0    0  0.12777823465E+02  0.17252861519E+03 -0.29525945951E+03  0.36432515873E+03  0.12500110807E+03 0.  0.
          4    1    3    3  501    0  0.26011279292E+02  0.17603389927E+03 -0.19847040023E+03  0.26656450066E+03  0.12700000000E+01 0.  1.
         -4    1    3    3    0  501 -0.13233455827E+02 -0.35052840805E+01 -0.96789059280E+02  0.97760658068E+02  0.12700000000E+01 0.  1.
          2    1    1    2  502    0 -0.33235531383E+02 -0.41102673489E+02 -0.11681820745E+04  0.11693773512E+04  0.00000000000E+00 0. -1.
          1    1    1    2  503    0  0.20457707917E+02 -0.13142594170E+03  0.11640493458E+03  0.17675238261E+03  0.00000000000E+00 0. -1.
<mgrwt>
<rscale>  0 0.84794126E+02</rscale>
<asrwt>0</asrwt>
<pdfrwt beam="1">  1        2 0.27955252E-01 0.13602414E+03</pdfrwt>
<pdfrwt beam="2">  1        1 0.23519166E+00 0.52858588E+02</pdfrwt>
<totfact> 0.20451168E+02</totfact>
</mgrwt>
</event>
<event>
 7    1  0.5277388E-004  0.7836281E+02  0.7546771E-02  0.1388306E+00
          2   -1    0    0  503    0  0.00000000000E+00  0.00000000000E+00  0.21540220804E+04  0.21540220804E+04  0.00000000000E+00 0. -1.
         -2   -1    0    0    0  501 -0.00000000000E+00 -0.00000000000E+00 -0.35179466556E+02  0.35179466556E+02  0.00000000000E+00 0.  1.
         25    2    1    2    0    0 -0.53870342158E+02  0.34329427420E+01  0.60965422050E+03  0.62467361182E+03  0.12500021547E+03 0.  0.
          4    1    3    3  502    0 -0.37381886902E+02  0.58006646001E+02  0.21202388444E+03  0.22297514867E+03  0.12700000000E+01 0. -1.
         -4    1    3    3    0  502 -0.16488455256E+02 -0.54573703259E+02  0.39763033606E+03  0.40169846315E+03  0.12700000000E+01 0. -1.
          1    1    1    2  503    0  0.71573235997E+02  0.42876080933E+02  0.15125381254E+04  0.15148375052E+04  0.00000000000E+00 0. -1.
         -1    1    1    2    0  501 -0.17702893839E+02 -0.46309023674E+02 -0.33497320279E+01  0.49690429950E+02  0.00000000000E+00 0.  1.
<mgrwt>
<rscale>  0 0.62329959E+02</rscale>
<asrwt>0</asrwt>
<pdfrwt beam="1">  1        2 0.33138791E+00 0.78362806E+02</pdfrwt>
<pdfrwt beam="2">  1       -2 0.54122273E-02 0.49577395E+02</pdfrwt>
<totfact> 0.10557938E+03</totfact>
</mgrwt>
</event>
<event>
 7    1  0.5277388E-004  0.5571457E+02  0.7546771E-02  0.1559979E+00
          2   -1    0    0  503    0  0.00000000000E+00  0.00000000000E+00  0.42889631320E+03  0.42889631320E+03  0.00000000000E+00 0. -1.
          1   -1    0    0  502    0 -0.00000000000E+00 -0.00000000000E+00 -0.12619786613E+03  0.12619786613E+03  0.00000000000E+00 0. -1.
         25    2    1    2    0    0 -0.40516556436E+01 -0.74478678866E+02  0.10431171175E+03  0.17907152015E+03  0.12498874590E+03 0.  0.
          4    1    3    3  501    0  0.58023122893E+00 -0.41951931343E+02 -0.22805918914E+02  0.47770535366E+02  0.12700000000E+01 0. -1.
         -4    1    3    3    0  501 -0.46318868725E+01 -0.32526747523E+02  0.12711763066E+03  0.13130098479E+03  0.12700000000E+01 0. -1.
          2    1    1    2  502    0  0.39296813948E+01  0.20064737564E+02 -0.85017719760E+02  0.87441687785E+02  0.00000000000E+00 0. -1.
          1    1    1    2  503    0  0.12197424882E+00  0.54413941302E+02  0.28340445508E+03  0.28858097139E+03  0.00000000000E+00 0. -1.
<mgrwt>
<rscale>  0 0.33751091E+02</rscale>
<asrwt>0</asrwt>
<pdfrwt beam="1">  1        2 0.65984047E-01 0.55714565E+02</pdfrwt>
<pdfrwt beam="2">  1        1 0.19415057E-01 0.20445931E+02</pdfrwt>
<totfact> 0.24162414E+03</totfact>
</mgrwt>
</event>
<event>
 7    1  0.5277388E-004  0.6530651E+02  0.7546771E-02  0.1378866E+00
         -1   -1    0    0    0  501 -0.00000000000E+00  0.00000000000E+00  0.45228762953E+03  0.45228762953E+03  0.00000000000E+00 0.  1.
          1   -1    0    0  503    0  0.00000000000E+00 -0.00000000000E+00 -0.12248009803E+04  0.12248009803E+04  0.00000000000E+00 0. -1.
         25    2    1    2    0    0 -0.91862258680E+02 -0.53145210260E+02 -0.81230521178E+03  0.82869028184E+03  0.12499895273E+03 0.  0.
          4    1    3    3  502    0 -0.93981800041E+02 -0.76143208205E+02 -0.46038805613E+03  0.47601380444E+03  0.12700000000E+01 0. -1.
         -4    1    3    3    0  502  0.21195413610E+01  0.22997997945E+02 -0.35191715565E+03  0.35267647740E+03  0.12700000000E+01 0. -1.
          2    1    1    2  503    0  0.26828747794E+02  0.58351608229E+02 -0.39932737583E+03  0.40445895339E+03  0.00000000000E+00 0. -1.
         -2    1    1    2    0  501  0.65033510886E+02 -0.52063979689E+01  0.43911923687E+03  0.44393937458E+03  0.00000000000E+00 0.  1.
<mgrwt>
<rscale>  0 0.64762873E+02</rscale>
<asrwt>0</asrwt>
<pdfrwt beam="2">  1        1 0.18843092E+00 0.64223764E+02</pdfrwt>
<pdfrwt beam="1">  1       -1 0.69582712E-01 0.65306507E+02</pdfrwt>
<totfact> 0.28051842E+01</totfact>
</mgrwt>
</event>
<event>
 7    1  0.5277388E-004  0.4335855E+02  0.7546771E-02  0.1563066E+00
         -2   -1    0    0    0  501 -0.00000000000E+00  0.00000000000E+00  0.40273473544E+02  0.40273473544E+02  0.00000000000E+00 0.  1.
          2   -1    0    0  503    0  0.00000000000E+00 -0.00000000000E+00 -0.61774511146E+03  0.61774511146E+03  0.00000000000E+00 0. -1.
         25    2    1    2    0    0 -0.43485956902E+01  0.60129642259E+02 -0.33500078309E+03  0.36260567538E+03  0.12499146767E+03 0.  0.
          4    1    3    3  502    0 -0.55479617312E+02  0.15769960166E+02 -0.79120989970E+02  0.97920495988E+02  0.12700000000E+01 0. -1.
         -4    1    3    3    0  502  0.51131021621E+02  0.44359682093E+02 -0.25587979312E+03  0.26468517940E+03  0.12700000000E+01 0. -1.
          1    1    1    2  503    0 -0.14047700284E+02 -0.21597816559E+02 -0.25062279007E+03  0.25194361764E+03  0.00000000000E+00 0. -1.
         -1    1    1    2    0  501  0.18396295974E+02 -0.38531825700E+02  0.81519352420E+01  0.43469291983E+02  0.00000000000E+00 0.  1.
<mgrwt>
<rscale>  0 0.33423141E+02</rscale>
<asrwt>0</asrwt>
<pdfrwt beam="2">  1        2 0.95037709E-01 0.25764386E+02</pdfrwt>
<pdfrwt beam="1">  1       -2 0.61959191E-02 0.43358550E+02</pdfrwt>
<totfact> 0.61746729E+03</totfact>
</mgrwt>
</event>
<event>
 7    1  0.5277388E-004  0.5652515E+02  0.7546771E-02  0.1502671E+00
         -2   -1    0    0    0  501  0.00000000000E+00  0.00000000000E+00  0.10072491100E+04  0.10072491100E+04  0.00000000000E+00 0.  1.
         -1   -1    0    0    0  502 -0.00000000000E+00 -0.00000000000E+00 -0.22720564051E+03  0.22720564051E+03  0.00000000000E+00 0.  1.
         25    2    1    2    0    0  0.82305871425E+02  0.53189907021E-01 -0.26444503147E+02  0.15194573984E+03  0.12495573939E+03 0.  0.
          4    1    3    3  503    0 -0.12452239786E+02  0.41701487329E+02 -0.20865005183E+02  0.48280779430E+02  0.12700000000E+01 0.  1.
         -4    1    3    3    0  503  0.94758111211E+02 -0.41648297422E+02 -0.55794979637E+01  0.10366496041E+03  0.12700000000E+01 0.  1.
         -2    1    1    2    0  502 -0.53862806363E+02 -0.74775979287E+01 -0.13241485513E+03  0.14314611500E+03  0.00000000000E+00 0.  1.
         -1    1    1    2    0  501 -0.28443065062E+02  0.74244080216E+01  0.93890282777E+03  0.93936289568E+03  0.00000000000E+00 0.  1.
<mgrwt>
<rscale>  0 0.40762948E+02</rscale>
<asrwt>0</asrwt>
<pdfrwt beam="1">  1       -2 0.15496140E+00 0.29396085E+02</pdfrwt>
<pdfrwt beam="2">  1       -1 0.34954715E-01 0.56525145E+02</pdfrwt>
<totfact> 0.18723927E+01</totfact>
</mgrwt>
</event>
<event>
 7    1  0.5277388E-004  0.1180758E+03  0.7546771E-02  0.1312412E+00
         -1   -1    0    0    0  502 -0.00000000000E+00  0.00000000000E+00  0.13355595618E+04  0.13355595618E+04  0.00000000000E+00 0.  1.
         -2   -1    0    0    0  501  0.00000000000E+00 -0.00000000000E+00 -0.18385948821E+03  0.18385948821E+03  0.00000000000E+00 0.  1.
         25    2    1    2    0    0 -0.10153833775E+03  0.39247705799E+02  0.64664299206E+03  0.66755005367E+03  0.12500199413E+03 0.  0.
          4    1    3    3  503    0 -0.87495369095E+01  0.52207087062E+02  0.40381588053E+03  0.40727265143E+03  0.12700000000E+01 0.  1.
         -4    1    3    3    0  503 -0.92788800841E+02 -0.12959381263E+02  0.24282711153E+03  0.26027740224E+03  0.12700000000E+01 0.  1.
         -2    1    1    2    0  502 -0.15314627917E+02 -0.60985718642E+02  0.65641547252E+03  0.65942025163E+03  0.00000000000E+00 0.  1.
         -1    1    1    2    0  501  0.11685296567E+03  0.21738012843E+02 -0.15135839103E+03  0.19244874466E+03  0.00000000000E+00 0.  1.
<mgrwt>
<rscale>  0 0.86165610E+02</rscale>
<asrwt>0</asrwt>
<pdfrwt beam="2">  1       -2 0.28286076E-01 0.11807578E+03</pdfrwt>
<pdfrwt beam="1">  1       -1 0.20547070E+00 0.62879215E+02</pdfrwt>
<totfact> 0.14606104E+01</totfact>
</mgrwt>
</event>
<event>
 7    1  0.5277388E-004  0.2116324E+03  0.7546771E-02  0.1217878E+00
          2   -1    0    0  503    0  0.00000000000E+00  0.00000000000E+00  0.69226734745E+03  0.69226734745E+03  0.00000000000E+00 0. -1.
          1   -1    0    0  502    0 -0.00000000000E+00 -0.00000000000E+00 -0.27538538488E+03  0.27538538488E+03  0.00000000000E+00 0. -1.
         25    2    1    2    0    0  0.14763159974E+02  0.14641159205E+03 -0.34185443142E+02  0.19608381788E+03  0.12500365567E+03 0.  0.
          4    1    3    3  501    0  0.12471184647E+02  0.16680172244E+03 -0.44490572687E+02  0.17308774946E+03  0.12700000000E+01 0.  1.
         -4    1    3    3    0  501  0.22919753269E+01 -0.20390130384E+02  0.10305129545E+02  0.22996068423E+02  0.12700000000E+01 0.  1.
          2    1    1    2  502    0 -0.45666830608E+02  0.75530853507E+02 -0.12524714947E+03  0.15322277148E+03  0.00000000000E+00 0. -1.
          1    1    1    2  503    0  0.30903670633E+02 -0.22194244556E+03  0.57631455518E+03  0.61834614296E+03  0.00000000000E+00 0. -1.
<mgrwt>
<rscale>  0 0.13667234E+03</rscale>
<asrwt>0</asrwt>
<pdfrwt beam="1">  1        2 0.10650267E+00 0.21163243E+03</pdfrwt>
<pdfrwt beam="2">  1        1 0.42366982E-01 0.88263068E+02</pdfrwt>
<totfact> 0.56899017E+02</totfact>
</mgrwt>
</event>
<event>
 7    1  0.5277388E-004  0.3713642E+02  0.7546771E-02  0.1545369E+00
          1   -1    0    0  502    0 -0.00000000000E+00  0.00000000000E+00  0.14050526327E+03  0.14050526327E+03  0.00000000000E+00 0. -1.
          2   -1    0    0  503    0  0.00000000000E+00 -0.00000000000E+00 -0.79720709452E+02  0.79720709452E+02  0.00000000000E+00 0. -1.
         25    2    1    2    0    0 -0.77582948760E+01  0.18490012372E+02  0.20856905394E+02  0.12830244903E+03  0.12499774489E+03 0.  0.
          4    1    3    3  501    0 -0.20878083553E+02 -0.40987959218E+02 -0.24704559051E+02  0.52228682844E+02  0.12700000000E+01 0. -1.
         -4    1    3    3    0  501  0.13119788677E+02  0.59477971590E+02  0.45561464445E+02  0.76073766187E+02  0.12700000000E+01 0. -1.
          2    1    1    2  502    0  0.37217914656E+02  0.41207076186E+01  0.39993333431E+02  0.54787043373E+02  0.00000000000E+00 0. -1.
          1    1    1    2  503    0 -0.29459619780E+02 -0.22610719991E+02 -0.65685005821E-01  0.37136480321E+02  0.00000000000E+00 0. -1.
<mgrwt>
<rscale>  0 0.35366585E+02</rscale>
<asrwt>0</asrwt>
<pdfrwt beam="2">  1        2 0.12264725E-01 0.37136422E+02</pdfrwt>
<pdfrwt beam="1">  1        1 0.21616194E-01 0.33681095E+02</pdfrwt>
<totfact> 0.12876650E+04</totfact>
</mgrwt>
</event>
<event>
 7    1  0.5277388E-004  0.1202289E+03  0.7546771E-02  0.1257341E+00
          1   -1    0    0  502    0 -0.00000000000E+00  0.00000000000E+00  0.11354721444E+03  0.11354721444E+03  0.00000000000E+00 0. -1.
          2   -1    0    0  503    0  0.00000000000E+00 -0.00000000000E+00 -0.35816672347E+04  0.35816672347E+04  0.00000000000E+00 0. -1.
         25    2    1    2    0    0 -0.45810899959E+02  0.69202902420E+02 -0.68825316048E+03  0.70441995835E+03  0.12500953783E+03 0.  0.
          4    1    3    3  501    0  0.38891452641E+02  0.47912510738E+02 -0.32535604072E+03  0.33115905530E+03  0.12700000000E+01 0. -1.
         -4    1    3    3    0  501 -0.84702352601E+02  0.21290391682E+02 -0.36289711976E+03  0.37326090305E+03  0.12700000000E+01 0. -1.
          2    1    1    2  502    0 -0.47650492309E+02 -0.11457248740E+03  0.67686405708E+02  0.14134664412E+03  0.00000000000E+00 0. -1.
          1    1    1    2  503    0  0.93461392268E+02  0.45369584980E+02 -0.28475532655E+04  0.28494478466E+04  0.00000000000E+00 0. -1.
<mgrwt>
<rscale>  0 0.11176202E+03</rscale>
<asrwt>0</asrwt>
<pdfrwt beam="2">  1        2 0.55102575E+00 0.10389144E+03</pdfrwt>
<pdfrwt beam="1">  1        1 0.17468802E-01 0.12022886E+03</pdfrwt>
<totfact> 0.42938084E+01</totfact>
</mgrwt>
</event>
<event>
 7    1  0.5277388E-004  0.7743036E+02  0.7546771E-02  0.1446743E+00
          2   -1    0    0  503    0  0.00000000000E+00  0.00000000000E+00  0.49742868929E+03  0.49742868929E+03  0.00000000000E+00 0. -1.
         -2   -1    0    0    0  501 -0.00000000000E+00 -0.00000000000E+00 -0.10460385961E+03  0.10460385961E+03  0.00000000000E+00 0.  1.
         25    2    1    2    0    0  0.28179214823E+02  0.56653480347E+02  0.15815811583E+03  0.21129306404E+03  0.12500833703E+03 0.  0.
          4    1    3    3  502    0 -0.40193327867E+02  0.14751216340E+00  0.92702268715E+02  0.10104874512E+03  0.12700000000E+01 0.  1.
         -4    1    3    3    0  502  0.68372542689E+02  0.56505968184E+02  0.65455847113E+02  0.11024431893E+03  0.12700000000E+01 0.  1.
          1    1    1    2  503    0 -0.60051717987E+02 -0.54379202515E+02  0.30388662800E+03  0.31450022127E+03  0.00000000000E+00 0. -1.
         -1    1    1    2    0  501  0.31872503164E+02 -0.22742778326E+01 -0.69219914149E+02  0.76239263588E+02  0.00000000000E+00 0.  1.
<mgrwt>
<rscale>  0 0.49741072E+02</rscale>
<asrwt>0</asrwt>
<pdfrwt beam="1">  1        2 0.76527489E-01 0.77430361E+02</pdfrwt>
<pdfrwt beam="2">  1       -2 0.16092902E-01 0.31953541E+02</pdfrwt>
<totfact> 0.17434372E+03</totfact>
</mgrwt>
</event>
<event>
 7    1  0.5277388E-004  0.4116166E+02  0.7546771E-02  0.1516271E+00
          1   -1    0    0  502    0 -0.00000000000E+00  0.00000000000E+00  0.68451744672E+03  0.68451744672E+03  0.00000000000E+00 0. -1.
          2   -1    0    0  503    0  0.00000000000E+00 -0.00000000000E+00 -0.61154792626E+02  0.61154792626E+02  0.00000000000E+00 0. -1.
         25    2    1    2    0    0  0.65327627974E+01  0.72943221267E+01  0.28744490947E+03  0.31360149602E+03  0.12500175278E+03 0.  0.
          4    1    3    3  501    0  0.33053453831E+02 -0.47264846521E+02  0.88781184597E+02  0.10587827051E+03  0.12700000000E+01 0.  1.
         -4    1    3    3    0  501 -0.26520691033E+02  0.54559168647E+02  0.19866372487E+03  0.20772322551E+03  0.12700000000E+01 0.  1.
          2    1    1    2  502    0 -0.43193458841E+02 -0.10613962000E+02  0.37543748076E+03  0.37806300141E+03  0.00000000000E+00 0. -1.
          1    1    1    2  503    0  0.36660696044E+02  0.33196398733E+01 -0.39519736134E+02  0.54007741921E+02  0.00000000000E+00 0. -1.
<mgrwt>
<rscale>  0 0.38925428E+02</rscale>
<asrwt>0</asrwt>
<pdfrwt beam="2">  1        2 0.94084301E-02 0.36810687E+02</pdfrwt>
<pdfrwt beam="1">  1        1 0.10531037E+00 0.41161660E+02</pdfrwt>
<totfact> 0.25789545E+03</totfact>
</mgrwt>
</event>
<event>
 7    1  0.5277388E-004  0.9431752E+02  0.7546771E-02  0.1389199E+00
          2   -1    0    0  503    0  0.00000000000E+00  0.00000000000E+00  0.21110219138E+04  0.21110219138E+04  0.00000000000E+00 0. -1.
          1   -1    0    0  502    0 -0.00000000000E+00 -0.00000000000E+00 -0.76315175903E+03  0.76315175903E+03  0.00000000000E+00 0. -1.
         25    2    1    2    0    0  0.18566254172E+02 -0.11477847358E+03 -0.55955681951E+01  0.17081001725E+03  0.12500379121E+03 0.  0.
          4    1    3    3  501    0  0.23331084552E+02 -0.19179303891E+02 -0.55244583638E+02  0.62974297340E+02  0.12700000000E+01 0.  1.
         -4    1    3    3    0  501 -0.47648303800E+01 -0.95599169693E+02  0.49649015443E+02  0.10783571991E+03  0.12700000000E+01 0.  1.
          2    1    1    2  502    0  0.15644433533E+02  0.92370972151E+02 -0.67149047052E+03  0.67799454038E+03  0.00000000000E+00 0. -1.
          1    1    1    2  503    0 -0.34210687705E+02  0.22407501433E+02  0.20249561935E+04  0.20253691152E+04  0.00000000000E+00 0. -1.
<mgrwt>
<rscale>  0 0.62106290E+02</rscale>
<asrwt>0</asrwt>
<pdfrwt beam="1">  1        2 0.32477260E+00 0.40895810E+02</pdfrwt>
<pdfrwt beam="2">  1        1 0.11740796E+00 0.94317516E+02</pdfrwt>
<totfact> 0.28871401E+01</totfact>
</mgrwt>
</event>
<event>
 7    1  0.5277388E-004  0.5788316E+02  0.7546771E-02  0.1432245E+00
         -2   -1    0    0    0  501 -0.00000000000E+00  0.00000000000E+00  0.10529363091E+03  0.10529363091E+03  0.00000000000E+00 0.  1.
          2   -1    0    0  503    0  0.00000000000E+00 -0.00000000000E+00 -0.21795979690E+03  0.21795979690E+03  0.00000000000E+00 0. -1.
         25    2    1    2    0    0 -0.75554057462E+02 -0.21707455418E+02 -0.12447165086E+03  0.19312702542E+03  0.12500090744E+03 0.  0.
          4    1    3    3  502    0 -0.34154194458E+01  0.37783383987E+00  0.25224765798E+02  0.25489400894E+02  0.12700000000E+01 0. -1.
         -4    1    3    3    0  502 -0.72138638016E+02 -0.22085289258E+02 -0.14969641666E+03  0.16763762452E+03  0.12700000000E+01 0. -1.
          1    1    1    2  503    0  0.41099577072E+02 -0.24090231815E+02 -0.32514655196E+02  0.57677701991E+02  0.00000000000E+00 0. -1.
         -1    1    1    2    0  501  0.34454480390E+02  0.45797687233E+02  0.44320140064E+02  0.72448700403E+02  0.00000000000E+00 0.  1.
<mgrwt>
<rscale>  0 0.52512094E+02</rscale>
<asrwt>0</asrwt>
<pdfrwt beam="2">  1        2 0.33532277E-01 0.47639422E+02</pdfrwt>
<pdfrwt beam="1">  1       -2 0.16199020E-01 0.57883155E+02</pdfrwt>
<totfact> 0.42019596E+03</totfact>
</mgrwt>
</event>
<event>
 7    1  0.5277388E-004  0.6127347E+02  0.7546771E-02  0.1451232E+00
          2   -1    0    0  503    0  0.00000000000E+00  0.00000000000E+00  0.27451571984E+04  0.27451571984E+04  0.00000000000E+00 0. -1.
         -2   -1    0    0    0  501 -0.00000000000E+00 -0.00000000000E+00 -0.14409068338E+02  0.14409068338E+02  0.00000000000E+00 0.  1.
         25    2    1    2    0    0 -0.75275399002E+02  0.74377615384E+00  0.17738858015E+04  0.17798770805E+04  0.12499858399E+03 0.  0.
          4    1    3    3  502    0 -0.67764758308E+02  0.31832278408E+02  0.16569099735E+04  0.16586011062E+04  0.12700000000E+01 0. -1.
         -4    1    3    3    0  502 -0.75106406946E+01 -0.31088502255E+02  0.11697582801E+03  0.12127597427E+03  0.12700000000E+01 0. -1.
          1    1    1    2  503    0  0.22669875121E+02 -0.31812764284E+02  0.88286886058E+03  0.88373265199E+03  0.00000000000E+00 0. -1.
         -1    1    1    2    0  501  0.52605523882E+02  0.31068988130E+02  0.73993468063E+02  0.95956534339E+02  0.00000000000E+00 0.  1.
<mgrwt>
<rscale>  0 0.48924130E+02</rscale>
<asrwt>0</asrwt>
<pdfrwt beam="1">  1        2 0.42233146E+00 0.39063733E+02</pdfrwt>
<pdfrwt beam="2">  1       -2 0.22167819E-02 0.61273472E+02</pdfrwt>
<totfact> 0.21658418E+03</totfact>
</mgrwt>
</event>
<event>
 7    1  0.5277388E-004  0.1040278E+03  0.7546771E-02  0.1305034E+00
          2   -1    0    0  503    0  0.00000000000E+00  0.00000000000E+00  0.23204349506E+04  0.23204349506E+04  0.00000000000E+00 0. -1.
         -2   -1    0    0    0  501 -0.00000000000E+00 -0.00000000000E+00 -0.80190105580E+02  0.80190105580E+02  0.00000000000E+00 0.  1.
         25    2    1    2    0    0 -0.14962048303E+03 -0.37664585348E+01  0.95655879241E+03  0.97623193917E+03  0.12499440213E+03 0.  0.
          4    1    3    3  502    0 -0.10958884323E+03 -0.60132706245E+02  0.65810620265E+03  0.66987390140E+03  0.12700000000E+01 0.  1.
         -4    1    3    3    0  502 -0.40031639806E+02  0.56366247711E+02  0.29845258976E+03  0.30635803776E+03  0.12700000000E+01 0.  1.
          3    1    1    2  503    0  0.86314774467E+02  0.46398666357E+02  0.13309949256E+04  0.13345975306E+04  0.00000000000E+00 0. -1.
         -1    1    1    2    0  501  0.63305708567E+02 -0.42632207823E+02 -0.47308873013E+02  0.89795586455E+02  0.00000000000E+00 0.  1.
<mgrwt>
<rscale>  0 0.89104774E+02</rscale>
<asrwt>0</asrwt>
<pdfrwt beam="1">  1        2 0.35698994E+00 0.10402784E+03</pdfrwt>
<pdfrwt beam="2">  1       -2 0.12336941E-01 0.76322460E+02</pdfrwt>
<totfact> 0.24954347E+02</totfact>
</mgrwt>
</event>
<event>
 7    1  0.5277388E-004  0.8814041E+02  0.7546771E-02  0.1416353E+00
          1   -1    0    0  502    0 -0.00000000000E+00  0.00000000000E+00  0.29132530657E+04  0.29132530657E+04  0.00000000000E+00 0. -1.
          2   -1    0    0  503    0  0.00000000000E+00 -0.00000000000E+00 -0.80631286854E+03  0.80631286854E+03  0.00000000000E+00 0. -1.
         25    2    1    2    0    0  0.46152438776E+02  0.40096557905E+02 -0.60313664079E+03  0.61898077909E+03  0.12500246344E+03 0.  0.
          4    1    3    3  501    0  0.54509346151E+01 -0.43406106752E+02 -0.14251167424E+03  0.14908049163E+03  0.12700000000E+01 0.  1.
         -4    1    3    3    0  501  0.40701504161E+02  0.83502664657E+02 -0.46062496655E+03  0.46990028746E+03  0.12700000000E+01 0.  1.
          2    1    1    2  502    0 -0.45677676453E+02 -0.75419244784E+02  0.29030583321E+04  0.29043970445E+04  0.00000000000E+00 0. -1.
          1    1    1    2  503    0 -0.47476232342E+00  0.35322686879E+02 -0.19298149423E+03  0.19618811055E+03  0.00000000000E+00 0. -1.
<mgrwt>
<rscale>  0 0.55799975E+02</rscale>
<asrwt>0</asrwt>
<pdfrwt beam="2">  1        2 0.12404814E+00 0.35325877E+02</pdfrwt>
<pdfrwt beam="1">  1        1 0.44819277E+00 0.88140409E+02</pdfrwt>
<totfact> 0.51914792E+00</totfact>
</mgrwt>
</event>
<event>
 7    1  0.5277388E-004  0.5828947E+02  0.7546771E-02  0.1493430E+00
          2   -1    0    0  503    0  0.00000000000E+00  0.00000000000E+00  0.20470152294E+04  0.20470152294E+04  0.00000000000E+00 0. -1.
          1   -1    0    0  502    0 -0.00000000000E+00 -0.00000000000E+00 -0.71916472153E+03  0.71916472153E+03  0.00000000000E+00 0. -1.
         25    2    1    2    0    0  0.81986544193E+01 -0.79290471219E+02  0.57998495390E+02  0.15919047163E+03  0.12499433600E+03 0.  0.
          4    1    3    3  501    0 -0.45420329248E+02 -0.82812904201E+02  0.38737973563E+02  0.10209420604E+03  0.12700000000E+01 0.  1.
         -4    1    3    3    0  501  0.53618983667E+02  0.35224329819E+01  0.19260521826E+02  0.57096265593E+02  0.12700000000E+01 0.  1.
          2    1    1    2  502    0 -0.23572335970E+02  0.53087229128E+02 -0.66718777969E+03  0.66971146196E+03  0.00000000000E+00 0. -1.
          1    1    1    2  503    0  0.15373681551E+02  0.26203242091E+02  0.19370397922E+04  0.19372780173E+04  0.00000000000E+00 0. -1.
<mgrwt>
<rscale>  0 0.42081456E+02</rscale>
<asrwt>0</asrwt>
<pdfrwt beam="1">  1        2 0.31492542E+00 0.30380256E+02</pdfrwt>
<pdfrwt beam="2">  1        1 0.11064073E+00 0.58289465E+02</pdfrwt>
<totfact> 0.35809998E+01</totfact>
</mgrwt>
</event>
<event>
 7    1  0.5277388E-004  0.4646009E+02  0.7546771E-02  0.1556749E+00
          2   -1    0    0  503    0  0.00000000000E+00  0.00000000000E+00  0.32912441612E+03  0.32912441612E+03  0.00000000000E+00 0. -1.
         -2   -1    0    0    0  501 -0.00000000000E+00 -0.00000000000E+00 -0.13719704323E+03  0.13719704323E+03  0.00000000000E+00 0.  1.
         25    2    1    2    0    0  0.48479322192E+02 -0.21464272244E+01  0.97076398035E+02  0.16554137959E+03  0.12500107787E+03 0.  0.
          4    1    3    3  502    0  0.41095272893E+02  0.32030456467E+02 -0.98451433690E+01  0.53040657458E+02  0.12700000000E+01 0.  1.
         -4    1    3    3    0  502  0.73840492995E+01 -0.34176883692E+02  0.10692154140E+03  0.11250072213E+03  0.12700000000E+01 0.  1.
          1    1    1    2  503    0 -0.93430073710E+01 -0.23217566636E+02  0.19167910094E+03  0.19330603954E+03  0.00000000000E+00 0. -1.
         -1    1    1    2    0  501 -0.39136314821E+02  0.25363993860E+02 -0.96828126084E+02  0.10747404023E+03  0.00000000000E+00 0.  1.
<mgrwt>
<rscale>  0 0.34099170E+02</rscale>
<asrwt>0</asrwt>
<pdfrwt beam="1">  1        2 0.50634525E-01 0.25026929E+02</pdfrwt>
<pdfrwt beam="2">  1       -2 0.21107238E-01 0.46460089E+02</pdfrwt>
<totfact> 0.17549566E+03</totfact>
</mgrwt>
</event>
<event>
 7    1  0.5277388E-004  0.1309356E+03  0.7546771E-02  0.1235863E+00
          1   -1    0    0  502    0 -0.00000000000E+00  0.00000000000E+00  0.14806917606E+04  0.14806917606E+04  0.00000000000E+00 0. -1.
          2   -1    0    0  503    0  0.00000000000E+00 -0.00000000000E+00 -0.77899908576E+03  0.77899908576E+03  0.00000000000E+00 0. -1.
         25    2    1    2    0    0 -0.29243159884E+02  0.64914229536E+01  0.90374395181E+02  0.15713000796E+03  0.12500002850E+03 0.  0.
          4    1    3    3  501    0 -0.69369851830E+02 -0.22945920356E+02  0.30302238700E+02  0.79110872667E+02  0.12700000000E+01 0. -1.
         -4    1    3    3    0  501  0.40126691945E+02  0.29437343309E+02  0.60072156481E+02  0.78019135293E+02  0.12700000000E+01 0. -1.
          2    1    1    2  502    0 -0.82670090217E+02 -0.84715732016E+02  0.13480733393E+04  0.13532600737E+04  0.00000000000E+00 0. -1.
          1    1    1    2  503    0  0.11191325010E+03  0.78224309063E+02 -0.73675505962E+03  0.74930076468E+03  0.00000000000E+00 0. -1.
<mgrwt>
<rscale>  0 0.12449359E+03</rscale>
<asrwt>0</asrwt>
<pdfrwt beam="2">  1        2 0.11984601E+00 0.13093564E+03</pdfrwt>
<pdfrwt beam="1">  1        1 0.22779873E+00 0.11836849E+03</pdfrwt>
<totfact> 0.41137794E+01</totfact>
</mgrwt>
</event>
<event>
 7    1  0.5277388E-004  0.1116598E+03  0.7546771E-02  0.1259274E+00
          1   -1    0    0  502    0 -0.00000000000E+00  0.00000000000E+00  0.17312875126E+03  0.17312875126E+03  0.00000000000E+00 0. -1.
          2   -1    0    0  503    0  0.00000000000E+00 -0.00000000000E+00 -0.29043303733E+04  0.29043303733E+04  0.00000000000E+00 0. -1.
         25    2    1    2    0    0  0.16377672376E+03  0.13070540082E+03  0.15948187192E+01  0.24401277276E+03  0.12503188703E+03 0.  0.
          4    1    3    3  501    0  0.68729992762E+02  0.10709769420E+03  0.47511784553E+02  0.13584075449E+03  0.12700000000E+01 0. -1.
         -4    1    3    3    0  501  0.95046730999E+02  0.23607706614E+02 -0.45916965834E+02  0.10817201827E+03  0.12700000000E+01 0. -1.
          2    1    1    2  502    0 -0.10295629680E+03 -0.38025576030E+02 -0.12017425595E+02  0.11040997239E+03  0.00000000000E+00 0. -1.
          1    1    1    2  503    0 -0.60820426956E+02 -0.92679824786E+02 -0.27207790152E+04  0.27230363794E+04  0.00000000000E+00 0. -1.
<mgrwt>
<rscale>  0 0.11070283E+03</rscale>
<asrwt>0</asrwt>
<pdfrwt beam="2">  1        2 0.44682008E+00 0.11165985E+03</pdfrwt>
<pdfrwt beam="1">  1        1 0.26635191E-01 0.10975401E+03</pdfrwt>
<totfact> 0.63899149E+01</totfact>
</mgrwt>
</event>
<event>
 7    1  0.5277388E-004  0.9115551E+02  0.7546771E-02  0.1339705E+00
          1   -1    0    0  502    0 -0.00000000000E+00  0.00000000000E+00  0.21347162007E+03  0.21347162007E+03  0.00000000000E+00 0. -1.
          2   -1    0    0  503    0  0.00000000000E+00 -0.00000000000E+00 -0.44621230815E+04  0.44621230815E+04  0.00000000000E+00 0. -1.
         25    2    1    2    0    0  0.11925966408E+03  0.25778401496E+02 -0.77098370371E+03  0.79052404514E+03  0.12500000444E+03 0.  0.
          4    1    3    3  501    0  0.87272053594E+02  0.56940235534E+02 -0.69181375821E+03  0.69961881815E+03  0.12700000000E+01 0.  1.
         -4    1    3    3    0  501  0.31987610482E+02 -0.31161834039E+02 -0.79169945500E+02  0.90905226997E+02  0.12700000000E+01 0.  1.
          2    1    1    2  502    0 -0.53091784563E+02  0.35683300613E+02  0.19811102908E+03  0.20818264907E+03  0.00000000000E+00 0. -1.
          1    1    1    2  503    0 -0.66167879512E+02 -0.61461702108E+02 -0.36757787868E+04  0.36768880074E+04  0.00000000000E+00 0. -1.
<mgrwt>
<rscale>  0 0.76361829E+02</rscale>
<asrwt>0</asrwt>
<pdfrwt beam="2">  1        2 0.68648046E+00 0.91155515E+02</pdfrwt>
<pdfrwt beam="1">  1        1 0.32841788E-01 0.63969020E+02</pdfrwt>
<totfact> 0.42976255E+00</totfact>
</mgrwt>
</event>
<event>
 7    1  0.5277388E-004  0.5811535E+02  0.7546771E-02  0.1488566E+00
          1   -1    0    0  502    0 -0.00000000000E+00  0.00000000000E+00  0.70987587787E+03  0.70987587787E+03  0.00000000000E+00 0. -1.
          2   -1    0    0  503    0  0.00000000000E+00 -0.00000000000E+00 -0.28501968798E+04  0.28501968798E+04  0.00000000000E+00 0. -1.
         25    2    1    2    0    0 -0.54152327263E+02 -0.70514346556E+02 -0.30559843144E+03  0.34193797798E+03  0.12500572735E+03 0.  0.
          4    1    3    3  501    0 -0.57336210618E+02 -0.64371037139E+02 -0.31701452471E+03  0.32852837510E+03  0.12700000000E+01 0. -1.
         -4    1    3    3    0  501  0.31838833554E+01 -0.61433094167E+01  0.11416093272E+02  0.13409602880E+02  0.12700000000E+01 0. -1.
          2    1    1    2  502    0  0.21231713200E+02  0.23296404343E+02  0.69101894474E+03  0.69173744303E+03  0.00000000000E+00 0. -1.
          1    1    1    2  503    0  0.32920614063E+02  0.47217942214E+02 -0.25257415152E+04  0.25263973366E+04  0.00000000000E+00 0. -1.
<mgrwt>
<rscale>  0 0.42799460E+02</rscale>
<asrwt>0</asrwt>
<pdfrwt beam="2">  1        2 0.43849183E+00 0.58115353E+02</pdfrwt>
<pdfrwt beam="1">  1        1 0.10921167E+00 0.31519964E+02</pdfrwt>
<totfact> 0.13379275E+01</totfact>
</mgrwt>
</event>
<event>
 7    1  0.5277388E-004  0.1702261E+03  0.7546771E-02  0.1178802E+00
          1   -1    0    0  503    0  0.00000000000E+00  0.00000000000E+00  0.10317636515E+04  0.10317636515E+04  0.00000000000E+00 0. -1.
         -1   -1    0    0    0  501 -0.00000000000E+00 -0.00000000000E+00 -0.14401561285E+03  0.14401561285E+03  0.00000000000E+00 0.  1.
         25    2    1    2    0    0  0.11536084000E+03 -0.80665769300E+01  0.31141964936E+03  0.35493355121E+03  0.12498973835E+03 0.  0.
          4    1    3    3  502    0  0.10351664946E+03 -0.39970568706E+02  0.13264458047E+03  0.17294375012E+03  0.12700000000E+01 0.  1.
         -4    1    3    3    0  502  0.11844190543E+02  0.31903991776E+02  0.17877506890E+03  0.18198980109E+03  0.12700000000E+01 0.  1.
          2    1    1    2  503    0 -0.22833881752E+02 -0.16639809063E+03  0.59896720917E+03  0.62207027608E+03  0.00000000000E+00 0. -1.
         -2    1    1    2    0  501 -0.92526958252E+02  0.17446466756E+03 -0.22638819838E+02  0.19877543710E+03  0.00000000000E+00 0.  1.
<mgrwt>
<rscale>  0 0.16908798E+03</rscale>
<asrwt>0</asrwt>
<pdfrwt beam="1">  1        1 0.15873287E+00 0.16795747E+03</pdfrwt>
<pdfrwt beam="2">  1       -1 0.22156249E-01 0.17022610E+03</pdfrwt>
<totfact> 0.26491432E+02</totfact>
</mgrwt>
</event>
<event>
 7    1  0.5277388E-004  0.9727873E+02  0.7546771E-02  0.1300829E+00
          2   -1    0    0  503    0  0.00000000000E+00  0.00000000000E+00  0.69621503434E+03  0.69621503434E+03  0.00000000000E+00 0. -1.
          1   -1    0    0  502    0 -0.00000000000E+00 -0.00000000000E+00 -0.55502571567E+03  0.55502571567E+03  0.00000000000E+00 0. -1.
         25    2    1    2    0    0 -0.72916110485E+02 -0.11209666752E+03 -0.97980380974E+02  0.20762323891E+03  0.12499932896E+03 0.  0.
          4    1    3    3  501    0 -0.71222011466E+02 -0.66546032645E+02 -0.12193751796E+03  0.15611316589E+03  0.12700000000E+01 0.  1.
         -4    1    3    3    0  501 -0.16940990191E+01 -0.45550634879E+02  0.23957136990E+02  0.51510073016E+02  0.12700000000E+01 0.  1.
          2    1    1    2  502    0 -0.10308352659E+02  0.95680469515E+02 -0.39359664950E+03  0.40519049456E+03  0.00000000000E+00 0. -1.
          1    1    1    2  503    0  0.83224463144E+02  0.16416198009E+02  0.63276634916E+03  0.63842701654E+03  0.00000000000E+00 0. -1.
<mgrwt>
<rscale>  0 0.90840341E+02</rscale>
<asrwt>0</asrwt>
<pdfrwt beam="1">  1        2 0.10711001E+00 0.84828078E+02</pdfrwt>
<pdfrwt beam="2">  1        1 0.85388571E-01 0.97278727E+02</pdfrwt>
<totfact> 0.24155035E+02</totfact>
</mgrwt>
</event>
<event>
 7    1  0.5277388E-004  0.1026557E+03  0.7546771E-02  0.1376462E+00
          1   -1    0    0  502    0 -0.00000000000E+00  0.00000000000E+00  0.73750952268E+02  0.73750952268E+02  0.00000000000E+00 0. -1.
          2   -1    0    0  503    0  0.00000000000E+00 -0.00000000000E+00 -0.71934037076E+03  0.71934037076E+03  0.00000000000E+00 0. -1.
         25    2    1    2    0    0  0.12013756517E+02 -0.78081155676E+02 -0.11764680146E+03  0.18896046262E+03  0.12499715726E+03 0.  0.
          4    1    3    3  501    0 -0.77062491554E+01 -0.82697314772E+02 -0.13745398081E+03  0.16060336823E+03  0.12700000000E+01 0.  1.
         -4    1    3    3    0  501  0.19720005672E+02  0.46161590957E+01  0.19807179351E+02  0.28357094392E+02  0.12700000000E+01 0.  1.
          2    1    1    2  502    0 -0.36920136836E+02  0.11148730823E+03 -0.55572078111E+02  0.12992602613E+03  0.00000000000E+00 0. -1.
          1    1    1    2  503    0  0.24906380319E+02 -0.33406152553E+02 -0.47237053893E+03  0.47420483428E+03  0.00000000000E+00 0. -1.
<mgrwt>
<rscale>  0 0.65403013E+02</rscale>
<asrwt>0</asrwt>
<pdfrwt beam="2">  1        2 0.11066775E+00 0.41668919E+02</pdfrwt>
<pdfrwt beam="1">  1        1 0.11346301E-01 0.10265575E+03</pdfrwt>
<totfact> 0.29966796E+03</totfact>
</mgrwt>
</event>
<event>
 7    1  0.5277388E-004  0.9939974E+02  0.7546771E-02  0.1339365E+00
          1   -1    0    0  502    0 -0.00000000000E+00  0.00000000000E+00  0.11686731227E+04  0.11686731227E+04  0.00000000000E+00 0. -1.
          2   -1    0    0  503    0  0.00000000000E+00 -0.00000000000E+00 -0.25828849462E+03  0.25828849462E+03  0.00000000000E+00 0. -1.
         25    2    1    2    0    0  0.44052959836E+02 -0.24771979997E+02  0.46330351989E+02  0.14256429843E+03  0.12499505353E+03 0.  0.
          4    1    3    3  501    0  0.54582927227E+02  0.21633932749E+01 -0.29002679057E+02  0.61860686285E+02  0.12700000000E+01 0. -1.
         -4    1    3    3    0  501 -0.10529967391E+02 -0.26935373272E+02  0.75333031046E+02  0.80703612145E+02  0.12700000000E+01 0. -1.
          2    1    1    2  502    0  0.33581381877E+02 -0.48311991872E+02  0.10598344273E+04  0.10614663306E+04  0.00000000000E+00 0. -1.
          1    1    1    2  503    0 -0.77634341712E+02  0.73083971870E+02 -0.19578015116E+03  0.22293098831E+03  0.00000000000E+00 0. -1.
<mgrwt>
<rscale>  0 0.76474526E+02</rscale>
<asrwt>0</asrwt>
<pdfrwt beam="2">  1        2 0.39736692E-01 0.99399739E+02</pdfrwt>
<pdfrwt beam="1">  1        1 0.17979586E+00 0.58836704E+02</pdfrwt>
<totfact> 0.23504437E+02</totfact>
</mgrwt>
</event>
<event>
 7    1  0.1010293E-003  0.1064020E+03  0.7546771E-02  0.1340634E+00
          2   -1    0    0  503    0  0.00000000000E+00  0.00000000000E+00  0.22420766983E+04  0.22420766983E+04  0.00000000000E+00 0. -1.
          1   -1    0    0  502    0 -0.00000000000E+00 -0.00000000000E+00 -0.73378106894E+03  0.73378106894E+03  0.00000000000E+00 0. -1.
         25    2    1    2    0    0  0.98020975215E+02  0.33892514991E+02 -0.19147175399E+03  0.25108269072E+03  0.12499708336E+03 0.  0.
          4    1    3    3  501    0  0.12731792815E+03  0.18096924998E+02 -0.14367426948E+03  0.19282443345E+03  0.12700000000E+01 0.  1.
         -4    1    3    3    0  501 -0.29296952940E+02  0.15795589993E+02 -0.47797484515E+02  0.58258257275E+02  0.12700000000E+01 0.  1.
          2    1    1    2  502    0 -0.72290059097E+02 -0.81781449037E+02 -0.50635349312E+03  0.51798447665E+03  0.00000000000E+00 0. -1.
          1    1    1    2  503    0 -0.25730916118E+02  0.47888934046E+02  0.22061208765E+04  0.22067905999E+04  0.00000000000E+00 0. -1.
<mgrwt>
<rscale>  0 0.76055418E+02</rscale>
<asrwt>0</asrwt>
<pdfrwt beam="1">  1        2 0.34493487E+00 0.54363867E+02</pdfrwt>
<pdfrwt beam="2">  1        1 0.11288940E+00 0.10640205E+03</pdfrwt>
<totfact> 0.25251880E+01</totfact>
</mgrwt>
</event>
<event>
 7    1  0.5277388E-004  0.8350713E+02  0.7546771E-02  0.1367778E+00
          2   -1    0    0  503    0  0.00000000000E+00  0.00000000000E+00  0.12546737410E+04  0.12546737410E+04  0.00000000000E+00 0. -1.
          1   -1    0    0  502    0 -0.00000000000E+00 -0.00000000000E+00 -0.57980722520E+03  0.57980722520E+03  0.00000000000E+00 0. -1.
         25    2    1    2    0    0 -0.31928016983E+02  0.71794728102E+02  0.10482910240E+02  0.14801311884E+03  0.12499644270E+03 0.  0.
          4    1    3    3  501    0 -0.68859939345E+02  0.25115334243E+02 -0.26470720880E+02  0.77940895714E+02  0.12700000000E+01 0.  1.
         -4    1    3    3    0  501  0.36931922362E+02  0.46679393859E+02  0.36953631120E+02  0.70072223122E+02  0.12700000000E+01 0.  1.
          2    1    1    2  502    0 -0.43157721499E+02 -0.34141096527E+02 -0.50805380543E+03  0.51102531504E+03  0.00000000000E+00 0. -1.
          1    1    1    2  503    0  0.75085738482E+02 -0.37653631575E+02  0.11724374110E+04  0.11754425323E+04  0.00000000000E+00 0. -1.
<mgrwt>
<rscale>  0 0.67788813E+02</rscale>
<asrwt>0</asrwt>
<pdfrwt beam="1">  1        2 0.19302673E+00 0.83507125E+02</pdfrwt>
<pdfrwt beam="2">  1        1 0.89201111E-01 0.55029114E+02</pdfrwt>
<totfact> 0.10690988E+02</totfact>
</mgrwt>
</event>
<event>
 7    1  0.5277388E-004  0.1130999E+03  0.7546771E-02  0.1425320E+00
         -2   -1    0    0    0  501 -0.00000000000E+00  0.00000000000E+00  0.51677521492E+03  0.51677521492E+03  0.00000000000E+00 0.  1.
          2   -1    0    0  503    0  0.00000000000E+00 -0.00000000000E+00 -0.25323612690E+04  0.25323612690E+04  0.00000000000E+00 0. -1.
         25    2    1    2    0    0 -0.12139445346E+03  0.34920029231E+01  0.17936955119E+03  0.25009684252E+03  0.12500474922E+03 0.  0.
          4    1    3    3  502    0 -0.94388025821E+02  0.28124031852E+02  0.18824866028E+03  0.21245995289E+03  0.12700000000E+01 0. -1.
         -4    1    3    3    0  502 -0.27006427635E+02 -0.24632028928E+02 -0.88791090853E+01  0.37636889628E+02  0.12700000000E+01 0. -1.
          1    1    1    2  503    0  0.10991976832E+03 -0.26485533267E+02 -0.24951685057E+04  0.24977289106E+04  0.00000000000E+00 0. -1.
         -1    1    1    2    0  501  0.11474685137E+02  0.22993530344E+02  0.30021290050E+03  0.30131073075E+03  0.00000000000E+00 0.  1.
<mgrwt>
<rscale>  0 0.53911093E+02</rscale>
<asrwt>0</asrwt>
<pdfrwt beam="2">  1        2 0.38959404E+00 0.11309993E+03</pdfrwt>
<pdfrwt beam="1">  1       -2 0.79503879E-01 0.25697682E+02</pdfrwt>
<totfact> 0.65664629E+00</totfact>
</mgrwt>
</event>
<event>
 7    1  0.5277388E-004  0.1209175E+03  0.7546771E-02  0.1264965E+00
          2   -1    0    0  503    0  0.00000000000E+00  0.00000000000E+00  0.15090934403E+04  0.15090934403E+04  0.00000000000E+00 0. -1.
          1   -1    0    0  502    0 -0.00000000000E+00 -0.00000000000E+00 -0.21681730785E+04  0.21681730785E+04  0.00000000000E+00 0. -1.
         25    2    1    2    0    0 -0.12416711428E+03  0.13342249546E+03 -0.44331419836E+03  0.49534880155E+03  0.12499568861E+03 0.  0.
          4    1    3    3  501    0  0.10217886727E+01  0.92589149077E+01  0.70151458843E+01  0.11730163219E+02  0.12700000000E+01 0. -1.
         -4    1    3    3    0  501 -0.12518890295E+03  0.12416358055E+03 -0.45032934424E+03  0.48361863833E+03  0.12700000000E+01 0. -1.
          2    1    1    2  502    0  0.30378965292E+02 -0.11361805232E+03 -0.16952532106E+04  0.16993279234E+04  0.00000000000E+00 0. -1.
          1    1    1    2  503    0  0.93788148989E+02 -0.19804443140E+02  0.14794877708E+04  0.14825897938E+04  0.00000000000E+00 0. -1.
<mgrwt>
<rscale>  0 0.10766013E+03</rscale>
<asrwt>0</asrwt>
<pdfrwt beam="1">  1        2 0.23216822E+00 0.95856314E+02</pdfrwt>
<pdfrwt beam="2">  1        1 0.33356509E+00 0.12091748E+03</pdfrwt>
<totfact> 0.58513997E+00</totfact>
</mgrwt>
</event>
<event>
 7    1  0.5277388E-004  0.3004568E+02  0.7546771E-02  0.1645647E+00
          2   -1    0    0  503    0  0.00000000000E+00  0.00000000000E+00  0.86595097384E+03  0.86595097384E+03  0.00000000000E+00 0. -1.
         -2   -1    0    0    0  501 -0.00000000000E+00 -0.00000000000E+00 -0.87441393085E+03  0.87441393085E+03  0.00000000000E+00 0.  1.
         25    2    1    2    0    0  0.35474621811E+01 -0.15386750611E+02 -0.43383781118E+03  0.45176259449E+03  0.12499943513E+03 0.  0.
          4    1    3    3  502    0 -0.33876772208E+02 -0.40285281957E+02 -0.84630143232E+02  0.99671528939E+02  0.12700000000E+01 0. -1.
         -4    1    3    3    0  502  0.37424234389E+02  0.24898531346E+02 -0.34920766795E+03  0.35209106555E+03  0.12700000000E+01 0. -1.
          1    1    1    2  503    0  0.22618630236E+02 -0.16342852403E+01  0.85627388154E+03  0.85657412612E+03  0.00000000000E+00 0. -1.
         -1    1    1    2    0  501 -0.26166092417E+02  0.17021035851E+02 -0.43089902737E+03  0.43202818409E+03  0.00000000000E+00 0.  1.
<mgrwt>
<rscale>  0 0.26102946E+02</rscale>
<asrwt>0</asrwt>
<pdfrwt beam="1">  1        2 0.13322323E+00 0.22677595E+02</pdfrwt>
<pdfrwt beam="2">  1       -2 0.13452522E+00 0.30045680E+02</pdfrwt>
<totfact> 0.16512918E+01</totfact>
</mgrwt>
</event>
<event>
 7    1  0.5277388E-004  0.8261779E+02  0.7546771E-02  0.1441234E+00
         -1   -1    0    0    0  501 -0.00000000000E+00  0.00000000000E+00  0.37909254913E+02  0.37909254913E+02  0.00000000000E+00 0.  1.
          1   -1    0    0  503    0  0.00000000000E+00 -0.00000000000E+00 -0.16333269106E+04  0.16333269106E+04  0.00000000000E+00 0. -1.
         25    2    1    2    0    0 -0.59846070800E+02  0.31477381164E+00 -0.59803832098E+03  0.61388614224E+03  0.12499884399E+03 0.  0.
          4    1    3    3  502    0  0.46373565644E+01 -0.25911747273E+02 -0.24011519654E+02  0.35652344926E+02  0.12700000000E+01 0. -1.
         -4    1    3    3    0  502 -0.64483427365E+02  0.26226521084E+02 -0.57402680133E+03  0.57823379731E+03  0.12700000000E+01 0. -1.
          2    1    1    2  503    0  0.87026121222E+02  0.15001569090E+02 -0.10167823567E+04  0.10206100890E+04  0.00000000000E+00 0. -1.
         -2    1    1    2    0  501 -0.27180050421E+02 -0.15316342901E+02  0.19403022066E+02  0.36739934214E+02  0.00000000000E+00 0.  1.
<mgrwt>
<rscale>  0 0.50769577E+02</rscale>
<asrwt>0</asrwt>
<pdfrwt beam="2">  1        1 0.25128107E+00 0.82617790E+02</pdfrwt>
<pdfrwt beam="1">  1       -1 0.58321930E-02 0.31198486E+02</pdfrwt>
<totfact> 0.75295019E+02</totfact>
</mgrwt>
</event>
<event>
 7    1  0.5277388E-004  0.1578239E+03  0.7546771E-02  0.1342242E+00
          2   -1    0    0  503    0  0.00000000000E+00  0.00000000000E+00  0.16357279105E+04  0.16357279105E+04  0.00000000000E+00 0. -1.
          1   -1    0    0  502    0 -0.00000000000E+00 -0.00000000000E+00 -0.34522637813E+03  0.34522637813E+03  0.00000000000E+00 0. -1.
         25    2    1    2    0    0  0.11839658555E+03  0.49900380272E+02 -0.16259031563E+03  0.24201262118E+03  0.12500679441E+03 0.  0.
          4    1    3    3  501    0  0.13404674884E+03  0.65030258522E+02 -0.16214296382E+03  0.22020313126E+03  0.12700000000E+01 0.  1.
         -4    1    3    3    0  501 -0.15650163292E+02 -0.15129878250E+02 -0.44735181255E+00  0.21809489920E+02  0.12700000000E+01 0.  1.
          2    1    1    2  502    0  0.17402601040E+02  0.31680125081E+02 -0.13663796211E+03  0.14133794090E+03  0.00000000000E+00 0. -1.
          3    1    1    2  503    0 -0.13579918659E+03 -0.81580505353E+02  0.15897298101E+04  0.15976037265E+04  0.00000000000E+00 0. -1.
<mgrwt>
<rscale>  0 0.75528718E+02</rscale>
<asrwt>0</asrwt>
<pdfrwt beam="1">  1        2 0.25165044E+00 0.15782388E+03</pdfrwt>
<pdfrwt beam="2">  1        1 0.53111751E-01 0.36145274E+02</pdfrwt>
<totfact> 0.12263170E+02</totfact>
</mgrwt>
</event>
<event>
 7    1  0.5277388E-004  0.1506632E+03  0.7546771E-02  0.1219940E+00
         -1   -1    0    0    0  501 -0.00000000000E+00  0.00000000000E+00  0.42244698191E+03  0.42244698191E+03  0.00000000000E+00 0.  1.
          1   -1    0    0  503    0  0.00000000000E+00 -0.00000000000E+00 -0.50272798434E+03  0.50272798434E+03  0.00000000000E+00 0. -1.
         25    2    1    2    0    0  0.51184160414E+02 -0.42185403408E+01  0.19641654823E+02  0.13655471212E+03  0.12499512166E+03 0.  0.
          4    1    3    3  502    0  0.70027884497E+01 -0.56145259234E+02 -0.17065839157E+02  0.59111631230E+02  0.12700000000E+01 0. -1.
         -4    1    3    3    0  502  0.44181371965E+02  0.51926718893E+02  0.36707493980E+02  0.77443080891E+02  0.12700000000E+01 0. -1.
          2    1    1    2  503    0 -0.17250298358E+03  0.34505263949E+01 -0.41583729162E+03  0.45021088234E+03  0.00000000000E+00 0. -1.
         -2    1    1    2    0  501  0.12131882317E+03  0.76801394588E+00  0.31591463438E+03  0.33840937179E+03  0.00000000000E+00 0.  1.
<mgrwt>
<rscale>  0 0.13519853E+03</rscale>
<asrwt>0</asrwt>
<pdfrwt beam="2">  1        1 0.77342767E-01 0.15066315E+03</pdfrwt>
<pdfrwt beam="1">  1       -1 0.64991843E-01 0.12132125E+03</pdfrwt>
<totfact> 0.11632018E+02</totfact>
</mgrwt>
</event>
<event>
 7    1  0.5277388E-004  0.1219492E+03  0.7546771E-02  0.1314849E+00
         -2   -1    0    0    0  501 -0.00000000000E+00  0.00000000000E+00  0.19183097449E+03  0.19183097449E+03  0.00000000000E+00 0.  1.
          2   -1    0    0  503    0  0.00000000000E+00 -0.00000000000E+00 -0.11090443273E+04  0.11090443273E+04  0.00000000000E+00 0. -1.
         25    2    1    2    0    0  0.10593429173E+03  0.99115533225E+02 -0.99409238516E+02  0.21577015793E+03  0.12501440421E+03 0.  0.
          4    1    3    3  502    0  0.88717072415E+02 -0.14981423696E+01 -0.37170820851E+02  0.96209387230E+02  0.12700000000E+01 0.  1.
         -4    1    3    3    0  502  0.17217219317E+02  0.10061367559E+03 -0.62238417665E+02  0.11956077070E+03  0.12700000000E+01 0.  1.
          1    1    1    2  503    0 -0.47657025572E+02 -0.11140072727E+03 -0.94073529890E+03  0.94850630821E+03  0.00000000000E+00 0. -1.
         -1    1    1    2    0  501 -0.58277266159E+02  0.12285194049E+02  0.12293118462E+03  0.13659883563E+03  0.00000000000E+00 0.  1.
<mgrwt>
<rscale>  0 0.85223582E+02</rscale>
<asrwt>0</asrwt>
<pdfrwt beam="2">  1        2 0.17062221E+00 0.12194916E+03</pdfrwt>
<pdfrwt beam="1">  1       -2 0.29512457E-01 0.59558087E+02</pdfrwt>
<totfact> 0.24326942E+02</totfact>
</mgrwt>
</event>
<event>
 7    1  0.5277388E-004  0.1695162E+03  0.7546771E-02  0.1300327E+00
         -2   -1    0    0    0  501 -0.00000000000E+00  0.00000000000E+00  0.69448706306E+03  0.69448706306E+03  0.00000000000E+00 0.  1.
          2   -1    0    0  503    0  0.00000000000E+00 -0.00000000000E+00 -0.15098766474E+04  0.15098766474E+04  0.00000000000E+00 0. -1.
         25    2    1    2    0    0  0.12466477256E+03  0.15424779143E+03 -0.33274853141E+03  0.40703830393E+03  0.12499963612E+03 0.  0.
          4    1    3    3  502    0 -0.18074410790E+02  0.48835727379E+02 -0.44302604929E+02  0.68380891319E+02  0.12700000000E+01 0.  1.
         -4    1    3    3    0  502  0.14273918335E+03  0.10541206406E+03 -0.28844592648E+03  0.33865741261E+03  0.12700000000E+01 0.  1.
          1    1    1    2  503    0 -0.48782351917E+02 -0.34665149106E+01 -0.11286084513E+04  0.11296675489E+04  0.00000000000E+00 0. -1.
         -1    1    1    2    0  501 -0.75882420639E+02 -0.15078127652E+03  0.64596739839E+03  0.66765785766E+03  0.00000000000E+00 0.  1.
<mgrwt>
<rscale>  0 0.91050814E+02</rscale>
<asrwt>0</asrwt>
<pdfrwt beam="2">  1        2 0.23228871E+00 0.48905364E+02</pdfrwt>
<pdfrwt beam="1">  1       -2 0.10684416E+00 0.16951619E+03</pdfrwt>
<totfact> 0.11752111E+01</totfact>
</mgrwt>
</event>
<event>
 7    1  0.5277388E-004  0.5849107E+02  0.7546771E-02  0.1411375E+00
          2   -1    0    0  503    0  0.00000000000E+00  0.00000000000E+00  0.21002598724E+04  0.21002598724E+04  0.00000000000E+00 0. -1.
          1   -1    0    0  502    0 -0.00000000000E+00 -0.00000000000E+00 -0.76220825848E+02  0.76220825848E+02  0.00000000000E+00 0. -1.
         25    2    1    2    0    0 -0.29760631399E+02  0.28532520115E+02  0.15749556363E+04  0.15804462129E+04  0.12500070268E+03 0.  0.
          4    1    3    3  501    0  0.22724285044E+02 -0.17431142949E+02  0.11018174182E+04  0.11021903074E+04  0.12700000000E+01 0. -1.
         -4    1    3    3    0  501 -0.52484916443E+02  0.45963663064E+02  0.47313821813E+03  0.47825590548E+03  0.12700000000E+01 0. -1.
          2    1    1    2  502    0  0.27121290261E+02  0.51823171849E+02 -0.58144524817E+02  0.82474185611E+02  0.00000000000E+00 0. -1.
          1    1    1    2  503    0  0.26393411378E+01 -0.80355691964E+02  0.50722793508E+03  0.51356029975E+03  0.00000000000E+00 0. -1.
<mgrwt>
<rscale>  0 0.56888225E+02</rscale>
<asrwt>0</asrwt>
<pdfrwt beam="1">  1        2 0.32311686E+00 0.55329301E+02</pdfrwt>
<pdfrwt beam="2">  1        1 0.11726283E-01 0.58491072E+02</pdfrwt>
<totfact> 0.50903248E+02</totfact>
</mgrwt>
</event>
<event>
 7    1  0.5277388E-004  0.1928335E+03  0.7546771E-02  0.1325240E+00
          1   -1    0    0  502    0 -0.00000000000E+00  0.00000000000E+00  0.76818135117E+03  0.76818135117E+03  0.00000000000E+00 0. -1.
          2   -1    0    0  503    0  0.00000000000E+00 -0.00000000000E+00 -0.33917268140E+03  0.33917268140E+03  0.00000000000E+00 0. -1.
         25    2    1    2    0    0 -0.92526766915E+02  0.17286007715E+03  0.12298234745E+02  0.23286811894E+03  0.12503801571E+03 0.  0.
          4    1    3    3  501    0 -0.32673461199E+02  0.33832345086E+02  0.58061156466E+02  0.74732144563E+02  0.12700000000E+01 0. -1.
         -4    1    3    3    0  501 -0.59853305715E+02  0.13902773206E+03 -0.45762921721E+02  0.15813597438E+03  0.12700000000E+01 0. -1.
          2    1    1    2  502    0 -0.26632703391E+02 -0.21655652036E+02  0.60454474552E+03  0.60551846999E+03  0.00000000000E+00 0. -1.
          1    1    1    2  503    0  0.11915947031E+03 -0.15120442512E+03 -0.18783431050E+03  0.26896744364E+03  0.00000000000E+00 0. -1.
<mgrwt>
<rscale>  0 0.81358387E+02</rscale>
<asrwt>0</asrwt>
<pdfrwt beam="2">  1        2 0.52180413E-01 0.19283355E+03</pdfrwt>
<pdfrwt beam="1">  1        1 0.11818175E+00 0.34325911E+02</pdfrwt>
<totfact> 0.35327171E+02</totfact>
</mgrwt>
</event>
<event>
 7    1  0.5277388E-004  0.5551200E+02  0.7546771E-02  0.1420902E+00
         -1   -1    0    0    0  501 -0.00000000000E+00  0.00000000000E+00  0.13497734164E+03  0.13497734164E+03  0.00000000000E+00 0.  1.
          1   -1    0    0  503    0  0.00000000000E+00 -0.00000000000E+00 -0.62336342142E+03  0.62336342142E+03  0.00000000000E+00 0. -1.
         25    2    1    2    0    0  0.38159302486E+01  0.68461497323E+02  0.11717629435E+02  0.14305243071E+03  0.12500062861E+03 0.  0.
          4    1    3    3  502    0 -0.81880220254E+01  0.61707288125E+01  0.61526508706E+02  0.62387865585E+02  0.12700000000E+01 0.  1.
         -4    1    3    3    0  502  0.12003952274E+02  0.62290768510E+02 -0.49808879270E+02  0.80664565120E+02  0.12700000000E+01 0.  1.
          2    1    1    2  503    0 -0.45444838188E+02 -0.29458525054E+02 -0.54188117905E+03  0.54458080229E+03  0.00000000000E+00 0. -1.
         -2    1    1    2    0  501  0.41628907939E+02 -0.39002972268E+02  0.41777469835E+02  0.70707530064E+02  0.00000000000E+00 0.  1.
<mgrwt>
<rscale>  0 0.54830584E+02</rscale>
<asrwt>0</asrwt>
<pdfrwt beam="2">  1        1 0.95902066E-01 0.54157530E+02</pdfrwt>
<pdfrwt beam="1">  1       -1 0.20765745E-01 0.55512003E+02</pdfrwt>
<totfact> 0.63758729E+02</totfact>
</mgrwt>
</event>
<event>
 7    1  0.5277388E-004  0.1840472E+03  0.7546771E-02  0.1377105E+00
          1   -1    0    0  502    0 -0.00000000000E+00  0.00000000000E+00  0.37818221604E+04  0.37818221604E+04  0.00000000000E+00 0. -1.
          2   -1    0    0  503    0  0.00000000000E+00 -0.00000000000E+00 -0.56661142422E+03  0.56661142422E+03  0.00000000000E+00 0. -1.
         25    2    1    2    0    0  0.57189935694E+02 -0.15363727023E+03 -0.10562717457E+03  0.23163361096E+03  0.12498772009E+03 0.  0.
          4    1    3    3  501    0  0.23749912010E+02  0.52637799039E+01 -0.57214109990E+02  0.62183864317E+02  0.12700000000E+01 0.  1.
         -4    1    3    3    0  501  0.33440023684E+02 -0.15890105013E+03 -0.48413064575E+02  0.16944974665E+03  0.12700000000E+01 0.  1.
          2    1    1    2  502    0 -0.53347260140E+02  0.17643523987E+03  0.37161970177E+04  0.37207654587E+04  0.00000000000E+00 0. -1.
          1    1    1    2  503    0 -0.38426755538E+01 -0.22797969643E+02 -0.39535910698E+03  0.39603451497E+03  0.00000000000E+00 0. -1.
<mgrwt>
<rscale>  0 0.65231044E+02</rscale>
<asrwt>0</asrwt>
<pdfrwt beam="2">  1        2 0.87170991E-01 0.23119550E+02</pdfrwt>
<pdfrwt beam="1">  1        1 0.58181878E+00 0.18404723E+03</pdfrwt>
<totfact> 0.15822302E+00</totfact>
</mgrwt>
</event>
<event>
 7    1  0.5277388E-004  0.8156972E+02  0.7546771E-02  0.1377119E+00
          1   -1    0    0  503    0  0.00000000000E+00  0.00000000000E+00  0.39068676152E+03  0.39068676152E+03  0.00000000000E+00 0. -1.
         -1   -1    0    0    0  501 -0.00000000000E+00 -0.00000000000E+00 -0.35373527380E+03  0.35373527380E+03  0.00000000000E+00 0.  1.
         25    2    1    2    0    0 -0.13377719790E+02  0.12646213444E+03  0.24724372401E+02  0.18000739238E+03  0.12497892577E+03 0.  0.
          4    1    3    3  502    0 -0.56105311362E+02  0.43876920176E+02  0.45757419092E+02  0.84666075787E+02  0.12700000000E+01 0. -1.
         -4    1    3    3    0  502  0.42727591572E+02  0.82585214260E+02 -0.21033046691E+02  0.95341316590E+02  0.12700000000E+01 0. -1.
          2    1    1    2  503    0  0.21129553616E+02 -0.47687580593E+02  0.28019087863E+03  0.28500437163E+03  0.00000000000E+00 0. -1.
         -2    1    1    2    0  501 -0.77518338262E+01 -0.78774553843E+02 -0.26796376332E+03  0.27941027131E+03  0.00000000000E+00 0.  1.
<mgrwt>
<rscale>  0 0.65227269E+02</rscale>
<asrwt>0</asrwt>
<pdfrwt beam="1">  1        1 0.60105656E-01 0.52159020E+02</pdfrwt>
<pdfrwt beam="2">  1       -1 0.54420811E-01 0.81569720E+02</pdfrwt>
<totfact> 0.22845496E+02</totfact>
</mgrwt>
</event>
<event>
 7    1  0.5277388E-004  0.1040995E+03  0.7546771E-02  0.1391969E+00
         -1   -1    0    0    0  501 -0.00000000000E+00  0.00000000000E+00  0.12965363461E+03  0.12965363461E+03  0.00000000000E+00 0.  1.
          1   -1    0    0  503    0  0.00000000000E+00 -0.00000000000E+00 -0.19763474655E+04  0.19763474655E+04  0.00000000000E+00 0. -1.
         25    2    1    2    0    0 -0.11446670387E+03 -0.31655714576E+02 -0.98319036991E+03  0.99819359982E+03  0.12498979433E+03 0.  0.
          4    1    3    3  502    0 -0.13380572749E+03 -0.16903392912E+01 -0.84171779438E+03  0.85228943923E+03  0.12700000000E+01 0.  1.
         -4    1    3    3    0  502  0.19339023615E+02 -0.29965375285E+02 -0.14147257553E+03  0.14590416059E+03  0.12700000000E+01 0.  1.
          2    1    1    2  503    0  0.85154401255E+02  0.52962727976E+02 -0.98035257271E+03  0.98546815749E+03  0.00000000000E+00 0. -1.
         -2    1    1    2    0  501  0.29312302619E+02 -0.21307013400E+02  0.11684911169E+03  0.12233934284E+03  0.00000000000E+00 0.  1.
<mgrwt>
<rscale>  0 0.61419594E+02</rscale>
<asrwt>0</asrwt>
<pdfrwt beam="2">  1        1 0.30405343E+00 0.10409946E+03</pdfrwt>
<pdfrwt beam="1">  1       -1 0.19946715E-01 0.36238100E+02</pdfrwt>
<totfact> 0.73885763E+01</totfact>
</mgrwt>
</event>
<event>
 7    1  0.5277388E-004  0.1152604E+03  0.7546771E-02  0.1349215E+00
          2   -1    0    0  503    0  0.00000000000E+00  0.00000000000E+00  0.10146649822E+04  0.10146649822E+04  0.00000000000E+00 0. -1.
          1   -1    0    0  502    0 -0.00000000000E+00 -0.00000000000E+00 -0.14712731279E+04  0.14712731279E+04  0.00000000000E+00 0. -1.
         25    2    1    2    0    0  0.43736763556E+02  0.10388812530E+03  0.40609379957E+02  0.17314606332E+03  0.12499916174E+03 0.  0.
          4    1    3    3  501    0 -0.15842137424E+01  0.11535285451E+03  0.49502041446E+02  0.12554224701E+03  0.12700000000E+01 0.  1.
         -4    1    3    3    0  501  0.45320977299E+02 -0.11464729204E+02 -0.88926614883E+01  0.47603816311E+02  0.12700000000E+01 0.  1.
          2    1    1    2  502    0  0.40065540637E+02 -0.23829332075E+02 -0.14009163463E+04  0.14016917257E+04  0.00000000000E+00 0. -1.
          1    1    1    2  503    0 -0.83802304193E+02 -0.80058793228E+02  0.90369882070E+03  0.91110032109E+03  0.00000000000E+00 0. -1.
<mgrwt>
<rscale>  0 0.73300870E+02</rscale>
<asrwt>0</asrwt>
<pdfrwt beam="1">  1        2 0.15610231E+00 0.11526035E+03</pdfrwt>
<pdfrwt beam="2">  1        1 0.22634971E+00 0.46616356E+02</pdfrwt>
<totfact> 0.32600148E+01</totfact>
</mgrwt>
</event>
<event>
 7    1  0.5277388E-004  0.9915502E+02  0.7546771E-02  0.1338147E+00
          1   -1    0    0  502    0 -0.00000000000E+00  0.00000000000E+00  0.16610056345E+03  0.16610056345E+03  0.00000000000E+00 0. -1.
          2   -1    0    0  503    0  0.00000000000E+00 -0.00000000000E+00 -0.15899718137E+04  0.15899718137E+04  0.00000000000E+00 0. -1.
         25    2    1    2    0    0  0.51061448205E+02  0.14582693283E+03 -0.93045179964E+03  0.95144436319E+03  0.12503223173E+03 0.  0.
          4    1    3    3  501    0  0.51442488332E+02  0.69939976646E+01 -0.39007069776E+03  0.39351239848E+03  0.12700000000E+01 0. -1.
         -4    1    3    3    0  501 -0.38104012742E+00  0.13883293517E+03 -0.54038110188E+03  0.55793196471E+03  0.12700000000E+01 0. -1.
          2    1    1    2  502    0 -0.17240116858E+02 -0.96742109190E+02  0.13854654966E+03  0.16985700969E+03  0.00000000000E+00 0. -1.
          3    1    1    2  503    0 -0.33821331347E+02 -0.49084823644E+02 -0.63196600031E+03  0.63477100431E+03  0.00000000000E+00 0. -1.
<mgrwt>
<rscale>  0 0.76879818E+02</rscale>
<asrwt>0</asrwt>
<pdfrwt beam="2">  1        2 0.24461104E+00 0.59608744E+02</pdfrwt>
<pdfrwt beam="1">  1        1 0.25553934E-01 0.99155023E+02</pdfrwt>
<totfact> 0.34492072E+02</totfact>
</mgrwt>
</event>
<event>
 7    1  0.5277388E-004  0.9073722E+02  0.7546771E-02  0.1372378E+00
          2   -1    0    0  503    0  0.00000000000E+00  0.00000000000E+00  0.12570538155E+04  0.12570538155E+04  0.00000000000E+00 0. -1.
          1   -1    0    0  502    0 -0.00000000000E+00 -0.00000000000E+00 -0.20139785638E+03  0.20139785638E+03  0.00000000000E+00 0. -1.
         25    2    1    2    0    0  0.11580152157E+03  0.24919510110E+01  0.76336382642E+03  0.78215823980E+03  0.12502391122E+03 0.  0.
          4    1    3    3  501    0  0.11804776836E+03  0.12476099854E+02  0.76263633780E+03  0.77182039706E+03  0.12700000000E+01 0. -1.
         -4    1    3    3    0  501 -0.22462467956E+01 -0.99841488432E+01  0.72748862071E+00  0.10337842738E+02  0.12700000000E+01 0. -1.
          2    1    1    2  502    0 -0.37688805084E+02 -0.30924803574E+02 -0.18525645606E+03  0.19156394237E+03  0.00000000000E+00 0. -1.
          1    1    1    2  503    0 -0.78112716483E+02  0.28432852563E+02  0.47754858871E+03  0.48472948968E+03  0.00000000000E+00 0. -1.
<mgrwt>
<rscale>  0 0.66510532E+02</rscale>
<asrwt>0</asrwt>
<pdfrwt beam="1">  1        2 0.19339289E+00 0.90737223E+02</pdfrwt>
<pdfrwt beam="2">  1        1 0.30984287E-01 0.48752328E+02</pdfrwt>
<totfact> 0.38401810E+02</totfact>
</mgrwt>
</event>
<event>
 7    1  0.5277388E-004  0.1235531E+03  0.7546771E-02  0.1274134E+00
         -2   -1    0    0    0  501 -0.00000000000E+00  0.00000000000E+00  0.17603886285E+03  0.17603886285E+03  0.00000000000E+00 0.  1.
          2   -1    0    0  503    0  0.00000000000E+00 -0.00000000000E+00 -0.16759202063E+04  0.16759202063E+04  0.00000000000E+00 0. -1.
         25    2    1    2    0    0 -0.12162969439E+03 -0.11749192764E+02 -0.12413862955E+04  0.12536341768E+04  0.12500755396E+03 0.  0.
          4    1    3    3  502    0 -0.44783858702E+02  0.11118005678E+02 -0.95827912839E+03  0.95939027766E+03  0.12700000000E+01 0. -1.
         -4    1    3    3    0  502 -0.76845835685E+02 -0.22867198441E+02 -0.28310716713E+03  0.29424389918E+03  0.12700000000E+01 0. -1.
          1    1    1    2  503    0  0.12415611123E+03 -0.74060864274E+02 -0.40416398585E+03  0.42924151597E+03  0.00000000000E+00 0. -1.
         -1    1    1    2    0  501 -0.25264168408E+01  0.85810057038E+02  0.14566893794E+03  0.16908337633E+03  0.00000000000E+00 0.  1.
<mgrwt>
<rscale>  0 0.10298880E+03</rscale>
<asrwt>0</asrwt>
<pdfrwt beam="2">  1        2 0.25783389E+00 0.12355310E+03</pdfrwt>
<pdfrwt beam="1">  1       -2 0.27082901E-01 0.85847240E+02</pdfrwt>
<totfact> 0.14280102E+02</totfact>
</mgrwt>
</event>
<event>
 7    1  0.5277388E-004  0.4619587E+02  0.7546771E-02  0.1538137E+00
          2   -1    0    0  503    0  0.00000000000E+00  0.00000000000E+00  0.16291591177E+04  0.16291591177E+04  0.00000000000E+00 0. -1.
         -2   -1    0    0    0  501 -0.00000000000E+00 -0.00000000000E+00 -0.57116369329E+02  0.57116369329E+02  0.00000000000E+00 0.  1.
         25    2    1    2    0    0  0.48352046376E+02 -0.14369467699E+02  0.36672634724E+03  0.39071384290E+03  0.12499876514E+03 0.  0.
          4    1    3    3  502    0  0.21121982857E+02 -0.47418470371E+02  0.33066181440E+03  0.33471405393E+03  0.12700000000E+01 0. -1.
         -4    1    3    3    0  502  0.27230063518E+02  0.33049002672E+02  0.36064532836E+02  0.55999788977E+02  0.12700000000E+01 0. -1.
          1    1    1    2  503    0 -0.41053912106E+01  0.28079303743E+02  0.12383451794E+04  0.12386702890E+04  0.00000000000E+00 0. -1.
         -1    1    1    2    0  501 -0.44246655165E+02 -0.13709836043E+02 -0.33028778241E+02  0.56891355140E+02  0.00000000000E+00 0.  1.
<mgrwt>
<rscale>  0 0.36206888E+02</rscale>
<asrwt>0</asrwt>
<pdfrwt beam="1">  1        2 0.25063983E+00 0.28377835E+02</pdfrwt>
<pdfrwt beam="2">  1       -2 0.87871350E-02 0.46195867E+02</pdfrwt>
<totfact> 0.10285149E+03</totfact>
</mgrwt>
</event>
<event>
 7    1  0.5277388E-004  0.6763280E+02  0.7546771E-02  0.1387885E+00
          2   -1    0    0  503    0  0.00000000000E+00  0.00000000000E+00  0.55608011701E+03  0.55608011701E+03  0.00000000000E+00 0. -1.
         -2   -1    0    0    0  501 -0.00000000000E+00 -0.00000000000E+00 -0.12991010045E+03  0.12991010045E+03  0.00000000000E+00 0.  1.
         25    2    1    2    0    0 -0.21036283600E+02  0.45995772451E+01  0.12021583262E+03  0.17475932782E+03  0.12500117964E+03 0.  0.
          4    1    3    3  502    0 -0.65429573912E+02  0.12751403895E+02  0.10974096026E+03  0.12840684835E+03  0.12700000000E+01 0.  1.
         -4    1    3    3    0  502  0.44393290312E+02 -0.81518266503E+01  0.10474872355E+02  0.46352479473E+02  0.12700000000E+01 0.  1.
          1    1    1    2  503    0 -0.22029413970E+02  0.53262329956E+02  0.39355650016E+03  0.39775481102E+03  0.00000000000E+00 0. -1.
         -1    1    1    2    0  501  0.43065697570E+02 -0.57861907201E+02 -0.87602316212E+02  0.11347607861E+03  0.00000000000E+00 0.  1.
<mgrwt>
<rscale>  0 0.62435871E+02</rscale>
<asrwt>0</asrwt>
<pdfrwt beam="1">  1        2 0.85550786E-01 0.57638276E+02</pdfrwt>
<pdfrwt beam="2">  1       -2 0.19986170E-01 0.67632799E+02</pdfrwt>
<totfact> 0.11404418E+03</totfact>
</mgrwt>
</event>
<event>
 7    1  0.5277388E-004  0.2129203E+03  0.7546771E-02  0.1288459E+00
          1   -1    0    0  502    0 -0.00000000000E+00  0.00000000000E+00  0.18790260862E+04  0.18790260862E+04  0.00000000000E+00 0. -1.
          2   -1    0    0  503    0  0.00000000000E+00 -0.00000000000E+00 -0.20074149256E+03  0.20074149256E+03  0.00000000000E+00 0. -1.
         25    2    1    2    0    0 -0.15148686606E+03  0.97247786030E+02  0.26470910842E+03  0.34366092765E+03  0.12500607439E+03 0.  0.
          4    1    3    3  501    0 -0.13746021470E+03  0.78739948591E+02  0.12436809172E+03  0.20140587198E+03  0.12700000000E+01 0.  1.
         -4    1    3    3    0  501 -0.14026651359E+02  0.18507837439E+02  0.14034101670E+03  0.14225505566E+03  0.12700000000E+01 0.  1.
          2    1    1    2  502    0 -0.42520616061E+02  0.90801314260E+01  0.14985014348E+04  0.14991320828E+04  0.00000000000E+00 0. -1.
          1    1    1    2  503    0  0.19400748212E+03 -0.10632791746E+03 -0.84925949536E+02  0.23697456837E+03  0.00000000000E+00 0. -1.
<mgrwt>
<rscale>  0 0.96216578E+02</rscale>
<asrwt>0</asrwt>
<pdfrwt beam="2">  1        2 0.30883308E-01 0.21292028E+03</pdfrwt>
<pdfrwt beam="1">  1        1 0.28908092E+00 0.43479324E+02</pdfrwt>
<totfact> 0.11541905E+02</totfact>
</mgrwt>
</event>
<event>
 7    1  0.5277388E-004  0.1244491E+03  0.7546771E-02  0.1375730E+00
          2   -1    0    0  503    0  0.00000000000E+00  0.00000000000E+00  0.17904139767E+04  0.17904139767E+04  0.00000000000E+00 0. -1.
          1   -1    0    0  502    0 -0.00000000000E+00 -0.00000000000E+00 -0.98955834353E+02  0.98955834353E+02  0.00000000000E+00 0. -1.
         25    2    1    2    0    0 -0.55558489255E+02  0.14625356677E+03  0.67024493161E+03  0.69952154501E+03  0.12500108829E+03 0.  0.
          4    1    3    3  501    0  0.30909265698E+02  0.78804990234E+02  0.37829695919E+03  0.38765424211E+03  0.12700000000E+01 0. -1.
         -4    1    3    3    0  501 -0.86467754954E+02  0.67448576534E+02  0.29194797241E+03  0.31186730290E+03  0.12700000000E+01 0. -1.
          2    1    1    2  502    0  0.38556540082E+02 -0.11614319772E+03 -0.39483781881E+02  0.12858778399E+03  0.00000000000E+00 0. -1.
          1    1    1    2  503    0  0.17001949174E+02 -0.30110369045E+02  0.10606969926E+04  0.10612604821E+04  0.00000000000E+00 0. -1.
<mgrwt>
<rscale>  0 0.65599643E+02</rscale>
<asrwt>0</asrwt>
<pdfrwt beam="1">  1        2 0.27544828E+00 0.34578904E+02</pdfrwt>
<pdfrwt beam="2">  1        1 0.15223976E-01 0.12444909E+03</pdfrwt>
<totfact> 0.56493835E+02</totfact>
</mgrwt>
</event>
<event>
 7    1  0.5277388E-004  0.8877238E+02  0.7546771E-02  0.1365699E+00
         -2   -1    0    0    0  501 -0.00000000000E+00  0.00000000000E+00  0.11194519288E+03  0.11194519288E+03  0.00000000000E+00 0.  1.
          2   -1    0    0  503    0  0.00000000000E+00 -0.00000000000E+00 -0.22933913034E+04  0.22933913034E+04  0.00000000000E+00 0. -1.
         25    2    1    2    0    0 -0.96617070217E+00 -0.67907013742E+02 -0.44359265727E+03  0.46584458964E+03  0.12499776045E+03 0.  0.
          4    1    3    3  502    0  0.47546519269E+02 -0.33918462744E+02 -0.89830463878E+02  0.10715530202E+03  0.12700000000E+01 0.  1.
         -4    1    3    3    0  502 -0.48512689971E+02 -0.33988550998E+02 -0.35376219339E+03  0.35868928763E+03  0.12700000000E+01 0.  1.
          1    1    1    2  503    0 -0.52445406245E+02 -0.48380155786E+01 -0.18180184872E+04  0.18187812256E+04  0.00000000000E+00 0. -1.
         -1    1    1    2    0  501  0.53411576947E+02  0.72745029321E+02  0.80165033922E+02  0.12071068100E+03  0.00000000000E+00 0.  1.
<mgrwt>
<rscale>  0 0.68377416E+02</rscale>
<asrwt>0</asrwt>
<pdfrwt beam="2">  1        2 0.35282943E+00 0.52668084E+02</pdfrwt>
<pdfrwt beam="1">  1       -2 0.17222337E-01 0.88772377E+02</pdfrwt>
<totfact> 0.16583139E+02</totfact>
</mgrwt>
</event>
<event>
 7    1  0.5277388E-004  0.2969884E+02  0.7546771E-02  0.1619007E+00
         -2   -1    0    0    0  501  0.00000000000E+00  0.00000000000E+00  0.13614835018E+03  0.13614835018E+03  0.00000000000E+00 0.  1.
         -1   -1    0    0    0  502 -0.00000000000E+00 -0.00000000000E+00 -0.56039114670E+03  0.56039114670E+03  0.00000000000E+00 0.  1.
         25    2    1    2    0    0 -0.18221505700E+02 -0.29766528289E+02 -0.90209839081E+02  0.15805468005E+03  0.12500158936E+03 0.  0.
          4    1    3    3  503    0 -0.59057458496E+02 -0.55596686323E+02 -0.61891378200E+02  0.10203396753E+03  0.12700000000E+01 0.  1.
         -4    1    3    3    0  503  0.40835952797E+02  0.25830158034E+02 -0.28318460882E+02  0.56020712523E+02  0.12700000000E+01 0.  1.
         -2    1    1    2    0  502 -0.11089772340E+02  0.24350849799E+02 -0.43366491317E+03  0.43448959003E+03  0.00000000000E+00 0.  1.
         -1    1    1    2    0  501  0.29311278039E+02  0.54156784900E+01  0.99631955726E+02  0.10399522679E+03  0.00000000000E+00 0.  1.
<mgrwt>
<rscale>  0 0.28189668E+02</rscale>
<asrwt>0</asrwt>
<pdfrwt beam="1">  1       -2 0.20945900E-01 0.29698841E+02</pdfrwt>
<pdfrwt beam="2">  1       -1 0.86214023E-01 0.26757185E+02</pdfrwt>
<totfact> 0.19888838E+02</totfact>
</mgrwt>
</event>
<event>
 7    1  0.5277388E-004  0.7325442E+02  0.7546771E-02  0.1410330E+00
          1   -1    0    0  502    0 -0.00000000000E+00  0.00000000000E+00  0.50880737788E+02  0.50880737788E+02  0.00000000000E+00 0. -1.
          2   -1    0    0  503    0  0.00000000000E+00 -0.00000000000E+00 -0.30308708339E+04  0.30308708339E+04  0.00000000000E+00 0. -1.
         25    2    1    2    0    0  0.11017679822E+03 -0.20009591496E+02 -0.10691932401E+04  0.10822838425E+04  0.12499928164E+03 0.  0.
          4    1    3    3  501    0  0.96368280077E+02 -0.37753297073E+02 -0.41535387049E+03  0.42805678067E+03  0.12700000000E+01 0. -1.
         -4    1    3    3    0  501  0.13808518138E+02  0.17743705577E+02 -0.65383936963E+03  0.65422706184E+03  0.12700000000E+01 0. -1.
          2    1    1    2  502    0 -0.40517609863E+02  0.18495614684E+02  0.32365152258E+02  0.55056948265E+02  0.00000000000E+00 0. -1.
          1    1    1    2  503    0 -0.69659188352E+02  0.15139768120E+01 -0.19431620083E+04  0.19444107810E+04  0.00000000000E+00 0. -1.
<mgrwt>
<rscale>  0 0.57120163E+02</rscale>
<asrwt>0</asrwt>
<pdfrwt beam="2">  1        2 0.46628797E+00 0.73254417E+02</pdfrwt>
<pdfrwt beam="1">  1        1 0.78278033E-02 0.44539471E+02</pdfrwt>
<totfact> 0.26171847E+02</totfact>
</mgrwt>
</event>
<event>
 7    1  0.5277388E-004  0.1034550E+03  0.7546771E-02  0.1424464E+00
          2   -1    0    0  503    0  0.00000000000E+00  0.00000000000E+00  0.66239752023E+02  0.66239752023E+02  0.00000000000E+00 0. -1.
          1   -1    0    0  502    0 -0.00000000000E+00 -0.00000000000E+00 -0.29714240758E+04  0.29714240758E+04  0.00000000000E+00 0. -1.
         25    2    1    2    0    0  0.48830476781E+02  0.63767970710E+02 -0.14617801646E+04  0.14693114693E+04  0.12499669863E+03 0.  0.
          4    1    3    3  501    0  0.74349488819E+02  0.50621599312E+02 -0.13741350536E+04  0.13770763055E+04  0.12700000000E+01 0. -1.
         -4    1    3    3    0  501 -0.25519012038E+02  0.13146371398E+02 -0.87645111066E+02  0.92235163848E+02  0.12700000000E+01 0. -1.
          2    1    1    2  502    0 -0.46481704542E-01  0.28277667828E+02 -0.14622192162E+04  0.14624926205E+04  0.00000000000E+00 0. -1.
          1    1    1    2  503    0 -0.48783995077E+02 -0.92045638537E+02  0.18815057113E+02  0.10585973797E+03  0.00000000000E+00 0. -1.
<mgrwt>
<rscale>  0 0.54087618E+02</rscale>
<asrwt>0</asrwt>
<pdfrwt beam="1">  1        2 0.10190733E-01 0.10345501E+03</pdfrwt>
<pdfrwt beam="2">  1        1 0.45714207E+00 0.28277706E+02</pdfrwt>
<totfact> 0.90842269E+01</totfact>
</mgrwt>
</event>
<event>
 7    1  0.5277388E-004  0.1169629E+03  0.7546771E-02  0.1251801E+00
          2   -1    0    0  503    0  0.00000000000E+00  0.00000000000E+00  0.24321638496E+04  0.24321638496E+04  0.00000000000E+00 0. -1.
          1   -1    0    0  502    0 -0.00000000000E+00 -0.00000000000E+00 -0.25409795340E+04  0.25409795340E+04  0.00000000000E+00 0. -1.
         25    2    1    2    0    0  0.34213255833E+02 -0.39965712810E+02  0.37105096507E+03  0.39506028390E+03  0.12500401659E+03 0.  0.
          4    1    3    3  501    0  0.13548711926E+02 -0.35599394956E+02  0.37193534158E+03  0.37388286366E+03  0.12700000000E+01 0. -1.
         -4    1    3    3    0  501  0.20664543906E+02 -0.43663178539E+01 -0.88437651758E+00  0.21177420246E+02  0.12700000000E+01 0. -1.
          2    1    1    2  502    0 -0.89566106844E+02 -0.75221290976E+02 -0.25256275592E+04  0.25283344118E+04  0.00000000000E+00 0. -1.
          1    1    1    2  503    0  0.55352851011E+02  0.11518700379E+03  0.20457609097E+04  0.20497486879E+04  0.00000000000E+00 0. -1.
<mgrwt>
<rscale>  0 0.11487413E+03</rscale>
<asrwt>0</asrwt>
<pdfrwt beam="1">  1        2 0.37417905E+00 0.11282263E+03</pdfrwt>
<pdfrwt beam="2">  1        1 0.39091993E+00 0.11696294E+03</pdfrwt>
<totfact> 0.11259658E+00</totfact>
</mgrwt>
</event>
<event>
 7    1  0.5277388E-004  0.1020826E+03  0.7546771E-02  0.1349755E+00
          2   -1    0    0  503    0  0.00000000000E+00  0.00000000000E+00  0.17423524395E+04  0.17423524395E+04  0.00000000000E+00 0. -1.
          1   -1    0    0  502    0 -0.00000000000E+00 -0.00000000000E+00 -0.33246318969E+02  0.33246318969E+02  0.00000000000E+00 0. -1.
         25    2    1    2    0    0  0.32598353085E+02  0.79484102556E+02  0.57215795469E+03  0.59192102163E+03  0.12500158220E+03 0.  0.
          4    1    3    3  501    0  0.17409273969E+02  0.55493658382E+01  0.39719102022E+01  0.18742125066E+02  0.12700000000E+01 0. -1.
         -4    1    3    3    0  501  0.15189079116E+02  0.73934736718E+02  0.56818604449E+03  0.57317889656E+03  0.12700000000E+01 0. -1.
          2    1    1    2  502    0 -0.83647941881E+02 -0.67701184538E+02  0.10483551141E+03  0.15023619079E+03  0.00000000000E+00 0. -1.
          1    1    1    2  503    0  0.51049588796E+02 -0.11782918018E+02  0.10321126544E+04  0.10334415460E+04  0.00000000000E+00 0. -1.
<mgrwt>
<rscale>  0 0.73131976E+02</rscale>
<asrwt>0</asrwt>
<pdfrwt beam="1">  1        2 0.26805415E+00 0.52391771E+02</pdfrwt>
<pdfrwt beam="2">  1        1 0.51148197E-02 0.10208256E+03</pdfrwt>
<totfact> 0.23895677E+03</totfact>
</mgrwt>
</event>
<event>
 7    1  0.5277388E-004  0.6764390E+02  0.7546771E-02  0.1411068E+00
          1   -1    0    0  502    0 -0.00000000000E+00  0.00000000000E+00  0.10796777759E+04  0.10796777759E+04  0.00000000000E+00 0. -1.
          2   -1    0    0  503    0  0.00000000000E+00 -0.00000000000E+00 -0.55210285541E+02  0.55210285541E+02  0.00000000000E+00 0. -1.
         25    2    1    2    0    0  0.27134593562E+02  0.23828263992E+02  0.23208692510E+03  0.26606985372E+03  0.12499901570E+03 0.  0.
          4    1    3    3  501    0  0.60141493362E+02  0.40710456275E+00  0.21294911767E+03  0.22128286101E+03  0.12700000000E+01 0. -1.
         -4    1    3    3    0  501 -0.33006899801E+02  0.23421159429E+02  0.19137807428E+02  0.44786992717E+02  0.12700000000E+01 0. -1.
          2    1    1    2  502    0  0.45390469173E+02 -0.15479207790E+02  0.79434146569E+03  0.79578782643E+03  0.00000000000E+00 0. -1.
          1    1    1    2  503    0 -0.72525062735E+02 -0.83490562019E+01 -0.19609004144E+01  0.73030381312E+02  0.00000000000E+00 0. -1.
<mgrwt>
<rscale>  0 0.56956274E+02</rscale>
<asrwt>0</asrwt>
<pdfrwt beam="2">  1        2 0.84938908E-02 0.67643895E+02</pdfrwt>
<pdfrwt beam="1">  1        1 0.16610426E+00 0.47957279E+02</pdfrwt>
<totfact> 0.15370541E+03</totfact>
</mgrwt>
</event>
<event>
 7    1  0.5277388E-004  0.1897228E+03  0.7546771E-02  0.1196997E+00
          1   -1    0    0  503    0  0.00000000000E+00  0.00000000000E+00  0.17429470924E+04  0.17429470924E+04  0.00000000000E+00 0. -1.
         -1   -1    0    0    0  501 -0.00000000000E+00 -0.00000000000E+00 -0.53954205493E+03  0.53954205493E+03  0.00000000000E+00 0.  1.
         25    2    1    2    0    0 -0.11783315027E+03  0.28262665215E+03  0.44592132851E+03  0.55518778162E+03  0.12500066333E+03 0.  0.
          4    1    3    3  502    0 -0.99368647578E+02  0.25528595196E+03  0.30290194038E+03  0.40840695853E+03  0.12700000000E+01 0. -1.
         -4    1    3    3    0  502 -0.18464502688E+02  0.27340700190E+02  0.14301938813E+03  0.14678082309E+03  0.12700000000E+01 0. -1.
          2    1    1    2  503    0  0.64793784655E+02 -0.10474615562E+03  0.12214177428E+04  0.12276120292E+04  0.00000000000E+00 0. -1.
         -2    1    1    2    0  501  0.53039365611E+02 -0.17788049653E+03 -0.46393403383E+03  0.49968933658E+03  0.00000000000E+00 0.  1.
<mgrwt>
<rscale>  0 0.15286431E+03</rscale>
<asrwt>0</asrwt>
<pdfrwt beam="1">  1        1 0.26814570E+00 0.12316652E+03</pdfrwt>
<pdfrwt beam="2">  1       -1 0.83006471E-01 0.18972279E+03</pdfrwt>
<totfact> 0.83623768E+00</totfact>
</mgrwt>
</event>
<event>
 7    1  0.5277388E-004  0.1170186E+03  0.7546771E-02  0.1276193E+00
          2   -1    0    0  503    0  0.00000000000E+00  0.00000000000E+00  0.18757960266E+04  0.18757960266E+04  0.00000000000E+00 0. -1.
          1   -1    0    0  502    0 -0.00000000000E+00 -0.00000000000E+00 -0.23797624886E+04  0.23797624886E+04  0.00000000000E+00 0. -1.
         25    2    1    2    0    0 -0.55880746833E+02 -0.14453522186E+03  0.23511900404E+03  0.30808868579E+03  0.12499841609E+03 0.  0.
          4    1    3    3  501    0 -0.84067373654E+02 -0.12295383564E+03  0.13200478287E+03  0.19902724590E+03  0.12700000000E+01 0.  1.
         -4    1    3    3    0  501  0.28186626821E+02 -0.21581386225E+02  0.10311422117E+03  0.10906143989E+03  0.12700000000E+01 0.  1.
          2    1    1    2  502    0  0.96800944799E+02  0.65648241557E+02 -0.23405854743E+04  0.23435060224E+04  0.00000000000E+00 0. -1.
          1    1    1    2  503    0 -0.40920197966E+02  0.78886980306E+02  0.16015000082E+04  0.16039638071E+04  0.00000000000E+00 0. -1.
<mgrwt>
<rscale>  0 0.10197685E+03</rscale>
<asrwt>0</asrwt>
<pdfrwt beam="1">  1        2 0.28858400E+00 0.88868545E+02</pdfrwt>
<pdfrwt beam="2">  1        1 0.36611731E+00 0.11701865E+03</pdfrwt>
<totfact> 0.28310528E+00</totfact>
</mgrwt>
</event>
<event>
 7    1  0.5277388E-004  0.1148191E+03  0.7546771E-02  0.1293699E+00
          2   -1    0    0  503    0  0.00000000000E+00  0.00000000000E+00  0.62876174789E+03  0.62876174789E+03  0.00000000000E+00 0. -1.
         -2   -1    0    0    0  501 -0.00000000000E+00 -0.00000000000E+00 -0.19837632163E+03  0.19837632163E+03  0.00000000000E+00 0.  1.
         25    2    1    2    0    0  0.13429142962E+02  0.16071642740E+03  0.68937898667E+02  0.21538301592E+03  0.12500919070E+03 0.  0.
          4    1    3    3  502    0  0.12997830217E+02  0.17326936454E+03  0.32439515749E+02  0.17676298075E+03  0.12700000000E+01 0.  1.
         -4    1    3    3    0  502  0.43131274517E+00 -0.12552937142E+02  0.36498382918E+02  0.38620035179E+02  0.12700000000E+01 0.  1.
          1    1    1    2  503    0 -0.56014150559E+02 -0.96836101503E+02  0.46757389219E+03  0.48077038207E+03  0.00000000000E+00 0. -1.
         -1    1    1    2    0  501  0.42585007597E+02 -0.63880325900E+02 -0.10612636460E+03  0.13098467152E+03  0.00000000000E+00 0.  1.
<mgrwt>
<rscale>  0 0.93888606E+02</rscale>
<asrwt>0</asrwt>
<pdfrwt beam="1">  1        2 0.96732576E-01 0.11481910E+03</pdfrwt>
<pdfrwt beam="2">  1       -2 0.30519434E-01 0.76773556E+02</pdfrwt>
<totfact> 0.47573145E+02</totfact>
</mgrwt>
</event>
<event>
 7    1  0.5277388E-004  0.1075941E+03  0.7546771E-02  0.1393832E+00
         -3   -1    0    0    0  501 -0.00000000000E+00  0.00000000000E+00  0.34922635780E+02  0.34922635780E+02  0.00000000000E+00 0.  1.
          3   -1    0    0  503    0  0.00000000000E+00 -0.00000000000E+00 -0.11184589220E+04  0.11184589220E+04  0.00000000000E+00 0. -1.
         25    2    1    2    0    0 -0.89692887660E+02  0.82950133023E+02 -0.89793119222E+03  0.91478419066E+03  0.12499660343E+03 0.  0.
          4    1    3    3  502    0 -0.39268352134E+02  0.35796179259E+02 -0.94742706457E+02  0.10863315910E+03  0.12700000000E+01 0.  1.
         -4    1    3    3    0  502 -0.50424535526E+02  0.47153953764E+02 -0.80318848576E+03  0.80615103157E+03  0.12700000000E+01 0.  1.
          2    1    1    2  503    0 -0.46224430621E+01 -0.34231761966E+02 -0.87421250953E+02  0.93998168202E+02  0.00000000000E+00 0. -1.
         -2    1    1    2    0  501  0.94315330722E+02 -0.48718371057E+02 -0.98183843024E+02  0.14459919889E+03  0.00000000000E+00 0.  1.
<mgrwt>
<rscale>  0 0.60963610E+02</rscale>
<asrwt>0</asrwt>
<pdfrwt beam="2">  1        3 0.17207062E+00 0.34542445E+02</pdfrwt>
<pdfrwt beam="1">  1       -3 0.53727126E-02 0.10759405E+03</pdfrwt>
<totfact> 0.11415520E+02</totfact>
</mgrwt>
</event>
<event>
 7    1  0.5277388E-004  0.4554206E+02  0.7546771E-02  0.1493553E+00
          1   -1    0    0  502    0 -0.00000000000E+00  0.00000000000E+00  0.16744259624E+03  0.16744259624E+03  0.00000000000E+00 0. -1.
          2   -1    0    0  503    0  0.00000000000E+00 -0.00000000000E+00 -0.14770770473E+04  0.14770770473E+04  0.00000000000E+00 0. -1.
         25    2    1    2    0    0 -0.10156140134E+02 -0.48809827027E+01 -0.55064383161E+03  0.56476638124E+03  0.12500185965E+03 0.  0.
          4    1    3    3  501    0 -0.14587440447E+02  0.16374967012E+02 -0.54018655025E+03  0.54063301318E+03  0.12700000000E+01 0.  1.
         -4    1    3    3    0  501  0.44313003129E+01 -0.21255949715E+02 -0.10457281358E+02  0.24133368065E+02  0.12700000000E+01 0.  1.
          2    1    1    2  502    0 -0.38624352882E+02  0.41860910631E+01  0.15737013674E+03  0.16209479921E+03  0.00000000000E+00 0. -1.
          1    1    1    2  503    0  0.48780493016E+02  0.69489163961E+00 -0.91636075617E+03  0.91765846306E+03  0.00000000000E+00 0. -1.
<mgrwt>
<rscale>  0 0.42063446E+02</rscale>
<asrwt>0</asrwt>
<pdfrwt beam="2">  1        2 0.22724262E+00 0.45542063E+02</pdfrwt>
<pdfrwt beam="1">  1        1 0.25760399E-01 0.38850534E+02</pdfrwt>
<totfact> 0.38697830E+02</totfact>
</mgrwt>
</event>
<event>
 7    1  0.5277388E-004  0.9978457E+02  0.7546771E-02  0.1306951E+00
         -2   -1    0    0    0  501 -0.00000000000E+00  0.00000000000E+00  0.57748201862E+02  0.57748201862E+02  0.00000000000E+00 0.  1.
          2   -1    0    0  503    0  0.00000000000E+00 -0.00000000000E+00 -0.21163313710E+04  0.21163313710E+04  0.00000000000E+00 0. -1.
         25    2    1    2    0    0 -0.63206450095E+02  0.15437601645E+03 -0.13963816008E+04  0.14118546147E+04  0.12499947242E+03 0.  0.
          4    1    3    3  502    0  0.32183790633E+02  0.10312443287E+02 -0.16699927374E+03  0.17038929894E+03  0.12700000000E+01 0.  1.
         -4    1    3    3    0  502 -0.95390240728E+02  0.14406357316E+03 -0.12293823271E+04  0.12414653157E+04  0.12700000000E+01 0.  1.
          1    1    1    2  503    0  0.53243818548E+02 -0.57257518476E+02 -0.65995548754E+03  0.66457096925E+03  0.00000000000E+00 0. -1.
         -1    1    1    2    0  501  0.99626315464E+01 -0.97118497970E+02 -0.22460807798E+01  0.97653988931E+02  0.00000000000E+00 0.  1.
<mgrwt>
<rscale>  0 0.88328553E+02</rscale>
<asrwt>0</asrwt>
<pdfrwt beam="2">  1        2 0.32558939E+00 0.78187772E+02</pdfrwt>
<pdfrwt beam="1">  1       -2 0.88843402E-02 0.99784570E+02</pdfrwt>
<totfact> 0.55773424E+02</totfact>
</mgrwt>
</event>
<event>
 7    1  0.5277388E-004  0.1102059E+03  0.7546771E-02  0.1293252E+00
          2   -1    0    0  503    0  0.00000000000E+00  0.00000000000E+00  0.34486283059E+04  0.34486283059E+04  0.00000000000E+00 0. -1.
          1   -1    0    0  502    0 -0.00000000000E+00 -0.00000000000E+00 -0.12606488953E+04  0.12606488953E+04  0.00000000000E+00 0. -1.
         25    2    1    2    0    0 -0.18305724538E+02  0.34345064111E+02 -0.12827718990E+03  0.18328735846E+03  0.12499814136E+03 0.  0.
          4    1    3    3  501    0 -0.31580842176E+02  0.41202837343E+02 -0.14895331667E+03  0.15774576649E+03  0.12700000000E+01 0.  1.
         -4    1    3    3    0  501  0.13275117637E+02 -0.68577732322E+01  0.20676126773E+02  0.25541591969E+02  0.12700000000E+01 0.  1.
          2    1    1    2  502    0  0.38326998313E+02 -0.11213067889E+03 -0.11012160197E+04  0.11075734603E+04  0.00000000000E+00 0. -1.
          3    1    1    2  503    0 -0.20021273775E+02  0.77785614777E+02  0.34174726202E+04  0.34184163823E+04  0.00000000000E+00 0. -1.
<mgrwt>
<rscale>  0 0.94084214E+02</rscale>
<asrwt>0</asrwt>
<pdfrwt beam="1">  1        2 0.53055820E+00 0.80320939E+02</pdfrwt>
<pdfrwt beam="2">  1        1 0.19394598E+00 0.11020588E+03</pdfrwt>
<totfact> 0.20920221E+00</totfact>
</mgrwt>
</event>
<event>
 7    1  0.5277388E-004  0.1392727E+03  0.7546771E-02  0.1373102E+00
          1   -1    0    0  502    0 -0.00000000000E+00  0.00000000000E+00  0.40676180879E+03  0.40676180879E+03  0.00000000000E+00 0. -1.
          2   -1    0    0  503    0  0.00000000000E+00 -0.00000000000E+00 -0.17335732419E+03  0.17335732419E+03  0.00000000000E+00 0. -1.
         25    2    1    2    0    0  0.21223175891E+02 -0.14298867868E+03 -0.59673451534E+02  0.20020811552E+03  0.12500473301E+03 0.  0.
          4    1    3    3  501    0  0.55702269491E+01 -0.16031387372E+03 -0.31300031764E+02  0.16344072449E+03  0.12700000000E+01 0. -1.
         -4    1    3    3    0  501  0.15652948942E+02  0.17325195034E+02 -0.28373419769E+02  0.36767391027E+02  0.12700000000E+01 0. -1.
          2    1    1    2  502    0  0.25740093245E+02  0.18284608007E+02  0.23057474076E+03  0.23272642817E+03  0.00000000000E+00 0. -1.
          1    1    1    2  503    0 -0.46963269136E+02  0.12470407068E+03  0.62503195369E+02  0.14718458928E+03  0.00000000000E+00 0. -1.
<mgrwt>
<rscale>  0 0.66312222E+02</rscale>
<asrwt>0</asrwt>
<pdfrwt beam="2">  1        2 0.26670358E-01 0.13927266E+03</pdfrwt>
<pdfrwt beam="1">  1        1 0.62578739E-01 0.31573395E+02</pdfrwt>
<totfact> 0.16276269E+03</totfact>
</mgrwt>
</event>
<event>
 7    1  0.5277388E-004  0.1305878E+03  0.7546771E-02  0.1347536E+00
          2   -1    0    0  503    0  0.00000000000E+00  0.00000000000E+00  0.44701285196E+03  0.44701285196E+03  0.00000000000E+00 0. -1.
          1   -1    0    0  502    0 -0.00000000000E+00 -0.00000000000E+00 -0.81870955127E+03  0.81870955127E+03  0.00000000000E+00 0. -1.
         25    2    1    2    0    0  0.24582594582E+01  0.13120252085E+03  0.14693176242E+03  0.23331155835E+03  0.12500078375E+03 0.  0.
          4    1    3    3  501    0 -0.53493093193E+02  0.87898727350E+02  0.11877603431E+03  0.15715297171E+03  0.12700000000E+01 0. -1.
         -4    1    3    3    0  501  0.55951352652E+02  0.43303793497E+02  0.28155728108E+02  0.76158586647E+02  0.12700000000E+01 0. -1.
          2    1    1    2  502    0 -0.41454798324E+02 -0.48710721979E+01 -0.75789583498E+03  0.75904434938E+03  0.00000000000E+00 0. -1.
          1    1    1    2  503    0  0.38996538866E+02 -0.12633144865E+03  0.23926737324E+03  0.27336649549E+03  0.00000000000E+00 0. -1.
<mgrwt>
<rscale>  0 0.73829094E+02</rscale>
<asrwt>0</asrwt>
<pdfrwt beam="1">  1        2 0.68771209E-01 0.13058781E+03</pdfrwt>
<pdfrwt beam="2">  1        1 0.12595531E+00 0.41740001E+02</pdfrwt>
<totfact> 0.23802745E+02</totfact>
</mgrwt>
</event>
<event>
 7    1  0.5277388E-004  0.1306501E+03  0.7546771E-02  0.1326521E+00
         -1   -1    0    0    0  501 -0.00000000000E+00  0.00000000000E+00  0.38631824574E+03  0.38631824574E+03  0.00000000000E+00 0.  1.
          1   -1    0    0  503    0  0.00000000000E+00 -0.00000000000E+00 -0.45256521878E+03  0.45256521878E+03  0.00000000000E+00 0. -1.
         25    2    1    2    0    0 -0.62891351501E+02  0.13586018219E+03  0.21383589794E+02  0.19620930335E+03  0.12501008603E+03 0.  0.
          4    1    3    3  502    0 -0.14439568273E+02  0.82494219856E+02  0.70082819723E+02  0.10921086009E+03  0.12700000000E+01 0.  1.
         -4    1    3    3    0  502 -0.48451783228E+02  0.53365962333E+02 -0.48699229929E+02  0.86998443258E+02  0.12700000000E+01 0.  1.
          2    1    1    2  503    0  0.13312144678E+02 -0.12870941484E+03 -0.35125615356E+03  0.37433168725E+03  0.00000000000E+00 0. -1.
         -2    1    1    2    0  501  0.49579206823E+02 -0.71507673464E+01  0.26362559072E+03  0.26834247392E+03  0.00000000000E+00 0.  1.
<mgrwt>
<rscale>  0 0.80898423E+02</rscale>
<asrwt>0</asrwt>
<pdfrwt beam="2">  1        1 0.69625418E-01 0.13065011E+03</pdfrwt>
<pdfrwt beam="1">  1       -1 0.59433577E-01 0.50092227E+02</pdfrwt>
<totfact> 0.16044011E+02</totfact>
</mgrwt>
</event>
<event>
 7    1  0.5277388E-004  0.4523118E+02  0.7546771E-02  0.1542376E+00
          2   -1    0    0  503    0  0.00000000000E+00  0.00000000000E+00  0.56226820268E+03  0.56226820268E+03  0.00000000000E+00 0. -1.
         -2   -1    0    0    0  501 -0.00000000000E+00 -0.00000000000E+00 -0.28343460736E+03  0.28343460736E+03  0.00000000000E+00 0.  1.
         25    2    1    2    0    0 -0.11840586391E+02  0.13328497050E+02  0.44555244467E+02  0.13389481084E+03  0.12499920896E+03 0.  0.
          4    1    3    3  502    0 -0.43574895654E+02  0.51631877723E+02  0.71311081753E+00  0.67577686817E+02  0.12700000000E+01 0. -1.
         -4    1    3    3    0  502  0.31734309263E+02 -0.38303380674E+02  0.43842133650E+02  0.66317124021E+02  0.12700000000E+01 0. -1.
          1    1    1    2  503    0  0.27467055174E+02 -0.36796495741E+02  0.47109066688E+03  0.47332318520E+03  0.00000000000E+00 0. -1.
         -1    1    1    2    0  501 -0.15626468783E+02  0.23467998691E+02 -0.23681231603E+03  0.23848481401E+03  0.00000000000E+00 0.  1.
<mgrwt>
<rscale>  0 0.35710969E+02</rscale>
<asrwt>0</asrwt>
<pdfrwt beam="1">  1        2 0.86502800E-01 0.45231176E+02</pdfrwt>
<pdfrwt beam="2">  1       -2 0.43605324E-01 0.28194565E+02</pdfrwt>
<totfact> 0.28064014E+02</totfact>
</mgrwt>
</event>
<event>
 7    1  0.5277388E-004  0.1172465E+03  0.7546771E-02  0.1361408E+00
          1   -1    0    0  502    0 -0.00000000000E+00  0.00000000000E+00  0.29714664187E+03  0.29714664187E+03  0.00000000000E+00 0. -1.
          2   -1    0    0  503    0  0.00000000000E+00 -0.00000000000E+00 -0.69408738930E+03  0.69408738930E+03  0.00000000000E+00 0. -1.
         25    2    1    2    0    0  0.11937815123E+03  0.89948498929E+02 -0.71680846848E+02  0.20761577648E+03  0.12499716552E+03 0.  0.
          4    1    3    3  501    0  0.55911078549E+02 -0.25441739099E+01 -0.77126311515E+02  0.95302688069E+02  0.12700000000E+01 0.  1.
         -4    1    3    3    0  501  0.63467072684E+02  0.92492672839E+02  0.54454646670E+01  0.11231308842E+03  0.12700000000E+01 0.  1.
          2    1    1    2  502    0 -0.10116829690E+03 -0.52842392507E+02  0.21412841497E+03  0.24264855417E+03  0.00000000000E+00 0. -1.
          1    1    1    2  503    0 -0.18209854331E+02 -0.37106106422E+02 -0.53938831555E+03  0.54096970052E+03  0.00000000000E+00 0. -1.
<mgrwt>
<rscale>  0 0.69614741E+02</rscale>
<asrwt>0</asrwt>
<pdfrwt beam="2">  1        2 0.10678267E+00 0.41333545E+02</pdfrwt>
<pdfrwt beam="1">  1        1 0.45714868E-01 0.11724647E+03</pdfrwt>
<totfact> 0.54260803E+02</totfact>
</mgrwt>
</event>
<event>
 7    1  0.5277388E-004  0.1408994E+03  0.7546771E-02  0.1311877E+00
          2   -1    0    0  503    0  0.00000000000E+00  0.00000000000E+00  0.42041839523E+03  0.42041839523E+03  0.00000000000E+00 0. -1.
          1   -1    0    0  502    0 -0.00000000000E+00 -0.00000000000E+00 -0.26146780764E+04  0.26146780764E+04  0.00000000000E+00 0. -1.
         25    2    1    2    0    0 -0.75175350424E+01 -0.93147401491E+02 -0.66351201854E+03  0.68162035564E+03  0.12500063497E+03 0.  0.
          4    1    3    3  501    0 -0.62865987145E+02 -0.73160083287E+02 -0.44353361579E+03  0.45390330618E+03  0.12700000000E+01 0. -1.
         -4    1    3    3    0  501  0.55348452102E+02 -0.19987318203E+02 -0.21997840274E+03  0.22771704945E+03  0.12700000000E+01 0. -1.
          2    1    1    2  502    0 -0.30096692833E+02 -0.43564231082E+02 -0.19295194723E+04  0.19302458515E+04  0.00000000000E+00 0. -1.
          1    1    1    2  503    0  0.37614227875E+02  0.13671163257E+03  0.39877180967E+03  0.42323026452E+03  0.00000000000E+00 0. -1.
<mgrwt>
<rscale>  0 0.86374522E+02</rscale>
<asrwt>0</asrwt>
<pdfrwt beam="1">  1        2 0.64679751E-01 0.14089941E+03</pdfrwt>
<pdfrwt beam="2">  1        1 0.40225818E+00 0.52949534E+02</pdfrwt>
<totfact> 0.17711988E+01</totfact>
</mgrwt>
</event>
<event>
 7    1  0.5277388E-004  0.5956518E+02  0.7546771E-02  0.1455799E+00
          2   -1    0    0  503    0  0.00000000000E+00  0.00000000000E+00  0.28503518771E+03  0.28503518771E+03  0.00000000000E+00 0. -1.
         -2   -1    0    0    0  501 -0.00000000000E+00 -0.00000000000E+00 -0.19462286074E+03  0.19462286074E+03  0.00000000000E+00 0.  1.
         25    2    1    2    0    0 -0.46342213849E+02  0.63507598496E+02  0.21182022593E+03  0.25821114606E+03  0.12499748791E+03 0.  0.
          4    1    3    3  502    0 -0.71576909583E+02  0.62037393591E+01  0.16515595062E+03  0.18011063626E+03  0.12700000000E+01 0. -1.
         -4    1    3    3    0  502  0.25234695734E+02  0.57303859137E+02  0.46664275306E+02  0.78100509797E+02  0.12700000000E+01 0. -1.
          1    1    1    2  503    0  0.38578797034E+02 -0.46760169035E+01  0.36155517161E+02  0.53079281606E+02  0.00000000000E+00 0. -1.
         -3    1    1    2    0  501  0.77634168151E+01 -0.58831581592E+02 -0.15756341612E+03  0.16836762079E+03  0.00000000000E+00 0.  1.
<mgrwt>
<rscale>  0 0.48112068E+02</rscale>
<asrwt>0</asrwt>
<pdfrwt beam="1">  1        2 0.43851567E-01 0.38861147E+02</pdfrwt>
<pdfrwt beam="2">  1       -2 0.29941979E-01 0.59565177E+02</pdfrwt>
<totfact> 0.11330390E+03</totfact>
</mgrwt>
</event>
<event>
 7    1  0.5277388E-004  0.6026841E+02  0.7546771E-02  0.1406545E+00
          2   -1    0    0  503    0  0.00000000000E+00  0.00000000000E+00  0.19658370405E+04  0.19658370405E+04  0.00000000000E+00 0. -1.
          1   -1    0    0  502    0 -0.00000000000E+00 -0.00000000000E+00 -0.25767556819E+03  0.25767556819E+03  0.00000000000E+00 0. -1.
         25    2    1    2    0    0 -0.43841593022E+02 -0.53322566130E+02  0.18913213089E+03  0.23698346456E+03  0.12499927281E+03 0.  0.
          4    1    3    3  501    0 -0.44493641314E+02  0.11855010388E+02  0.15830239923E+03  0.16486809240E+03  0.12700000000E+01 0. -1.
         -4    1    3    3    0  501  0.65204829180E+00 -0.65177576518E+02  0.30829731654E+02  0.72115372159E+02  0.12700000000E+01 0. -1.
          2    1    1    2  502    0 -0.16773322206E+02  0.53180489183E+02 -0.22989168494E+03  0.23655801735E+03  0.00000000000E+00 0. -1.
          1    1    1    2  503    0  0.60614915228E+02  0.14207694694E+00  0.17489210263E+04  0.17499711268E+04  0.00000000000E+00 0. -1.
<mgrwt>
<rscale>  0 0.57971937E+02</rscale>
<asrwt>0</asrwt>
<pdfrwt beam="1">  1        2 0.30243646E+00 0.60268409E+02</pdfrwt>
<pdfrwt beam="2">  1        1 0.39642396E-01 0.55762970E+02</pdfrwt>
<totfact> 0.13049222E+02</totfact>
</mgrwt>
</event>
<event>
 7    1  0.5277388E-004  0.6723640E+02  0.7546771E-02  0.1508737E+00
         -1   -1    0    0    0  501 -0.00000000000E+00  0.00000000000E+00  0.21000274824E+03  0.21000274824E+03  0.00000000000E+00 0.  1.
          1   -1    0    0  503    0  0.00000000000E+00 -0.00000000000E+00 -0.22740750181E+04  0.22740750181E+04  0.00000000000E+00 0. -1.
         25    2    1    2    0    0 -0.24449057215E+02 -0.87313476477E+02 -0.74697781271E+02  0.17154769516E+03  0.12500981407E+03 0.  0.
          4    1    3    3  502    0  0.32590477619E+02 -0.75375302191E+02 -0.77864108265E+02  0.11317246868E+03  0.12700000000E+01 0. -1.
         -4    1    3    3    0  502 -0.57039534834E+02 -0.11938174286E+02  0.31663269938E+01  0.58375226475E+02  0.12700000000E+01 0. -1.
          2    1    1    2  503    0  0.18941186284E+02  0.64250204127E+02 -0.21495578148E+04  0.21506012313E+04  0.00000000000E+00 0. -1.
         -2    1    1    2    0  501  0.55078709317E+01  0.23063272350E+02  0.16018332620E+03  0.16192883982E+03  0.00000000000E+00 0.  1.
<mgrwt>
<rscale>  0 0.39928668E+02</rscale>
<asrwt>0</asrwt>
<pdfrwt beam="2">  1        1 0.34985768E+00 0.67236401E+02</pdfrwt>
<pdfrwt beam="1">  1       -1 0.32308117E-01 0.23711836E+02</pdfrwt>
<totfact> 0.23411343E+01</totfact>
</mgrwt>
</event>
<event>
 7    1  0.5277388E-004  0.7579062E+02  0.7546771E-02  0.1479060E+00
         -2   -1    0    0    0  501 -0.00000000000E+00  0.00000000000E+00  0.32222891165E+02  0.32222891165E+02  0.00000000000E+00 0.  1.
          2   -1    0    0  503    0  0.00000000000E+00 -0.00000000000E+00 -0.29954126987E+04  0.29954126987E+04  0.00000000000E+00 0. -1.
         25    2    1    2    0    0 -0.88505461422E+02  0.62161048132E+01 -0.92753498987E+03  0.94011511191E+03  0.12499363805E+03 0.  0.
          4    1    3    3  502    0 -0.40981707672E+01  0.19168897317E+02 -0.63661838255E+03  0.63692136055E+03  0.12700000000E+01 0.  1.
         -4    1    3    3    0  502 -0.84407290654E+02 -0.12952792504E+02 -0.29091660732E+03  0.30319375136E+03  0.12700000000E+01 0.  1.
          1    1    1    2  503    0  0.73248814291E+02  0.14637411432E+02 -0.20542996663E+04  0.20556572578E+04  0.00000000000E+00 0. -1.
         -1    1    1    2    0  501  0.15256647131E+02 -0.20853516245E+02  0.18644848595E+02  0.31863220186E+02  0.00000000000E+00 0.  1.
<mgrwt>
<rscale>  0 0.44252968E+02</rscale>
<asrwt>0</asrwt>
<pdfrwt beam="2">  1        2 0.46083267E+00 0.75790617E+02</pdfrwt>
<pdfrwt beam="1">  1       -2 0.49573685E-02 0.25838623E+02</pdfrwt>
<totfact> 0.39859071E+02</totfact>
</mgrwt>
</event>
<event>
 7    1  0.5277388E-004  0.5207273E+02  0.7546771E-02  0.1496958E+00
          1   -1    0    0  502    0 -0.00000000000E+00  0.00000000000E+00  0.67310428801E+03  0.67310428801E+03  0.00000000000E+00 0. -1.
          2   -1    0    0  503    0  0.00000000000E+00 -0.00000000000E+00 -0.79779030775E+03  0.79779030775E+03  0.00000000000E+00 0. -1.
         25    2    1    2    0    0 -0.18629279950E+02  0.55352486393E+02 -0.71508423606E+02  0.15539800283E+03  0.12499654722E+03 0.  0.
          4    1    3    3  501    0 -0.55115315401E+02 -0.16348851564E+02 -0.29223051611E+02  0.64502578125E+02  0.12700000000E+01 0. -1.
         -4    1    3    3    0  501  0.36486035452E+02  0.71701337957E+02 -0.42285371995E+02  0.90895424706E+02  0.12700000000E+01 0. -1.
          2    1    1    2  502    0  0.41591620463E+02 -0.31391433338E+02  0.62968030230E+03  0.63183270577E+03  0.00000000000E+00 0. -1.
          1    1    1    2  503    0 -0.22962340513E+02 -0.23961053055E+02 -0.68285789843E+03  0.68366388715E+03  0.00000000000E+00 0. -1.
<mgrwt>
<rscale>  0 0.41571105E+02</rscale>
<asrwt>0</asrwt>
<pdfrwt beam="2">  1        2 0.12273697E+00 0.33187364E+02</pdfrwt>
<pdfrwt beam="1">  1        1 0.10355451E+00 0.52072734E+02</pdfrwt>
<totfact> 0.16812142E+02</totfact>
</mgrwt>
</event>
<event>
 7    1  0.6833195E-004  0.1307988E+03  0.7546771E-02  0.1355777E+00
          2   -1    0    0  503    0  0.00000000000E+00  0.00000000000E+00  0.26021732968E+04  0.26021732968E+04  0.00000000000E+00 0. -1.
          1   -1    0    0  502    0 -0.00000000000E+00 -0.00000000000E+00 -0.66716033241E+03  0.66716033241E+03  0.00000000000E+00 0. -1.
         25    2    1    2    0    0  0.13860884368E+03  0.10220530840E+02 -0.44167249349E+02  0.19207536626E+03  0.12500131844E+03 0.  0.
          4    1    3    3  501    0 -0.32964092334E+00  0.43134937931E+02 -0.18700704089E+02  0.47032550079E+02  0.12700000000E+01 0. -1.
         -4    1    3    3    0  501  0.13893848461E+03 -0.32914407091E+02 -0.25466545260E+02  0.14504281618E+03  0.12700000000E+01 0. -1.
          2    1    1    2  502    0 -0.10694607586E+02 -0.37349273822E+02 -0.54665845646E+03  0.54803723496E+03  0.00000000000E+00 0. -1.
          1    1    1    2  503    0 -0.12791423610E+03  0.27128742982E+02  0.25258386702E+04  0.25292210280E+04  0.00000000000E+00 0. -1.
<mgrwt>
<rscale>  0 0.71285126E+02</rscale>
<asrwt>0</asrwt>
<pdfrwt beam="1">  1        2 0.40033435E+00 0.13079884E+03</pdfrwt>
<pdfrwt beam="2">  1        1 0.10264005E+00 0.38850262E+02</pdfrwt>
<totfact> 0.17384795E+01</totfact>
</mgrwt>
</event>
<event>
 7    1  0.5277388E-004  0.1200387E+03  0.7546771E-02  0.1259018E+00
          2   -1    0    0  503    0  0.00000000000E+00  0.00000000000E+00  0.20455736205E+04  0.20455736205E+04  0.00000000000E+00 0. -1.
          1   -1    0    0  502    0 -0.00000000000E+00 -0.00000000000E+00 -0.68055878292E+03  0.68055878292E+03  0.00000000000E+00 0. -1.
         25    2    1    2    0    0  0.86978098552E+02  0.16112055519E+03 -0.22068699975E+03  0.31281648399E+03  0.12500551133E+03 0.  0.
          4    1    3    3  501    0 -0.22948861460E+02  0.34389783338E+02 -0.93648037159E+02  0.10237614568E+03  0.12700000000E+01 0. -1.
         -4    1    3    3    0  501  0.10992696001E+03  0.12673077186E+03 -0.12703896260E+03  0.21044033831E+03  0.12700000000E+01 0. -1.
          2    1    1    2  502    0 -0.93556516028E+02 -0.41507707482E+02 -0.40565055260E+03  0.41836357668E+03  0.00000000000E+00 0. -1.
          1    1    1    2  503    0  0.65784174758E+01 -0.11961284771E+03  0.19913523899E+04  0.19949523427E+04  0.00000000000E+00 0. -1.
<mgrwt>
<rscale>  0 0.11084254E+03</rscale>
<asrwt>0</asrwt>
<pdfrwt beam="1">  1        2 0.31470363E+00 0.12003868E+03</pdfrwt>
<pdfrwt beam="2">  1        1 0.10470135E+00 0.10235092E+03</pdfrwt>
<totfact> 0.32159727E+01</totfact>
</mgrwt>
</event>
<event>
 7    1  0.5277388E-004  0.1291745E+03  0.7546771E-02  0.1236755E+00
          1   -1    0    0  503    0  0.00000000000E+00  0.00000000000E+00  0.20308452773E+04  0.20308452773E+04  0.00000000000E+00 0. -1.
         -1   -1    0    0    0  501 -0.00000000000E+00 -0.00000000000E+00 -0.30788628754E+03  0.30788628754E+03  0.00000000000E+00 0.  1.
         25    2    1    2    0    0  0.59254243784E+02 -0.11157352378E+03  0.83639444523E+03  0.85505736154E+03  0.12493080845E+03 0.  0.
          4    1    3    3  502    0 -0.38622898305E+00 -0.12301673077E+02  0.48320843268E+03  0.48336681997E+03  0.12700000000E+01 0.  1.
         -4    1    3    3    0  502  0.59640472768E+02 -0.99271850707E+02  0.35318601254E+03  0.37169054157E+03  0.12700000000E+01 0.  1.
          2    1    1    2  503    0  0.69850103040E+02  0.11583111239E+03  0.11670556185E+04  0.11748679501E+04  0.00000000000E+00 0. -1.
         -2    1    1    2    0  501 -0.12910434682E+03 -0.42575886096E+01 -0.28049107398E+03  0.30880625319E+03  0.00000000000E+00 0.  1.
<mgrwt>
<rscale>  0 0.12392751E+03</rscale>
<asrwt>0</asrwt>
<pdfrwt beam="1">  1        1 0.31243773E+00 0.11889361E+03</pdfrwt>
<pdfrwt beam="2">  1       -1 0.47367122E-01 0.12917453E+03</pdfrwt>
<totfact> 0.16429885E+01</totfact>
</mgrwt>
</event>
<event>
 7    1  0.5277388E-004  0.4973823E+02  0.7546771E-02  0.1515966E+00
          2   -1    0    0  503    0  0.00000000000E+00  0.00000000000E+00  0.15120546488E+03  0.15120546488E+03  0.00000000000E+00 0. -1.
          1   -1    0    0  502    0 -0.00000000000E+00 -0.00000000000E+00 -0.25946113361E+03  0.25946113361E+03  0.00000000000E+00 0. -1.
         25    2    1    2    0    0  0.24879426853E+02  0.16479416191E+02  0.65642279663E+02  0.14430765087E+03  0.12500092873E+03 0.  0.
          4    1    3    3  501    0  0.38365091490E+02 -0.46170394167E+02  0.50474087015E+02  0.78439989180E+02  0.12700000000E+01 0. -1.
         -4    1    3    3    0  501 -0.13485664637E+02  0.62649810359E+02  0.15168192648E+02  0.65867661693E+02  0.12700000000E+01 0. -1.
          2    1    1    2  502    0  0.28814358979E+02  0.10077477315E+02 -0.19905966156E+03  0.20138662243E+03  0.00000000000E+00 0. -1.
          3    1    1    2  503    0 -0.53693785832E+02 -0.26556893506E+02  0.25161713172E+02  0.64972325180E+02  0.00000000000E+00 0. -1.
<mgrwt>
<rscale>  0 0.38965341E+02</rscale>
<asrwt>0</asrwt>
<pdfrwt beam="1">  1        2 0.23262379E-01 0.49738226E+02</pdfrwt>
<pdfrwt beam="2">  1        1 0.39917097E-01 0.30525773E+02</pdfrwt>
<totfact> 0.31011759E+03</totfact>
</mgrwt>
</event>
<event>
 7    1  0.5277388E-004  0.1010054E+03  0.7546771E-02  0.1368397E+00
          1   -1    0    0  503    0  0.00000000000E+00  0.00000000000E+00  0.60789805339E+03  0.60789805339E+03  0.00000000000E+00 0. -1.
         -1   -1    0    0    0  501 -0.00000000000E+00 -0.00000000000E+00 -0.18784629941E+03  0.18784629941E+03  0.00000000000E+00 0.  1.
         25    2    1    2    0    0  0.11369926764E+03 -0.66755422144E+02  0.26288039752E+03  0.31955358475E+03  0.12499832110E+03 0.  0.
          4    1    3    3  502    0  0.11032698932E+03 -0.27384523344E+02  0.98289750093E+02  0.15028121827E+03  0.12700000000E+01 0.  1.
         -4    1    3    3    0  502  0.33722783219E+01 -0.39370898800E+02  0.16459064743E+03  0.16927236648E+03  0.12700000000E+01 0.  1.
          2    1    1    2  503    0 -0.89516979551E+02  0.28494248542E+02  0.30628018237E+03  0.32036348409E+03  0.00000000000E+00 0. -1.
         -2    1    1    2    0  501 -0.24182288090E+02  0.38261173602E+02 -0.14910882591E+03  0.15582728396E+03  0.00000000000E+00 0.  1.
<mgrwt>
<rscale>  0 0.67614834E+02</rscale>
<asrwt>0</asrwt>
<pdfrwt beam="1">  1        1 0.93522777E-01 0.10100543E+03</pdfrwt>
<pdfrwt beam="2">  1       -1 0.28899431E-01 0.45262572E+02</pdfrwt>
<totfact> 0.37829508E+02</totfact>
</mgrwt>
</event>
<event>
 7    1  0.5277388E-004  0.1298535E+03  0.7546771E-02  0.1295672E+00
          2   -1    0    0  503    0  0.00000000000E+00  0.00000000000E+00  0.10513995730E+03  0.10513995730E+03  0.00000000000E+00 0. -1.
          1   -1    0    0  502    0 -0.00000000000E+00 -0.00000000000E+00 -0.16131679746E+04  0.16131679746E+04  0.00000000000E+00 0. -1.
         25    2    1    2    0    0 -0.15073101112E+03  0.90009891758E+01 -0.53345367714E+03  0.56832644319E+03  0.12498505856E+03 0.  0.
          4    1    3    3  501    0 -0.80020439249E+02 -0.23119610252E+02 -0.43508502052E+03  0.44298800780E+03  0.12700000000E+01 0. -1.
         -4    1    3    3    0  501 -0.70710571869E+02  0.32120599428E+02 -0.98368656621E+02  0.12533843539E+03  0.12700000000E+01 0. -1.
          2    1    1    2  502    0  0.11137206661E+03 -0.62790141827E+02 -0.10451305956E+04  0.10529217925E+04  0.00000000000E+00 0. -1.
          1    1    1    2  503    0  0.39358944507E+02  0.53789152651E+02  0.70556255444E+02  0.97059696259E+02  0.00000000000E+00 0. -1.
<mgrwt>
<rscale>  0 0.93031768E+02</rscale>
<asrwt>0</asrwt>
<pdfrwt beam="1">  1        2 0.16175378E-01 0.66651327E+02</pdfrwt>
<pdfrwt beam="2">  1        1 0.24817969E+00 0.12985353E+03</pdfrwt>
<totfact> 0.29569414E+02</totfact>
</mgrwt>
</event>
<event>
 7    1  0.5277388E-004  0.3511892E+02  0.7546771E-02  0.1575501E+00
          1   -1    0    0  502    0 -0.00000000000E+00  0.00000000000E+00  0.49150191901E+03  0.49150191901E+03  0.00000000000E+00 0. -1.
          2   -1    0    0  503    0  0.00000000000E+00 -0.00000000000E+00 -0.15742866137E+04  0.15742866137E+04  0.00000000000E+00 0. -1.
         25    2    1    2    0    0 -0.45334067705E+02  0.33418999801E+02 -0.35943325647E+03  0.38469201380E+03  0.12499468940E+03 0.  0.
          4    1    3    3  501    0  0.97416499379E+01  0.29166746411E+02 -0.30693640157E+03  0.30847555227E+03  0.12700000000E+01 0. -1.
         -4    1    3    3    0  501 -0.55075717643E+02  0.42522533901E+01 -0.52496854898E+02  0.76216461522E+02  0.12700000000E+01 0. -1.
          2    1    1    2  502    0  0.11074812107E+02 -0.27263081032E+02  0.47816819390E+03  0.47907280105E+03  0.00000000000E+00 0. -1.
          1    1    1    2  503    0  0.34259255597E+02 -0.61559187695E+01 -0.12015196321E+04  0.12020237179E+04  0.00000000000E+00 0. -1.
<mgrwt>
<rscale>  0 0.32147034E+02</rscale>
<asrwt>0</asrwt>
<pdfrwt beam="2">  1        2 0.24219794E+00 0.35118921E+02</pdfrwt>
<pdfrwt beam="1">  1        1 0.75615681E-01 0.29426638E+02</pdfrwt>
<totfact> 0.98923778E+01</totfact>
</mgrwt>
</event>
<event>
 7    1  0.7404629E-004  0.1011156E+03  0.7546771E-02  0.1387146E+00
          1   -1    0    0  502    0 -0.00000000000E+00  0.00000000000E+00  0.16887009901E+04  0.16887009901E+04  0.00000000000E+00 0. -1.
          2   -1    0    0  503    0  0.00000000000E+00 -0.00000000000E+00 -0.29076852487E+04  0.29076852487E+04  0.00000000000E+00 0. -1.
         25    2    1    2    0    0  0.23385263546E+02 -0.59376054960E+02  0.83874826903E+03  0.85041381766E+03  0.12503046032E+03 0.  0.
          4    1    3    3  501    0  0.57669939901E+02 -0.22105244052E+02  0.69976552024E+03  0.70248691091E+03  0.12700000000E+01 0. -1.
         -4    1    3    3    0  501 -0.34284676355E+02 -0.37270810909E+02  0.13898274879E+03  0.14792690675E+03  0.12700000000E+01 0. -1.
          2    1    1    2  502    0  0.25618255019E+02 -0.29116959965E+02  0.84279234705E+03  0.84368420194E+03  0.00000000000E+00 0. -1.
          1    1    1    2  503    0 -0.49003518565E+02  0.88493014925E+02 -0.29005248747E+04  0.29022882192E+04  0.00000000000E+00 0. -1.
<mgrwt>
<rscale>  0 0.62622117E+02</rscale>
<asrwt>0</asrwt>
<pdfrwt beam="2">  1        2 0.44733619E+00 0.10111562E+03</pdfrwt>
<pdfrwt beam="1">  1        1 0.25980015E+00 0.38782629E+02</pdfrwt>
<totfact> 0.24961871E+00</totfact>
</mgrwt>
</event>
<event>
 7    1  0.5277388E-004  0.7927399E+02  0.7546771E-02  0.1477433E+00
          1   -1    0    0  503    0  0.00000000000E+00  0.00000000000E+00  0.35745417907E+03  0.35745417907E+03  0.00000000000E+00 0. -1.
         -1   -1    0    0    0  501 -0.00000000000E+00 -0.00000000000E+00 -0.12023653175E+04  0.12023653175E+04  0.00000000000E+00 0.  1.
         25    2    1    2    0    0 -0.53926733349E+02  0.66483314637E+02 -0.86882123351E+03  0.88193141968E+03  0.12499827810E+03 0.  0.
          4    1    3    3  502    0 -0.45738328620E+02 -0.20107452332E+02 -0.15571122231E+03  0.16353562914E+03  0.12700000000E+01 0.  1.
         -4    1    3    3    0  502 -0.81884047288E+01  0.86590766969E+02 -0.71311001120E+03  0.71839579055E+03  0.12700000000E+01 0.  1.
          2    1    1    2  503    0 -0.90214805433E+01 -0.23304209177E+02  0.34598732303E+03  0.34688860023E+03  0.00000000000E+00 0. -1.
         -2    1    1    2    0  501  0.62948213892E+02 -0.43179105460E+02 -0.32207722797E+03  0.33099947667E+03  0.00000000000E+00 0.  1.
<mgrwt>
<rscale>  0 0.44508588E+02</rscale>
<asrwt>0</asrwt>
<pdfrwt beam="1">  1        1 0.54992951E-01 0.24989463E+02</pdfrwt>
<pdfrwt beam="2">  1       -1 0.18497928E+00 0.79273987E+02</pdfrwt>
<totfact> 0.16752220E+01</totfact>
</mgrwt>
</event>
<event>
 7    1  0.5277388E-004  0.1323378E+03  0.7546771E-02  0.1382475E+00
          2   -1    0    0  503    0  0.00000000000E+00  0.00000000000E+00  0.22997092748E+04  0.22997092748E+04  0.00000000000E+00 0. -1.
          1   -1    0    0  502    0 -0.00000000000E+00 -0.00000000000E+00 -0.40919880590E+02  0.40919880590E+02  0.00000000000E+00 0. -1.
         25    2    1    2    0    0 -0.73398620496E+02 -0.82085929383E+02  0.18196141175E+04  0.18272235252E+04  0.12499926920E+03 0.  0.
          4    1    3    3  501    0 -0.59701419755E+02  0.18940456108E+02  0.56121928338E+03  0.56470496486E+03  0.12700000000E+01 0.  1.
         -4    1    3    3    0  501 -0.13697200741E+02 -0.10102638549E+03  0.12583948341E+04  0.12625185604E+04  0.12700000000E+01 0.  1.
          2    1    1    2  502    0  0.10409624603E+03  0.84265526510E+02  0.86594976148E+02  0.15948478702E+03  0.00000000000E+00 0. -1.
          1    1    1    2  503    0 -0.30697625536E+02 -0.21795971279E+01  0.35258030055E+03  0.35392084312E+03  0.00000000000E+00 0. -1.
<mgrwt>
<rscale>  0 0.63817569E+02</rscale>
<asrwt>0</asrwt>
<pdfrwt beam="1">  1        2 0.35380133E+00 0.30774906E+02</pdfrwt>
<pdfrwt beam="2">  1        1 0.62953680E-02 0.13233776E+03</pdfrwt>
<totfact> 0.10574595E+03</totfact>
</mgrwt>
</event>
<event>
 7    1  0.5277388E-004  0.8352034E+02  0.7546771E-02  0.1444874E+00
          2   -1    0    0  503    0  0.00000000000E+00  0.00000000000E+00  0.44975743858E+03  0.44975743858E+03  0.00000000000E+00 0. -1.
         -2   -1    0    0    0  501 -0.00000000000E+00 -0.00000000000E+00 -0.18177625092E+03  0.18177625092E+03  0.00000000000E+00 0.  1.
         25    2    1    2    0    0 -0.66666511496E+00 -0.55271619455E+02  0.17128874842E+03  0.21913476082E+03  0.12499924683E+03 0.  0.
          4    1    3    3  502    0  0.42875712110E+02 -0.75538674856E+02  0.92839731100E+02  0.12714262330E+03  0.12700000000E+01 0.  1.
         -4    1    3    3    0  502 -0.43542377225E+02  0.20267055402E+02  0.78449017317E+02  0.91992137528E+02  0.12700000000E+01 0.  1.
          1    1    1    2  503    0  0.29227645581E+01 -0.29894262011E+02  0.24205406174E+03  0.24391059481E+03  0.00000000000E+00 0. -1.
         -1    1    1    2    0  501 -0.22560994431E+01  0.85165881466E+02 -0.14536162250E+03  0.16848833386E+03  0.00000000000E+00 0.  1.
<mgrwt>
<rscale>  0 0.50086765E+02</rscale>
<asrwt>0</asrwt>
<pdfrwt beam="1">  1        2 0.69193452E-01 0.30036802E+02</pdfrwt>
<pdfrwt beam="2">  1       -2 0.27965577E-01 0.83520344E+02</pdfrwt>
<totfact> 0.81336656E+02</totfact>
</mgrwt>
</event>
<event>
 7    1  0.5277388E-004  0.4679352E+02  0.7546771E-02  0.1590002E+00
         -2   -1    0    0    0  501 -0.00000000000E+00  0.00000000000E+00  0.29381652468E+03  0.29381652468E+03  0.00000000000E+00 0.  1.
          2   -1    0    0  503    0  0.00000000000E+00 -0.00000000000E+00 -0.13019066039E+04  0.13019066039E+04  0.00000000000E+00 0. -1.
         25    2    1    2    0    0 -0.65123252116E+02 -0.14742417595E+02 -0.18162602450E+03  0.23037481869E+03  0.12500466978E+03 0.  0.
          4    1    3    3  502    0 -0.25359916680E+02  0.44193204886E+02 -0.21780745078E+02  0.55427235979E+02  0.12700000000E+01 0.  1.
         -4    1    3    3    0  502 -0.39763335436E+02 -0.58935622481E+02 -0.15984527942E+03  0.17494758271E+03  0.12700000000E+01 0.  1.
          1    1    1    2  503    0  0.19490297564E+02  0.53071704056E+01 -0.10937975215E+04  0.10939840291E+04  0.00000000000E+00 0. -1.
         -1    1    1    2    0  501  0.45632954552E+02  0.94352471893E+01  0.26733346681E+03  0.27136428082E+03  0.00000000000E+00 0.  1.
<mgrwt>
<rscale>  0 0.30744536E+02</rscale>
<asrwt>0</asrwt>
<pdfrwt beam="2">  1        2 0.20029332E+00 0.20199944E+02</pdfrwt>
<pdfrwt beam="1">  1       -2 0.45202542E-01 0.46793518E+02</pdfrwt>
<totfact> 0.99567888E+01</totfact>
</mgrwt>
</event>
<event>
 7    1  0.5277388E-004  0.5521275E+02  0.7546771E-02  0.1518689E+00
          1   -1    0    0  502    0 -0.00000000000E+00  0.00000000000E+00  0.41253622665E+04  0.41253622665E+04  0.00000000000E+00 0. -1.
          2   -1    0    0  503    0  0.00000000000E+00 -0.00000000000E+00 -0.84908881286E+03  0.84908881286E+03  0.00000000000E+00 0. -1.
         25    2    1    2    0    0  0.76917648740E+02 -0.28360308633E+02  0.17806320368E+03  0.23248834073E+03  0.12499476899E+03 0.  0.
          4    1    3    3  501    0  0.65778270876E+02 -0.70971414811E+02  0.82158279615E+02  0.12694612420E+03  0.12700000000E+01 0.  1.
         -4    1    3    3    0  501  0.11139377864E+02  0.42611106178E+02  0.95904924070E+02  0.10554221653E+03  0.12700000000E+01 0.  1.
          2    1    1    2  502    0 -0.51171998356E+02  0.20222617192E+02  0.39196715862E+04  0.39200577638E+04  0.00000000000E+00 0. -1.
          1    1    1    2  503    0 -0.25745650384E+02  0.81376914418E+01 -0.82146133631E+03  0.82190497480E+03  0.00000000000E+00 0. -1.
<mgrwt>
<rscale>  0 0.38610957E+02</rscale>
<asrwt>0</asrwt>
<pdfrwt beam="2">  1        2 0.13062905E+00 0.27001121E+02</pdfrwt>
<pdfrwt beam="1">  1        1 0.63467110E+00 0.55212745E+02</pdfrwt>
<totfact> 0.69368148E-01</totfact>
</mgrwt>
</event>
<event>
 7    1  0.5806262E-004  0.1116858E+03  0.7546771E-02  0.1262928E+00
          2   -1    0    0  503    0  0.00000000000E+00  0.00000000000E+00  0.18559788170E+04  0.18559788170E+04  0.00000000000E+00 0. -1.
          1   -1    0    0  502    0 -0.00000000000E+00 -0.00000000000E+00 -0.94616179406E+03  0.94616179406E+03  0.00000000000E+00 0. -1.
         25    2    1    2    0    0 -0.51175078117E+02  0.66066204523E+02 -0.38030455950E+03  0.40894997586E+03  0.12499957110E+03 0.  0.
          4    1    3    3  501    0  0.99177365766E+01  0.73684973309E+02 -0.29183209826E+03  0.30115680843E+03  0.12700000000E+01 0. -1.
         -4    1    3    3    0  501 -0.61092814694E+02 -0.76187687862E+01 -0.88472461238E+02  0.10779316742E+03  0.12700000000E+01 0. -1.
          2    1    1    2  502    0  0.14245010334E+03 -0.12434963081E+02 -0.54071158441E+03  0.55929927388E+03  0.00000000000E+00 0. -1.
          1    1    1    2  503    0 -0.91275025223E+02 -0.53631241442E+02  0.18308331669E+04  0.18338913613E+04  0.00000000000E+00 0. -1.
<mgrwt>
<rscale>  0 0.10873658E+03</rscale>
<asrwt>0</asrwt>
<pdfrwt beam="1">  1        2 0.28553520E+00 0.10586520E+03</pdfrwt>
<pdfrwt beam="2">  1        1 0.14556335E+00 0.11168583E+03</pdfrwt>
<totfact> 0.24697460E+01</totfact>
</mgrwt>
</event>
<event>
 7    1  0.5277388E-004  0.1383836E+03  0.7546771E-02  0.1347116E+00
          2   -1    0    0  503    0  0.00000000000E+00  0.00000000000E+00  0.10735580409E+03  0.10735580409E+03  0.00000000000E+00 0. -1.
          1   -1    0    0  502    0 -0.00000000000E+00 -0.00000000000E+00 -0.61785973170E+03  0.61785973170E+03  0.00000000000E+00 0. -1.
         25    2    1    2    0    0 -0.11994774328E+03  0.16154258712E+02 -0.18992817386E+03  0.25757998716E+03  0.12500526936E+03 0.  0.
          4    1    3    3  501    0 -0.11154786506E+03 -0.32710101846E+02 -0.93662519587E+02  0.14928883896E+03  0.12700000000E+01 0.  1.
         -4    1    3    3    0  501 -0.83998782229E+01  0.48864360558E+02 -0.96265654273E+02  0.10829114820E+03  0.12700000000E+01 0.  1.
          2    1    1    2  502    0  0.13695727258E+03 -0.51838012773E+02 -0.37372859018E+03  0.40139448576E+03  0.00000000000E+00 0. -1.
          1    1    1    2  503    0 -0.17009529297E+02  0.35683754060E+02  0.53152836427E+02  0.66241062876E+02  0.00000000000E+00 0. -1.
<mgrwt>
<rscale>  0 0.73961888E+02</rscale>
<asrwt>0</asrwt>
<pdfrwt beam="1">  1        2 0.16516277E-01 0.39530424E+02</pdfrwt>
<pdfrwt beam="2">  1        1 0.95055347E-01 0.13838356E+03</pdfrwt>
<totfact> 0.14942376E+03</totfact>
</mgrwt>
</event>
<event>
 7    1  0.5277388E-004  0.1259298E+03  0.7546771E-02  0.1347378E+00
          1   -1    0    0  502    0 -0.00000000000E+00  0.00000000000E+00  0.22846638158E+04  0.22846638158E+04  0.00000000000E+00 0. -1.
          2   -1    0    0  503    0  0.00000000000E+00 -0.00000000000E+00 -0.11917742739E+04  0.11917742739E+04  0.00000000000E+00 0. -1.
         25    2    1    2    0    0 -0.60580244564E+02  0.15552888193E+03  0.19808906610E+03  0.28765089543E+03  0.12507821709E+03 0.  0.
          4    1    3    3  501    0  0.27261318865E+02  0.93873692707E+02  0.68411538149E+02  0.11931974330E+03  0.12700000000E+01 0. -1.
         -4    1    3    3    0  501 -0.87841563429E+02  0.61655189218E+02  0.12967752795E+03  0.16833115213E+03  0.12700000000E+01 0. -1.
          2    1    1    2  502    0  0.50991244410E+02 -0.11326037427E+03  0.20394942958E+04  0.20432731100E+04  0.00000000000E+00 0. -1.
          1    1    1    2  503    0  0.95890001539E+01 -0.42268507650E+02 -0.11446938200E+04  0.11455140842E+04  0.00000000000E+00 0. -1.
<mgrwt>
<rscale>  0 0.73879068E+02</rscale>
<asrwt>0</asrwt>
<pdfrwt beam="2">  1        2 0.18334989E+00 0.43342539E+02</pdfrwt>
<pdfrwt beam="1">  1        1 0.35148674E+00 0.12592979E+03</pdfrwt>
<totfact> 0.75843082E+00</totfact>
</mgrwt>
</event>
<event>
 7    1  0.5277388E-004  0.5797723E+02  0.7546771E-02  0.1462354E+00
          1   -1    0    0  502    0 -0.00000000000E+00  0.00000000000E+00  0.18335502232E+03  0.18335502232E+03  0.00000000000E+00 0. -1.
          2   -1    0    0  503    0  0.00000000000E+00 -0.00000000000E+00 -0.17663329712E+03  0.17663329712E+03  0.00000000000E+00 0. -1.
         25    2    1    2    0    0 -0.48080744847E+02 -0.23737257701E+02 -0.60816379306E+02  0.14899101403E+03  0.12499789935E+03 0.  0.
          4    1    3    3  501    0 -0.50957079793E+02  0.43980454414E+02 -0.38855100665E+02  0.77731821664E+02  0.12700000000E+01 0.  1.
         -4    1    3    3    0  501  0.28763349460E+01 -0.67717712115E+02 -0.21961278641E+02  0.71259192364E+02  0.12700000000E+01 0.  1.
          2    1    1    2  502    0  0.20575048487E+02 -0.32027019645E+02  0.12233355642E+03  0.12811932576E+03  0.00000000000E+00 0. -1.
          1    1    1    2  503    0  0.27505696360E+02  0.55764277346E+02 -0.54795451908E+02  0.82877979645E+02  0.00000000000E+00 0. -1.
<mgrwt>
<rscale>  0 0.46978647E+02</rscale>
<asrwt>0</asrwt>
<pdfrwt beam="2">  1        2 0.27174353E-01 0.57977226E+02</pdfrwt>
<pdfrwt beam="1">  1        1 0.28208465E-01 0.38066555E+02</pdfrwt>
<totfact> 0.39985173E+03</totfact>
</mgrwt>
</event>
<event>
 7    1  0.5277388E-004  0.4653957E+02  0.7546771E-02  0.1567013E+00
         -1   -1    0    0    0  501 -0.00000000000E+00  0.00000000000E+00  0.53914272134E+03  0.53914272134E+03  0.00000000000E+00 0.  1.
          1   -1    0    0  503    0  0.00000000000E+00 -0.00000000000E+00 -0.95274588449E+02  0.95274588449E+02  0.00000000000E+00 0. -1.
         25    2    1    2    0    0 -0.46413133151E+02  0.60386920344E+01 -0.18972489219E+02  0.13481606291E+03  0.12499908296E+03 0.  0.
          4    1    3    3  502    0 -0.24739745619E+01  0.40439172535E+02  0.37638526555E+02  0.55314725044E+02  0.12700000000E+01 0.  1.
         -4    1    3    3    0  502 -0.43939158589E+02 -0.34400480500E+02 -0.56611015774E+02  0.79501337870E+02  0.12700000000E+01 0.  1.
          2    1    1    2  503    0  0.39311153460E+02 -0.28349837887E+02  0.14416068000E+02  0.50565829482E+02  0.00000000000E+00 0. -1.
         -2    1    1    2    0  501  0.71019796909E+01  0.22311145853E+02  0.44842455411E+03  0.44903541739E+03  0.00000000000E+00 0.  1.
<mgrwt>
<rscale>  0 0.33010412E+02</rscale>
<asrwt>0</asrwt>
<pdfrwt beam="2">  1        1 0.14657629E-01 0.46539567E+02</pdfrwt>
<pdfrwt beam="1">  1       -1 0.82945032E-01 0.23414212E+02</pdfrwt>
<totfact> 0.57908647E+02</totfact>
</mgrwt>
</event>
<event>
 7    1  0.5277388E-004  0.3307982E+03  0.7546771E-02  0.1181273E+00
          2   -1    0    0  503    0  0.00000000000E+00  0.00000000000E+00  0.17056697953E+04  0.17056697953E+04  0.00000000000E+00 0. -1.
          1   -1    0    0  502    0 -0.00000000000E+00 -0.00000000000E+00 -0.10648436533E+04  0.10648436533E+04  0.00000000000E+00 0. -1.
         25    2    1    2    0    0 -0.30970631488E+03 -0.45383086009E+02  0.49397202911E+03  0.59800646568E+03  0.12500296592E+03 0.  0.
          4    1    3    3  501    0 -0.15198642182E+03  0.28951933165E+02  0.16843716886E+03  0.22871549926E+03  0.12700000000E+01 0. -1.
         -4    1    3    3    0  501 -0.15771989306E+03 -0.74335019174E+02  0.32553486025E+03  0.36929096642E+03  0.12700000000E+01 0. -1.
          2    1    1    2  502    0  0.33019591436E+03 -0.36143817394E+02 -0.98398975719E+03  0.10385429985E+04  0.00000000000E+00 0. -1.
          1    1    1    2  503    0 -0.20489599484E+02  0.81526903402E+02  0.11308438700E+04  0.11339639845E+04  0.00000000000E+00 0. -1.
<mgrwt>
<rscale>  0 0.16675623E+03</rscale>
<asrwt>0</asrwt>
<pdfrwt beam="1">  1        2 0.26241074E+00 0.84062237E+02</pdfrwt>
<pdfrwt beam="2">  1        1 0.16382210E+00 0.33079824E+03</pdfrwt>
<totfact> 0.22986113E+01</totfact>
</mgrwt>
</event>
<event>
 7    1  0.5277388E-004  0.7126466E+02  0.7546771E-02  0.1387314E+00
          1   -1    0    0  502    0 -0.00000000000E+00  0.00000000000E+00  0.10601687929E+04  0.10601687929E+04  0.00000000000E+00 0. -1.
          2   -1    0    0  503    0  0.00000000000E+00 -0.00000000000E+00 -0.14062832363E+04  0.14062832363E+04  0.00000000000E+00 0. -1.
         25    2    1    2    0    0  0.17287730740E+02  0.33273102806E+01 -0.13169249222E+01  0.12624770460E+03  0.12500724779E+03 0.  0.
          4    1    3    3  501    0 -0.16043126948E+01  0.57723798612E+02 -0.26299093560E+02  0.63465470671E+02  0.12700000000E+01 0. -1.
         -4    1    3    3    0  501  0.18892043435E+02 -0.54396488331E+02  0.24982168638E+02  0.62782233934E+02  0.12700000000E+01 0. -1.
          2    1    1    2  502    0  0.49432562160E+02  0.24006112557E+02  0.99597731301E+03  0.99749219529E+03  0.00000000000E+00 0. -1.
          1    1    1    2  503    0 -0.66720292900E+02 -0.27333422838E+02 -0.13407748315E+04  0.13427121294E+04  0.00000000000E+00 0. -1.
<mgrwt>
<rscale>  0 0.62579807E+02</rscale>
<asrwt>0</asrwt>
<pdfrwt beam="2">  1        2 0.21635127E+00 0.71264656E+02</pdfrwt>
<pdfrwt beam="1">  1        1 0.16310289E+00 0.54953359E+02</pdfrwt>
<totfact> 0.37488715E+01</totfact>
</mgrwt>
</event>
<event>
 7    1  0.5277388E-004  0.6296707E+02  0.7546771E-02  0.1397025E+00
          1   -1    0    0  502    0 -0.00000000000E+00  0.00000000000E+00  0.14249983253E+03  0.14249983253E+03  0.00000000000E+00 0. -1.
          2   -1    0    0  503    0  0.00000000000E+00 -0.00000000000E+00 -0.45593413737E+04  0.45593413737E+04  0.00000000000E+00 0. -1.
         25    2    1    2    0    0  0.56121163980E+02  0.10632404008E+03 -0.72826380433E+02  0.18810160407E+03  0.12499658084E+03 0.  0.
          4    1    3    3  501    0 -0.28462686012E+02  0.63118914518E+02 -0.14174373541E+01  0.69265748344E+02  0.12700000000E+01 0. -1.
         -4    1    3    3    0  501  0.84583849991E+02  0.43205125563E+02 -0.71408943079E+02  0.11883585573E+03  0.12700000000E+01 0. -1.
          2    1    1    2  502    0 -0.28522023563E+02 -0.49973799724E+02  0.74860112183E+02  0.94418869317E+02  0.00000000000E+00 0. -1.
          1    1    1    2  503    0 -0.27599140416E+02 -0.56350240358E+02 -0.44188752729E+04  0.44193207328E+04  0.00000000000E+00 0. -1.
<mgrwt>
<rscale>  0 0.60192560E+02</rscale>
<asrwt>0</asrwt>
<pdfrwt beam="2">  1        2 0.70143711E+00 0.62967070E+02</pdfrwt>
<pdfrwt beam="1">  1        1 0.21923052E-01 0.57540303E+02</pdfrwt>
<totfact> 0.63174224E+00</totfact>
</mgrwt>
</event>
<event>
 7    1  0.5277388E-004  0.3953643E+02  0.7546771E-02  0.1537711E+00
          2   -1    0    0  503    0  0.00000000000E+00  0.00000000000E+00  0.41271312888E+03  0.41271312888E+03  0.00000000000E+00 0. -1.
         -2   -1    0    0    0  501 -0.00000000000E+00 -0.00000000000E+00 -0.64056334114E+03  0.64056334114E+03  0.00000000000E+00 0.  1.
         25    2    1    2    0    0  0.36739767576E+02 -0.10472033869E+02 -0.45146111048E+03  0.47000104594E+03  0.12499749957E+03 0.  0.
          4    1    3    3  502    0  0.81521029289E+02 -0.18511846707E+02 -0.25582431383E+03  0.26913947896E+03  0.12700000000E+01 0.  1.
         -4    1    3    3    0  502 -0.44781261713E+02  0.80398128383E+01 -0.19563679664E+03  0.20086156699E+03  0.12700000000E+01 0.  1.
          1    1    1    2  503    0 -0.51979569629E+00  0.33246046603E+02  0.40019912681E+03  0.40157802592E+03  0.00000000000E+00 0. -1.
         -1    1    1    2    0  501 -0.36219971880E+02 -0.22774012734E+02 -0.17658822859E+03  0.18169739816E+03  0.00000000000E+00 0.  1.
<mgrwt>
<rscale>  0 0.36257282E+02</rscale>
<asrwt>0</asrwt>
<pdfrwt beam="1">  1        2 0.63494328E-01 0.33250110E+02</pdfrwt>
<pdfrwt beam="2">  1       -2 0.98548206E-01 0.39536427E+02</pdfrwt>
<totfact> 0.73560881E+01</totfact>
</mgrwt>
</event>
<event>
 7    1  0.5277388E-004  0.1339537E+03  0.7546771E-02  0.1339689E+00
          1   -1    0    0  502    0 -0.00000000000E+00  0.00000000000E+00  0.10212163366E+04  0.10212163366E+04  0.00000000000E+00 0. -1.
          2   -1    0    0  503    0  0.00000000000E+00 -0.00000000000E+00 -0.14547735878E+04  0.14547735878E+04  0.00000000000E+00 0. -1.
         25    2    1    2    0    0 -0.16775526845E+03  0.29393723792E+02 -0.97668268197E+02  0.23274251182E+03  0.12499666036E+03 0.  0.
          4    1    3    3  501    0 -0.12462690392E+03  0.16389531316E+02 -0.58239776209E+00  0.12570773248E+03  0.12700000000E+01 0.  1.
         -4    1    3    3    0  501 -0.43128364530E+02  0.13004192476E+02 -0.97085870435E+02  0.10703477933E+03  0.12700000000E+01 0.  1.
          2    1    1    2  502    0  0.42009029270E+02  0.11433267627E+02  0.94979071628E+03  0.95078803258E+03  0.00000000000E+00 0. -1.
          3    1    1    2  503    0  0.12574623918E+03 -0.40826991420E+02 -0.12856796992E+04  0.12924593800E+04  0.00000000000E+00 0. -1.
<mgrwt>
<rscale>  0 0.76367246E+02</rscale>
<asrwt>0</asrwt>
<pdfrwt beam="2">  1        2 0.22381132E+00 0.13395375E+03</pdfrwt>
<pdfrwt beam="1">  1        1 0.15711020E+00 0.43537089E+02</pdfrwt>
<totfact> 0.36446816E+01</totfact>
</mgrwt>
</event>
<event>
 7    1  0.5277388E-004  0.1092612E+03  0.7546771E-02  0.1446004E+00
          2   -1    0    0  503    0  0.00000000000E+00  0.00000000000E+00  0.89934995764E+03  0.89934995764E+03  0.00000000000E+00 0. -1.
          1   -1    0    0  502    0 -0.00000000000E+00 -0.00000000000E+00 -0.39335005685E+03  0.39335005685E+03  0.00000000000E+00 0. -1.
         25    2    1    2    0    0 -0.11113417070E+03 -0.53196266482E+02 -0.43002345562E+02  0.18071224656E+03  0.12500827040E+03 0.  0.
          4    1    3    3  501    0 -0.92738908527E+02 -0.87973522317E+01 -0.77790007902E+02  0.12137049390E+03  0.12700000000E+01 0.  1.
         -4    1    3    3    0  501 -0.18395262170E+02 -0.44398914251E+02  0.34787662339E+02  0.59341752653E+02  0.12700000000E+01 0.  1.
          2    1    1    2  502    0  0.69335859951E+01  0.21687574904E+02 -0.27745710002E+03  0.27838977688E+03  0.00000000000E+00 0. -1.
          1    1    1    2  503    0  0.10420058470E+03  0.31508691578E+02  0.82645934637E+03  0.83359799106E+03  0.00000000000E+00 0. -1.
<mgrwt>
<rscale>  0 0.49877478E+02</rscale>
<asrwt>0</asrwt>
<pdfrwt beam="1">  1        2 0.13836153E+00 0.10926115E+03</pdfrwt>
<pdfrwt beam="2">  1        1 0.60515394E-01 0.22768960E+02</pdfrwt>
<totfact> 0.27479968E+02</totfact>
</mgrwt>
</event>
<event>
 7    1  0.5277388E-004  0.9607691E+02  0.7546771E-02  0.1350417E+00
          1   -1    0    0  503    0  0.00000000000E+00  0.00000000000E+00  0.12977312026E+04  0.12977312026E+04  0.00000000000E+00 0. -1.
         -1   -1    0    0    0  501 -0.00000000000E+00 -0.00000000000E+00 -0.10261311235E+03  0.10261311235E+03  0.00000000000E+00 0.  1.
         25    2    1    2    0    0  0.55319541488E+02 -0.24388925190E+01  0.12455066611E+03  0.18494298008E+03  0.12499935033E+03 0.  0.
          4    1    3    3  502    0 -0.31663627078E+02 -0.22580086104E+02  0.70610240214E+02  0.80621737089E+02  0.12700000000E+01 0.  1.
         -4    1    3    3    0  502  0.86983168566E+02  0.20141193586E+02  0.53940425901E+02  0.10432124299E+03  0.12700000000E+01 0.  1.
          2    1    1    2  503    0 -0.91099378760E+02 -0.39796414499E+02  0.11298955361E+04  0.11342604525E+04  0.00000000000E+00 0. -1.
         -2    1    1    2    0  501  0.35779837272E+02  0.42235307018E+02 -0.59328112044E+02  0.81140882376E+02  0.00000000000E+00 0.  1.
<mgrwt>
<rscale>  0 0.72925991E+02</rscale>
<asrwt>0</asrwt>
<pdfrwt beam="1">  1        1 0.19965094E+00 0.96076910E+02</pdfrwt>
<pdfrwt beam="2">  1       -1 0.15786634E-01 0.55353572E+02</pdfrwt>
<totfact> 0.29561499E+02</totfact>
</mgrwt>
</event>
<event>
 7    1  0.5277388E-004  0.8550629E+02  0.7546771E-02  0.1339266E+00
          2   -1    0    0  503    0  0.00000000000E+00  0.00000000000E+00  0.67856640942E+03  0.67856640942E+03  0.00000000000E+00 0. -1.
          1   -1    0    0  502    0 -0.00000000000E+00 -0.00000000000E+00 -0.27578122866E+03  0.27578122866E+03  0.00000000000E+00 0. -1.
         25    2    1    2    0    0 -0.23698292207E+02  0.27022372610E+02  0.15850522569E+03  0.20503949327E+03  0.12500187821E+03 0.  0.
          4    1    3    3  501    0  0.30746572974E+02 -0.35599235060E+02  0.59112081454E+02  0.75554671334E+02  0.12700000000E+01 0. -1.
         -4    1    3    3    0  501 -0.54444865181E+02  0.62621607670E+02  0.99393144234E+02  0.12948482194E+03  0.12700000000E+01 0. -1.
          2    1    1    2  502    0  0.69141823170E+01  0.68105484566E+02 -0.24304508332E+03  0.25250163459E+03  0.00000000000E+00 0. -1.
          1    1    1    2  503    0  0.16784109890E+02 -0.95127857176E+02  0.48732503838E+03  0.49680651021E+03  0.00000000000E+00 0. -1.
<mgrwt>
<rscale>  0 0.76507388E+02</rscale>
<asrwt>0</asrwt>
<pdfrwt beam="1">  1        2 0.10439483E+00 0.85506288E+02</pdfrwt>
<pdfrwt beam="2">  1        1 0.42427881E-01 0.68455555E+02</pdfrwt>
<totfact> 0.59624355E+02</totfact>
</mgrwt>
</event>
<event>
 7    1  0.5277388E-004  0.8945593E+02  0.7546771E-02  0.1355155E+00
          2   -1    0    0  503    0  0.00000000000E+00  0.00000000000E+00  0.40115335212E+03  0.40115335212E+03  0.00000000000E+00 0. -1.
          1   -1    0    0  502    0 -0.00000000000E+00 -0.00000000000E+00 -0.36848100508E+03  0.36848100508E+03  0.00000000000E+00 0. -1.
         25    2    1    2    0    0 -0.49548043882E+02 -0.17600171020E+02  0.39208869196E+02  0.14116703740E+03  0.12500408934E+03 0.  0.
          4    1    3    3  501    0 -0.86702194257E+02  0.16422013564E+00  0.37255545253E+01  0.86791647718E+02  0.12700000000E+01 0. -1.
         -4    1    3    3    0  501  0.37154150375E+02 -0.17764391155E+02  0.35483314671E+02  0.54375389684E+02  0.12700000000E+01 0. -1.
          2    1    1    2  502    0 -0.12029971516E+02 -0.55823518640E+02 -0.30742705135E+03  0.31268574855E+03  0.00000000000E+00 0. -1.
          1    1    1    2  503    0  0.61578015398E+02  0.73423689659E+02  0.30089052919E+03  0.31578157125E+03  0.00000000000E+00 0. -1.
<mgrwt>
<rscale>  0 0.71472963E+02</rscale>
<asrwt>0</asrwt>
<pdfrwt beam="1">  1        2 0.61715900E-01 0.89455932E+02</pdfrwt>
<pdfrwt beam="2">  1        1 0.56689386E-01 0.57105039E+02</pdfrwt>
<totfact> 0.74527174E+02</totfact>
</mgrwt>
</event>
<event>
 7    1  0.5277388E-004  0.9082604E+02  0.7546771E-02  0.1337407E+00
         -2   -1    0    0    0  501 -0.00000000000E+00  0.00000000000E+00  0.21313244799E+03  0.21313244799E+03  0.00000000000E+00 0.  1.
          2   -1    0    0  503    0  0.00000000000E+00 -0.00000000000E+00 -0.21831649749E+04  0.21831649749E+04  0.00000000000E+00 0. -1.
         25    2    1    2    0    0 -0.96540632406E+01  0.10097472470E+03 -0.12918245131E+03  0.20640407569E+03  0.12500176307E+03 0.  0.
          4    1    3    3  502    0  0.14857439748E+02  0.98243244425E+02 -0.29422627900E+02  0.10363292201E+03  0.12700000000E+01 0. -1.
         -4    1    3    3    0  502 -0.24511502989E+02  0.27314802723E+01 -0.99759823409E+02  0.10277115369E+03  0.12700000000E+01 0. -1.
          1    1    1    2  503    0 -0.54791477958E+02 -0.35881438770E+02 -0.20027803332E+04  0.20038509543E+04  0.00000000000E+00 0. -1.
         -1    1    1    2    0  501  0.64445541199E+02 -0.65093285926E+02  0.16193025760E+03  0.18604239297E+03  0.00000000000E+00 0.  1.
<mgrwt>
<rscale>  0 0.77127452E+02</rscale>
<asrwt>0</asrwt>
<pdfrwt beam="2">  1        2 0.33587154E+00 0.65494914E+02</pdfrwt>
<pdfrwt beam="1">  1       -2 0.32789607E-01 0.90826044E+02</pdfrwt>
<totfact> 0.60515527E+01</totfact>
</mgrwt>
</event>
<event>
 7    1  0.5277388E-004  0.6200642E+02  0.7546771E-02  0.1503903E+00
          1   -1    0    0  502    0 -0.00000000000E+00  0.00000000000E+00  0.51464568163E+02  0.51464568163E+02  0.00000000000E+00 0. -1.
          2   -1    0    0  503    0  0.00000000000E+00 -0.00000000000E+00 -0.35269273842E+03  0.35269273842E+03  0.00000000000E+00 0. -1.
         25    2    1    2    0    0 -0.19838704525E+02  0.51723405980E+02 -0.19278562439E+03  0.23634875318E+03  0.12500220491E+03 0.  0.
          4    1    3    3  501    0 -0.24037650216E+02  0.11175326525E+02 -0.19374362965E+03  0.19555281507E+03  0.12700000000E+01 0.  1.
         -4    1    3    3    0  501  0.41989456917E+01  0.40548079455E+02  0.95800525324E+00  0.40795938113E+02  0.12700000000E+01 0.  1.
          2    1    1    2  502    0 -0.26172119815E+02 -0.45956639219E+01  0.13055518339E+02  0.29606528699E+02  0.00000000000E+00 0. -1.
          1    1    1    2  503    0  0.46010824340E+02 -0.47127742059E+02 -0.12149806420E+03  0.13820202471E+03  0.00000000000E+00 0. -1.
<mgrwt>
<rscale>  0 0.40591479E+02</rscale>
<asrwt>0</asrwt>
<pdfrwt beam="2">  1        2 0.54260422E-01 0.62006419E+02</pdfrwt>
<pdfrwt beam="1">  1        1 0.79176258E-02 0.26572542E+02</pdfrwt>
<totfact> 0.90961764E+03</totfact>
</mgrwt>
</event>
<event>
 7    1  0.5277388E-004  0.4877726E+02  0.7546771E-02  0.1464136E+00
          2   -1    0    0  503    0  0.00000000000E+00  0.00000000000E+00  0.55867247068E+02  0.55867247068E+02  0.00000000000E+00 0. -1.
          1   -1    0    0  502    0 -0.00000000000E+00 -0.00000000000E+00 -0.26437230332E+03  0.26437230332E+03  0.00000000000E+00 0. -1.
         25    2    1    2    0    0 -0.27301251409E+02  0.29475885525E+02 -0.11336481225E+03  0.17346240234E+03  0.12499375269E+03 0.  0.
          4    1    3    3  501    0  0.25241397916E+02  0.51340988319E+02 -0.13944785511E+02  0.58899025402E+02  0.12700000000E+01 0. -1.
         -4    1    3    3    0  501 -0.52542649326E+02 -0.21865102794E+02 -0.99420026739E+02  0.11456337694E+03  0.12700000000E+01 0. -1.
          2    1    1    2  502    0  0.48266282959E+02  0.14566005411E+02 -0.82003221709E+02  0.96261783461E+02  0.00000000000E+00 0. -1.
          1    1    1    2  503    0 -0.20965031549E+02 -0.44041890936E+02 -0.13137022297E+02  0.50515364593E+02  0.00000000000E+00 0. -1.
<mgrwt>
<rscale>  0 0.46677084E+02</rscale>
<asrwt>0</asrwt>
<pdfrwt beam="1">  1        2 0.85949610E-02 0.48777256E+02</pdfrwt>
<pdfrwt beam="2">  1        1 0.40672662E-01 0.44667338E+02</pdfrwt>
<totfact> 0.94787733E+03</totfact>
</mgrwt>
</event>
<event>
 7    1  0.5277388E-004  0.1110247E+03  0.7546771E-02  0.1434214E+00
          2   -1    0    0  503    0  0.00000000000E+00  0.00000000000E+00  0.11855974227E+03  0.11855974227E+03  0.00000000000E+00 0. -1.
          1   -1    0    0  502    0 -0.00000000000E+00 -0.00000000000E+00 -0.22379847131E+04  0.22379847131E+04  0.00000000000E+00 0. -1.
         25    2    1    2    0    0 -0.18329205814E+02  0.10716797554E+03 -0.44175851203E+03  0.47179942869E+03  0.12499273259E+03 0.  0.
          4    1    3    3  501    0 -0.16611455828E+02  0.11176720907E+03 -0.19791408562E+03  0.22790227660E+03  0.12700000000E+01 0. -1.
         -4    1    3    3    0  501 -0.17177499861E+01 -0.45992335306E+01 -0.24384442640E+03  0.24389715210E+03  0.12700000000E+01 0. -1.
          2    1    1    2  502    0  0.24138154187E+02  0.40198978881E+01 -0.17511636822E+04  0.17513346488E+04  0.00000000000E+00 0. -1.
          1    1    1    2  503    0 -0.58089483736E+01 -0.11118787343E+03  0.73497223429E+02  0.13341037790E+03  0.00000000000E+00 0. -1.
<mgrwt>
<rscale>  0 0.52123315E+02</rscale>
<asrwt>0</asrwt>
<pdfrwt beam="1">  1        2 0.18239960E-01 0.11102467E+03</pdfrwt>
<pdfrwt beam="2">  1        1 0.34430536E+00 0.24470596E+02</pdfrwt>
<totfact> 0.13495312E+02</totfact>
</mgrwt>
</event>
<event>
 7    1  0.5277388E-004  0.1384779E+03  0.7546771E-02  0.1319889E+00
          1   -1    0    0  502    0 -0.00000000000E+00  0.00000000000E+00  0.88800429069E+03  0.88800429069E+03  0.00000000000E+00 0. -1.
          2   -1    0    0  503    0  0.00000000000E+00 -0.00000000000E+00 -0.31890272248E+03  0.31890272248E+03  0.00000000000E+00 0. -1.
         25    2    1    2    0    0 -0.15293585306E+03 -0.10203983136E+03  0.84682497589E+02  0.23790245308E+03  0.12499979780E+03 0.  0.
          4    1    3    3  501    0 -0.23125894033E+02  0.29345013827E+02  0.10206774355E+02  0.38752134832E+02  0.12700000000E+01 0.  1.
         -4    1    3    3    0  501 -0.12980995903E+03 -0.13138484519E+03  0.74475723234E+02  0.19915031825E+03  0.12700000000E+01 0.  1.
          2    1    1    2  502    0  0.11677946018E+03  0.67314901970E+02  0.71777654294E+03  0.73032315035E+03  0.00000000000E+00 0. -1.
          1    1    1    2  503    0  0.36156392881E+02  0.34724929392E+02 -0.23335747232E+03  0.23868140974E+03  0.00000000000E+00 0. -1.
<mgrwt>
<rscale>  0 0.83318796E+02</rscale>
<asrwt>0</asrwt>
<pdfrwt beam="2">  1        2 0.49061957E-01 0.50130883E+02</pdfrwt>
<pdfrwt beam="1">  1        1 0.13661604E+00 0.13847795E+03</pdfrwt>
<totfact> 0.28112995E+02</totfact>
</mgrwt>
</event>
<event>
 7    1  0.7334669E-004  0.5168458E+02  0.7546771E-02  0.1446735E+00
          1   -1    0    0  502    0 -0.00000000000E+00  0.00000000000E+00  0.13257267954E+04  0.13257267954E+04  0.00000000000E+00 0. -1.
          2   -1    0    0  503    0  0.00000000000E+00 -0.00000000000E+00 -0.31649337561E+04  0.31649337561E+04  0.00000000000E+00 0. -1.
         25    2    1    2    0    0 -0.52031266680E+02 -0.78932529549E+02  0.23061925100E+03  0.27883679435E+03  0.12500848779E+03 0.  0.
          4    1    3    3  501    0 -0.92751645159E+02 -0.48650062864E+02  0.17104870656E+03  0.20057160620E+03  0.12700000000E+01 0.  1.
         -4    1    3    3    0  501  0.40720378478E+02 -0.30282466685E+02  0.59570544442E+02  0.78265188155E+02  0.12700000000E+01 0.  1.
          2    1    1    2  502    0  0.37897915359E+02  0.29251254900E+02  0.10702512789E+04  0.10713214680E+04  0.00000000000E+00 0. -1.
          3    1    1    2  503    0  0.14133351322E+02  0.49681274649E+02 -0.31400774907E+04  0.31405022891E+04  0.00000000000E+00 0. -1.
<mgrwt>
<rscale>  0 0.49742643E+02</rscale>
<asrwt>0</asrwt>
<pdfrwt beam="2">  1        2 0.48691288E+00 0.51684584E+02</pdfrwt>
<pdfrwt beam="1">  1        1 0.20395797E+00 0.47873666E+02</pdfrwt>
<totfact> 0.32777133E+00</totfact>
</mgrwt>
</event>
<event>
 7    1  0.5277388E-004  0.7109178E+02  0.7546771E-02  0.1467992E+00
          1   -1    0    0  502    0 -0.00000000000E+00  0.00000000000E+00  0.24233178500E+03  0.24233178500E+03  0.00000000000E+00 0. -1.
          2   -1    0    0  503    0  0.00000000000E+00 -0.00000000000E+00 -0.13468166748E+03  0.13468166748E+03  0.00000000000E+00 0. -1.
         25    2    1    2    0    0  0.49497780921E+02  0.77920426834E+02 -0.15476569756E+02  0.15615868884E+03  0.12499755459E+03 0.  0.
          4    1    3    3  501    0  0.18546782188E+02  0.92481318539E+02  0.30229541441E+02  0.99056627663E+02  0.12700000000E+01 0. -1.
         -4    1    3    3    0  501  0.30950998733E+02 -0.14560891705E+02 -0.45706111197E+02  0.57102061176E+02  0.12700000000E+01 0. -1.
          2    1    1    2  502    0 -0.73771293120E+01 -0.28880093867E+02  0.14845958403E+03  0.15142235617E+03  0.00000000000E+00 0. -1.
          1    1    1    2  503    0 -0.42120651609E+02 -0.49040332967E+02 -0.25332896755E+02  0.69432407473E+02  0.00000000000E+00 0. -1.
<mgrwt>
<rscale>  0 0.46033270E+02</rscale>
<asrwt>0</asrwt>
<pdfrwt beam="2">  1        2 0.20720257E-01 0.71091778E+02</pdfrwt>
<pdfrwt beam="1">  1        1 0.37281813E-01 0.29807413E+02</pdfrwt>
<totfact> 0.38624403E+03</totfact>
</mgrwt>
</event>
<event>
 7    1  0.5277388E-004  0.5389833E+02  0.7546771E-02  0.1509438E+00
          1   -1    0    0  502    0 -0.00000000000E+00  0.00000000000E+00  0.11560696568E+03  0.11560696568E+03  0.00000000000E+00 0. -1.
          2   -1    0    0  503    0  0.00000000000E+00 -0.00000000000E+00 -0.10987731899E+04  0.10987731899E+04  0.00000000000E+00 0. -1.
         25    2    1    2    0    0  0.62793192373E+02  0.30459490374E+02 -0.19117637437E+03  0.23884557532E+03  0.12501214808E+03 0.  0.
          4    1    3    3  501    0  0.15660778994E+02 -0.75572744881E+01 -0.17539091866E+03  0.17625538189E+03  0.12700000000E+01 0. -1.
         -4    1    3    3    0  501  0.47132413379E+02  0.38016764862E+02 -0.15785455715E+02  0.62590193430E+02  0.12700000000E+01 0. -1.
          2    1    1    2  502    0 -0.35086091820E+02 -0.40409175608E+02  0.83702186202E+02  0.99347829808E+02  0.00000000000E+00 0. -1.
          1    1    1    2  503    0 -0.27707100553E+02  0.99496852344E+01 -0.87569203606E+03  0.87618675045E+03  0.00000000000E+00 0. -1.
<mgrwt>
<rscale>  0 0.39833851E+02</rscale>
<asrwt>0</asrwt>
<pdfrwt beam="2">  1        2 0.16904203E+00 0.29439424E+02</pdfrwt>
<pdfrwt beam="1">  1        1 0.17785687E-01 0.53898327E+02</pdfrwt>
<totfact> 0.99055670E+02</totfact>
</mgrwt>
</event>
<event>
 7    1  0.5277388E-004  0.8740785E+02  0.7546771E-02  0.1455325E+00
         -2   -1    0    0    0  501 -0.00000000000E+00  0.00000000000E+00  0.23053067833E+04  0.23053067833E+04  0.00000000000E+00 0.  1.
          2   -1    0    0  503    0  0.00000000000E+00 -0.00000000000E+00 -0.25917960311E+03  0.25917960311E+03  0.00000000000E+00 0. -1.
         25    2    1    2    0    0  0.84034988969E+02 -0.33180785501E+01  0.51640592864E+03  0.53793397408E+03  0.12499995327E+03 0.  0.
          4    1    3    3  502    0  0.91510346692E+02 -0.43702644124E+02  0.43596415975E+03  0.44760521237E+03  0.12700000000E+01 0.  1.
         -4    1    3    3    0  502 -0.74753577227E+01  0.40384565574E+02  0.80441768895E+02  0.90328761713E+02  0.12700000000E+01 0.  1.
          1    1    1    2  503    0  0.95117048175E+00  0.26557263614E+02 -0.24660989720E+03  0.24803756645E+03  0.00000000000E+00 0. -1.
         -1    1    1    2    0  501 -0.84986159451E+02 -0.23239185064E+02  0.17763311487E+04  0.17785148458E+04  0.00000000000E+00 0.  1.
<mgrwt>
<rscale>  0 0.48195454E+02</rscale>
<asrwt>0</asrwt>
<pdfrwt beam="2">  1        2 0.39873787E-01 0.26574292E+02</pdfrwt>
<pdfrwt beam="1">  1       -2 0.35466257E+00 0.87407854E+02</pdfrwt>
<totfact> 0.25145449E+00</totfact>
</mgrwt>
</event>
<event>
 7    1  0.5277388E-004  0.1503467E+03  0.7546771E-02  0.1296945E+00
          1   -1    0    0  502    0 -0.00000000000E+00  0.00000000000E+00  0.13673258968E+04  0.13673258968E+04  0.00000000000E+00 0. -1.
          2   -1    0    0  503    0  0.00000000000E+00 -0.00000000000E+00 -0.19138148596E+04  0.19138148596E+04  0.00000000000E+00 0. -1.
         25    2    1    2    0    0  0.36018798386E+02  0.19679941486E+03 -0.42130733830E+03  0.48285930099E+03  0.12500347083E+03 0.  0.
          4    1    3    3  501    0  0.28824095347E+02  0.77509356690E+02 -0.59665477031E+02  0.10198093398E+03  0.12700000000E+01 0.  1.
         -4    1    3    3    0  501  0.71947030383E+01  0.11929005817E+03 -0.36164186127E+03  0.38087836701E+03  0.12700000000E+01 0.  1.
          2    1    1    2  502    0 -0.20697007911E+02 -0.52992148279E+02  0.13323642720E+04  0.13335783019E+04  0.00000000000E+00 0. -1.
          1    1    1    2  503    0 -0.15321790475E+02 -0.14380726658E+03 -0.14575458965E+04  0.14647031534E+04  0.00000000000E+00 0. -1.
<mgrwt>
<rscale>  0 0.92484071E+02</rscale>
<asrwt>0</asrwt>
<pdfrwt beam="2">  1        2 0.29443306E+00 0.15034666E+03</pdfrwt>
<pdfrwt beam="1">  1        1 0.21035783E+00 0.56890543E+02</pdfrwt>
<totfact> 0.12115089E+01</totfact>
</mgrwt>
</event>
<event>
 7    1  0.5277388E-004  0.1332990E+03  0.7546771E-02  0.1352805E+00
          1   -1    0    0  503    0  0.00000000000E+00  0.00000000000E+00  0.55223607849E+03  0.55223607849E+03  0.00000000000E+00 0. -1.
         -1   -1    0    0    0  501 -0.00000000000E+00 -0.00000000000E+00 -0.62405660328E+03  0.62405660328E+03  0.00000000000E+00 0.  1.
         25    2    1    2    0    0  0.14449774671E+02  0.15082095008E+03  0.69556683889E+02  0.20837200549E+03  0.12500002170E+03 0.  0.
          4    1    3    3  502    0 -0.51250060129E+02  0.74494891442E+02  0.90597452620E+01  0.90883163448E+02  0.12700000000E+01 0. -1.
         -4    1    3    3    0  502  0.65699834800E+02  0.76326058641E+02  0.60496938627E+02  0.11748884204E+03  0.12700000000E+01 0. -1.
          2    1    1    2  503    0  0.29384375529E+02 -0.25785717154E+02  0.40440287283E+03  0.40628810995E+03  0.00000000000E+00 0. -1.
         -2    1    1    2    0  501 -0.43834150200E+02 -0.12503523293E+03 -0.54578008151E+03  0.56163256634E+03  0.00000000000E+00 0.  1.
<mgrwt>
<rscale>  0 0.72188638E+02</rscale>
<asrwt>0</asrwt>
<pdfrwt beam="1">  1        1 0.84959397E-01 0.39094050E+02</pdfrwt>
<pdfrwt beam="2">  1       -1 0.96008708E-01 0.13329904E+03</pdfrwt>
<totfact> 0.47997466E+01</totfact>
</mgrwt>
</event>
<event>
 7    1  0.5277388E-004  0.5453223E+02  0.7546771E-02  0.1446609E+00
          1   -1    0    0  502    0 -0.00000000000E+00  0.00000000000E+00  0.16136840828E+04  0.16136840828E+04  0.00000000000E+00 0. -1.
          2   -1    0    0  503    0  0.00000000000E+00 -0.00000000000E+00 -0.20607334500E+04  0.20607334500E+04  0.00000000000E+00 0. -1.
         25    2    1    2    0    0 -0.26306448332E+02  0.18742391101E+02 -0.91511471443E+03  0.92417674064E+03  0.12499760366E+03 0.  0.
          4    1    3    3  501    0 -0.42899510506E+02 -0.43873313939E+02 -0.54373870367E+03  0.54719158112E+03  0.12700000000E+01 0. -1.
         -4    1    3    3    0  501  0.16593062174E+02  0.62615705040E+02 -0.37137601076E+03  0.37698515951E+03  0.12700000000E+01 0. -1.
          2    1    1    2  502    0 -0.32414324056E+02 -0.31810885600E+02  0.16080393725E+04  0.16086805911E+04  0.00000000000E+00 0. -1.
          1    1    1    2  503    0  0.58720772388E+02  0.13068494499E+02 -0.11399740252E+04  0.11415602011E+04  0.00000000000E+00 0. -1.
<mgrwt>
<rscale>  0 0.49765857E+02</rscale>
<asrwt>0</asrwt>
<pdfrwt beam="2">  1        2 0.31703591E+00 0.54532231E+02</pdfrwt>
<pdfrwt beam="1">  1        1 0.24825909E+00 0.45416086E+02</pdfrwt>
<totfact> 0.82058447E+00</totfact>
</mgrwt>
</event>
<event>
 7    1  0.5277388E-004  0.4287978E+02  0.7546771E-02  0.1554328E+00
         -1   -1    0    0    0  501 -0.00000000000E+00  0.00000000000E+00  0.29787806161E+03  0.29787806161E+03  0.00000000000E+00 0.  1.
          1   -1    0    0  503    0  0.00000000000E+00 -0.00000000000E+00 -0.58274470275E+03  0.58274470275E+03  0.00000000000E+00 0. -1.
         25    2    1    2    0    0 -0.50532442560E+02 -0.24797183461E+02  0.11344791974E+03  0.17794390790E+03  0.12500070323E+03 0.  0.
          4    1    3    3  502    0 -0.62512060618E+01  0.34592772632E+02  0.95410115721E+02  0.10168795689E+03  0.12700000000E+01 0. -1.
         -4    1    3    3    0  502 -0.44281236498E+02 -0.59389956092E+02  0.18037804020E+02  0.76255951009E+02  0.12700000000E+01 0. -1.
          2    1    1    2  503    0  0.42810015029E+02 -0.16362293560E+01 -0.54840861081E+03  0.55007942976E+03  0.00000000000E+00 0. -1.
         -2    1    1    2    0  501  0.77224275308E+01  0.26433412817E+02  0.15009404993E+03  0.15259942669E+03  0.00000000000E+00 0.  1.
<mgrwt>
<rscale>  0 0.34363336E+02</rscale>
<asrwt>0</asrwt>
<pdfrwt beam="2">  1        1 0.89653031E-01 0.42879782E+02</pdfrwt>
<pdfrwt beam="1">  1       -1 0.45827394E-01 0.27538359E+02</pdfrwt>
<totfact> 0.18919315E+02</totfact>
</mgrwt>
</event>
<event>
 7    1  0.5277388E-004  0.1166466E+03  0.7546771E-02  0.1397545E+00
          2   -1    0    0  503    0  0.00000000000E+00  0.00000000000E+00  0.38129012680E+03  0.38129012680E+03  0.00000000000E+00 0. -1.
          1   -1    0    0  502    0 -0.00000000000E+00 -0.00000000000E+00 -0.22670197987E+04  0.22670197987E+04  0.00000000000E+00 0. -1.
         25    2    1    2    0    0 -0.14081248619E+03  0.15697586343E+02  0.14583078781E+03  0.23867753038E+03  0.12500309735E+03 0.  0.
          4    1    3    3  501    0 -0.38125239532E+02 -0.11543563757E+02  0.12395167487E+03  0.13020145297E+03  0.12700000000E+01 0. -1.
         -4    1    3    3    0  501 -0.10268724666E+03  0.27241150099E+02  0.21879112949E+02  0.10847607741E+03  0.12700000000E+01 0. -1.
          2    1    1    2  502    0  0.11641132504E+03  0.33136437167E+01 -0.22177929071E+04  0.22208484765E+04  0.00000000000E+00 0. -1.
          1    1    1    2  503    0  0.24401161157E+02 -0.19011230059E+02  0.18623244730E+03  0.18878391870E+03  0.00000000000E+00 0. -1.
<mgrwt>
<rscale>  0 0.60068433E+02</rscale>
<asrwt>0</asrwt>
<pdfrwt beam="1">  1        2 0.58660019E-01 0.30932888E+02</pdfrwt>
<pdfrwt beam="2">  1        1 0.34877228E+00 0.11664662E+03</pdfrwt>
<totfact> 0.29115365E+01</totfact>
</mgrwt>
</event>
<event>
 7    1  0.5277388E-004  0.5232473E+02  0.7546771E-02  0.1452106E+00
         -1   -1    0    0    0  501 -0.00000000000E+00  0.00000000000E+00  0.12620587482E+02  0.12620587482E+02  0.00000000000E+00 0.  1.
          1   -1    0    0  503    0  0.00000000000E+00 -0.00000000000E+00 -0.12092284863E+04  0.12092284863E+04  0.00000000000E+00 0. -1.
         25    2    1    2    0    0  0.54450300736E+02  0.20320357253E+02 -0.60997059806E+03  0.62535379676E+03  0.12500195383E+03 0.  0.
          4    1    3    3  502    0  0.36367506272E+02  0.72847504116E+02 -0.32771037283E+03  0.33767596262E+03  0.12700000000E+01 0. -1.
         -4    1    3    3    0  502  0.18082794465E+02 -0.52527146863E+02 -0.28226022523E+03  0.28767783414E+03  0.12700000000E+01 0. -1.
          2    1    1    2  503    0 -0.48584266099E+02  0.24751217170E+02 -0.42851675882E+03  0.43197183503E+03  0.00000000000E+00 0. -1.
         -2    1    1    2    0  501 -0.58660346374E+01 -0.45071574423E+02 -0.15812054196E+03  0.16452344202E+03  0.00000000000E+00 0.  1.
<mgrwt>
<rscale>  0 0.48767282E+02</rscale>
<asrwt>0</asrwt>
<pdfrwt beam="2">  1        1 0.18603513E+00 0.52324725E+02</pdfrwt>
<pdfrwt beam="1">  1       -1 0.19416290E-02 0.45451702E+02</pdfrwt>
<totfact> 0.72616576E+03</totfact>
</mgrwt>
</event>
<event>
 7    1  0.5277388E-004  0.6476268E+02  0.7546771E-02  0.1457255E+00
          2   -1    0    0  503    0  0.00000000000E+00  0.00000000000E+00  0.27338228404E+04  0.27338228404E+04  0.00000000000E+00 0. -1.
         -2   -1    0    0    0  501 -0.00000000000E+00 -0.00000000000E+00 -0.78841364204E+02  0.78841364204E+02  0.00000000000E+00 0.  1.
         25    2    1    2    0    0  0.45332521507E+02 -0.18123126546E+02  0.35993099188E+02  0.13890194888E+03  0.12495904526E+03 0.  0.
          4    1    3    3  502    0  0.16034229869E+02 -0.58385222531E+02  0.58538029351E+02  0.84227338304E+02  0.12700000000E+01 0.  1.
         -4    1    3    3    0  502  0.29298291638E+02  0.40262095984E+02 -0.22544930163E+02  0.54674610580E+02  0.12700000000E+01 0.  1.
          1    1    1    2  503    0 -0.37945472546E+02  0.52707521627E+02  0.26343893209E+04  0.26351897533E+04  0.00000000000E+00 0. -1.
         -1    1    1    2    0  501 -0.73870489611E+01 -0.34584395080E+02 -0.15400943858E+02  0.38572502475E+02  0.00000000000E+00 0.  1.
<mgrwt>
<rscale>  0 0.47857088E+02</rscale>
<asrwt>0</asrwt>
<pdfrwt beam="1">  1        2 0.42058806E+00 0.64762684E+02</pdfrwt>
<pdfrwt beam="2">  1       -2 0.12129443E-01 0.35364514E+02</pdfrwt>
<totfact> 0.15717932E+02</totfact>
</mgrwt>
</event>
<event>
 7    1  0.5277388E-004  0.7976117E+02  0.7546771E-02  0.1488804E+00
          2   -1    0    0  503    0  0.00000000000E+00  0.00000000000E+00  0.37925154601E+03  0.37925154601E+03  0.00000000000E+00 0. -1.
          1   -1    0    0  502    0 -0.00000000000E+00 -0.00000000000E+00 -0.13649334855E+03  0.13649334855E+03  0.00000000000E+00 0. -1.
         25    2    1    2    0    0  0.67092259384E+02  0.34347619458E+02  0.20073366981E+03  0.24819390993E+03  0.12500032199E+03 0.  0.
          4    1    3    3  501    0  0.38748287899E+02  0.26895301414E+02  0.21168617991E+03  0.21688116267E+03  0.12700000000E+01 0.  1.
         -4    1    3    3    0  501  0.28343971486E+02  0.74523180441E+01 -0.10952510100E+02  0.31312747265E+02  0.12700000000E+01 0.  1.
          2    1    1    2  502    0  0.14063587272E+02 -0.18108027579E+02 -0.10031303662E+03  0.10289990509E+03  0.00000000000E+00 0. -1.
          1    1    1    2  503    0 -0.81155846656E+02 -0.16239591879E+02  0.14233756427E+03  0.16465107954E+03  0.00000000000E+00 0. -1.
<mgrwt>
<rscale>  0 0.42763888E+02</rscale>
<asrwt>0</asrwt>
<pdfrwt beam="1">  1        2 0.58346391E-01 0.79761168E+02</pdfrwt>
<pdfrwt beam="2">  1        1 0.20998977E-01 0.22927825E+02</pdfrwt>
<totfact> 0.25162937E+03</totfact>
</mgrwt>
</event>
<event>
 7    1  0.5277388E-004  0.1137243E+03  0.7546771E-02  0.1425329E+00
          1   -1    0    0  502    0 -0.00000000000E+00  0.00000000000E+00  0.74076294516E+03  0.74076294516E+03  0.00000000000E+00 0. -1.
          2   -1    0    0  503    0  0.00000000000E+00 -0.00000000000E+00 -0.37960330964E+03  0.37960330964E+03  0.00000000000E+00 0. -1.
         25    2    1    2    0    0 -0.10362121739E+03  0.26674640181E+02  0.11056441106E+03  0.19824323973E+03  0.12500799968E+03 0.  0.
          4    1    3    3  501    0  0.10266225488E+02  0.25693154653E+02 -0.12650101208E+02  0.30449491660E+02  0.12700000000E+01 0. -1.
         -4    1    3    3    0  501 -0.11388744288E+03  0.98148552854E+00  0.12321451227E+03  0.16779374807E+03  0.12700000000E+01 0. -1.
          2    1    1    2  502    0  0.19103694185E+01  0.25483284501E+02  0.57633955076E+03  0.57690581993E+03  0.00000000000E+00 0. -1.
          1    1    1    2  503    0  0.10171084797E+03 -0.52157924683E+02 -0.32574432630E+03  0.34521719514E+03  0.00000000000E+00 0. -1.
<mgrwt>
<rscale>  0 0.53909182E+02</rscale>
<asrwt>0</asrwt>
<pdfrwt beam="2">  1        2 0.58400509E-01 0.11372427E+03</pdfrwt>
<pdfrwt beam="1">  1        1 0.11396353E+00 0.25554790E+02</pdfrwt>
<totfact> 0.33442098E+02</totfact>
</mgrwt>
</event>
<event>
 7    1  0.5277388E-004  0.1003393E+03  0.7546771E-02  0.1445861E+00
         -1   -1    0    0    0  501 -0.00000000000E+00  0.00000000000E+00  0.55815785399E+03  0.55815785399E+03  0.00000000000E+00 0.  1.
          1   -1    0    0  503    0  0.00000000000E+00 -0.00000000000E+00 -0.17333228085E+03  0.17333228085E+03  0.00000000000E+00 0. -1.
         25    2    1    2    0    0 -0.12170016396E+03 -0.14546454665E+02  0.10998533087E+02  0.17541106566E+03  0.12500217988E+03 0.  0.
          4    1    3    3  502    0 -0.12980347131E+03  0.43191783025E+01 -0.26577087136E+02  0.13257281368E+03  0.12700000000E+01 0. -1.
         -4    1    3    3    0  502  0.81033073556E+01 -0.18865632968E+02  0.37575620223E+02  0.42838251978E+02  0.12700000000E+01 0. -1.
          2    1    1    2  503    0  0.24509357322E+02 -0.39126183363E+01 -0.84049370455E+02  0.87637399850E+02  0.00000000000E+00 0. -1.
         -2    1    1    2    0  501  0.97190806633E+02  0.18459073002E+02  0.45787641051E+03  0.46844166934E+03  0.00000000000E+00 0.  1.
<mgrwt>
<rscale>  0 0.49903817E+02</rscale>
<asrwt>0</asrwt>
<pdfrwt beam="2">  1        1 0.26666505E-01 0.24819693E+02</pdfrwt>
<pdfrwt beam="1">  1       -1 0.85870438E-01 0.10033931E+03</pdfrwt>
<totfact> 0.24213240E+02</totfact>
</mgrwt>
</event>
<event>
 7    1  0.5277388E-004  0.6169547E+02  0.7546771E-02  0.1507144E+00
          1   -1    0    0  502    0 -0.00000000000E+00  0.00000000000E+00  0.38137214520E+03  0.38137214520E+03  0.00000000000E+00 0. -1.
          2   -1    0    0  503    0  0.00000000000E+00 -0.00000000000E+00 -0.22353877441E+03  0.22353877441E+03  0.00000000000E+00 0. -1.
         25    2    1    2    0    0 -0.35098678751E+02  0.44104854562E+02  0.26769031508E+02  0.13970627167E+03  0.12499642335E+03 0.  0.
          4    1    3    3  501    0  0.15980288910E+02 -0.34211482255E+02 -0.10231678295E+02  0.39141988867E+02  0.12700000000E+01 0.  1.
         -4    1    3    3    0  501 -0.51078967661E+02  0.78316336817E+02  0.37000709803E+02  0.10056428280E+03  0.12700000000E+01 0.  1.
          2    1    1    2  502    0 -0.20636497245E+02 -0.16016758980E+02  0.29170146524E+03  0.29286882117E+03  0.00000000000E+00 0. -1.
          1    1    1    2  503    0  0.55735175996E+02 -0.28088095581E+02 -0.16063712596E+03  0.17233582678E+03  0.00000000000E+00 0. -1.
<mgrwt>
<rscale>  0 0.40145480E+02</rscale>
<asrwt>0</asrwt>
<pdfrwt beam="2">  1        2 0.34390581E-01 0.61695472E+02</pdfrwt>
<pdfrwt beam="1">  1        1 0.58672638E-01 0.26122817E+02</pdfrwt>
<totfact> 0.13155708E+03</totfact>
</mgrwt>
</event>
<event>
 7    1  0.5277388E-004  0.7493270E+02  0.7546771E-02  0.1352352E+00
          1   -1    0    0  502    0 -0.00000000000E+00  0.00000000000E+00  0.38136013885E+03  0.38136013885E+03  0.00000000000E+00 0. -1.
          2   -1    0    0  503    0  0.00000000000E+00 -0.00000000000E+00 -0.50460258048E+03  0.50460258048E+03  0.00000000000E+00 0. -1.
         25    2    1    2    0    0 -0.21389665719E+02 -0.87317318988E+02  0.10846301785E+03  0.18833758360E+03  0.12499994864E+03 0.  0.
          4    1    3    3  501    0  0.31020974585E+02 -0.94161978349E+02  0.56072634131E+02  0.11390580419E+03  0.12700000000E+01 0.  1.
         -4    1    3    3    0  501 -0.52410640304E+02  0.68446593609E+01  0.52390383717E+02  0.74431779401E+02  0.12700000000E+01 0.  1.
          2    1    1    2  502    0 -0.45538714077E+02  0.52916316341E+02  0.22457741131E+03  0.23517849538E+03  0.00000000000E+00 0. -1.
          1    1    1    2  503    0  0.66928379797E+02  0.34401002647E+02 -0.45628287078E+03  0.46244664036E+03  0.00000000000E+00 0. -1.
<mgrwt>
<rscale>  0 0.72327772E+02</rscale>
<asrwt>0</asrwt>
<pdfrwt beam="2">  1        2 0.77631166E-01 0.74932699E+02</pdfrwt>
<pdfrwt beam="1">  1        1 0.58670791E-01 0.69813401E+02</pdfrwt>
<totfact> 0.56025807E+02</totfact>
</mgrwt>
</event>
<event>
 7    1  0.5277388E-004  0.1214171E+03  0.7546771E-02  0.1359831E+00
          2   -1    0    0  503    0  0.00000000000E+00  0.00000000000E+00  0.25191646303E+03  0.25191646303E+03  0.00000000000E+00 0. -1.
         -2   -1    0    0    0  501 -0.00000000000E+00 -0.00000000000E+00 -0.41583401664E+03  0.41583401664E+03  0.00000000000E+00 0.  1.
         25    2    1    2    0    0  0.10600947274E+02  0.12061498341E+03  0.69479800512E+02  0.18738521589E+03  0.12500168858E+03 0.  0.
          4    1    3    3  502    0 -0.37246590211E+02  0.11183493271E+03  0.72901055872E+02  0.13860208333E+03  0.12700000000E+01 0.  1.
         -4    1    3    3    0  502  0.47847537485E+02  0.87800506996E+01 -0.34212553597E+01  0.48783132555E+02  0.12700000000E+01 0.  1.
          1    1    1    2  503    0 -0.40377164428E+02 -0.23521134949E+01  0.10933818040E+03  0.11657909564E+03  0.00000000000E+00 0. -1.
         -1    1    1    2    0  501  0.29776217154E+02 -0.11826286992E+03 -0.34273553452E+03  0.36378616814E+03  0.00000000000E+00 0.  1.
<mgrwt>
<rscale>  0 0.70077036E+02</rscale>
<asrwt>0</asrwt>
<pdfrwt beam="1">  1        2 0.38756379E-01 0.40445616E+02</pdfrwt>
<pdfrwt beam="2">  1       -2 0.63974464E-01 0.12141714E+03</pdfrwt>
<totfact> 0.30283828E+02</totfact>
</mgrwt>
</event>
<event>
 7    1  0.5277388E-004  0.1053353E+03  0.7546771E-02  0.1380425E+00
          2   -1    0    0  503    0  0.00000000000E+00  0.00000000000E+00  0.58568365884E+03  0.58568365884E+03  0.00000000000E+00 0. -1.
         -2   -1    0    0    0  501 -0.00000000000E+00 -0.00000000000E+00 -0.41536809703E+03  0.41536809703E+03  0.00000000000E+00 0.  1.
         25    2    1    2    0    0  0.33541923138E+02 -0.61931737583E+02  0.27858598874E+02  0.14611172446E+03  0.12494772413E+03 0.  0.
          4    1    3    3  502    0  0.14165867319E+02 -0.55928181496E+02  0.75083819942E+02  0.94698607167E+02  0.12700000000E+01 0.  1.
         -4    1    3    3    0  502  0.19376055819E+02 -0.60035560867E+01 -0.47225221068E+02  0.51413117292E+02  0.12700000000E+01 0.  1.
          3    1    1    2  503    0  0.81424696075E+01 -0.38461932877E+02  0.48959969432E+03  0.49117561092E+03  0.00000000000E+00 0. -1.
         -1    1    1    2    0  501 -0.41684392745E+02  0.10039367046E+03 -0.34714273138E+03  0.36376442049E+03  0.00000000000E+00 0.  1.
<mgrwt>
<rscale>  0 0.64352099E+02</rscale>
<asrwt>0</asrwt>
<pdfrwt beam="1">  1        2 0.90105177E-01 0.39314375E+02</pdfrwt>
<pdfrwt beam="2">  1       -2 0.63902785E-01 0.10533533E+03</pdfrwt>
<totfact> 0.12808570E+02</totfact>
</mgrwt>
</event>
<event>
 7    1  0.5277388E-004  0.5125140E+02  0.7546771E-02  0.1511409E+00
         -2   -1    0    0    0  501 -0.00000000000E+00  0.00000000000E+00  0.44819346049E+02  0.44819346049E+02  0.00000000000E+00 0.  1.
          2   -1    0    0  503    0  0.00000000000E+00 -0.00000000000E+00 -0.36786635251E+03  0.36786635251E+03  0.00000000000E+00 0. -1.
         25    2    1    2    0    0  0.41580798031E+02 -0.39405464880E+01 -0.90048459860E+02  0.15961280767E+03  0.12499213006E+03 0.  0.
          4    1    3    3  502    0 -0.22746107256E+02 -0.41818333188E+02 -0.65576105717E+02  0.81043179398E+02  0.12700000000E+01 0.  1.
         -4    1    3    3    0  502  0.64326905288E+02  0.37877786700E+02 -0.24472354144E+02  0.78569628270E+02  0.12700000000E+01 0.  1.
          1    1    1    2  503    0 -0.40086774402E+02  0.34453074697E+02 -0.20475708909E+03  0.21146968901E+03  0.00000000000E+00 0. -1.
         -1    1    1    2    0  501 -0.14940236296E+01 -0.30512528209E+02 -0.28241457510E+02  0.41603201879E+02  0.00000000000E+00 0.  1.
<mgrwt>
<rscale>  0 0.39568716E+02</rscale>
<asrwt>0</asrwt>
<pdfrwt beam="2">  1        2 0.56594823E-01 0.51251401E+02</pdfrwt>
<pdfrwt beam="1">  1       -2 0.68952840E-02 0.30549083E+02</pdfrwt>
<totfact> 0.86201449E+03</totfact>
</mgrwt>
</event>
<event>
 7    1  0.5277388E-004  0.7402019E+02  0.7546771E-02  0.1473605E+00
          1   -1    0    0  503    0  0.00000000000E+00  0.00000000000E+00  0.17077505414E+04  0.17077505414E+04  0.00000000000E+00 0. -1.
         -3   -1    0    0    0  501 -0.00000000000E+00 -0.00000000000E+00 -0.41816750958E+02  0.41816750958E+02  0.00000000000E+00 0.  1.
         25    2    1    2    0    0 -0.69613490787E+02  0.58875095043E+02  0.53439197428E+03  0.55633815623E+03  0.12500018797E+03 0.  0.
          4    1    3    3  502    0 -0.91242744873E+02  0.74550807486E+02  0.49426284886E+03  0.50811459145E+03  0.12700000000E+01 0. -1.
         -4    1    3    3    0  502  0.21629254087E+02 -0.15675712444E+02  0.40129125421E+02  0.48223564779E+02  0.12700000000E+01 0. -1.
          2    1    1    2  503    0  0.39845592592E+01 -0.27211081192E+02  0.11189417237E+04  0.11192796347E+04  0.00000000000E+00 0. -1.
         -2    1    1    2    0  501  0.65628931528E+02 -0.31664013851E+02  0.12600092449E+02  0.73949501393E+02  0.00000000000E+00 0.  1.
<mgrwt>
<rscale>  0 0.45118168E+02</rscale>
<asrwt>0</asrwt>
<pdfrwt beam="1">  1        1 0.26273080E+00 0.27501266E+02</pdfrwt>
<pdfrwt beam="2">  1       -3 0.64333476E-02 0.74020194E+02</pdfrwt>
<totfact> 0.49044553E+02</totfact>
</mgrwt>
</event>
<event>
 7    1  0.5277388E-004  0.7733639E+02  0.7546771E-02  0.1508478E+00
          1   -1    0    0  502    0 -0.00000000000E+00  0.00000000000E+00  0.74643054685E+03  0.74643054685E+03  0.00000000000E+00 0. -1.
          2   -1    0    0  503    0  0.00000000000E+00 -0.00000000000E+00 -0.80106420249E+02  0.80106420249E+02  0.00000000000E+00 0. -1.
         25    2    1    2    0    0  0.28252771268E+02 -0.92110991780E+02  0.12839697620E+03  0.20345610922E+03  0.12500380391E+03 0.  0.
          4    1    3    3  501    0  0.71626278786E+02 -0.68086735494E+02  0.50185701839E+02  0.11084378617E+03  0.12700000000E+01 0.  1.
         -4    1    3    3    0  501 -0.43373507519E+02 -0.24024256286E+02  0.78211274356E+02  0.92612323051E+02  0.12700000000E+01 0.  1.
          2    1    1    2  502    0 -0.18938750571E+02  0.73679265171E+02  0.57533952318E+03  0.58034720411E+03  0.00000000000E+00 0. -1.
          1    1    1    2  503    0 -0.93140206971E+01  0.18431726609E+02 -0.37412372776E+02  0.42733653765E+02  0.00000000000E+00 0. -1.
<mgrwt>
<rscale>  0 0.39963774E+02</rscale>
<asrwt>0</asrwt>
<pdfrwt beam="2">  1        2 0.12324065E-01 0.20651381E+02</pdfrwt>
<pdfrwt beam="1">  1        1 0.11483546E+00 0.77336389E+02</pdfrwt>
<totfact> 0.15514749E+03</totfact>
</mgrwt>
</event>
<event>
 7    1  0.5277388E-004  0.4878707E+02  0.7546771E-02  0.1493019E+00
          1   -1    0    0  502    0 -0.00000000000E+00  0.00000000000E+00  0.74768360888E+02  0.74768360888E+02  0.00000000000E+00 0. -1.
          2   -1    0    0  503    0  0.00000000000E+00 -0.00000000000E+00 -0.23069668552E+03  0.23069668552E+03  0.00000000000E+00 0. -1.
         25    2    1    2    0    0  0.40614696688E+02 -0.21141303691E+02 -0.16722275226E+02  0.13412894059E+03  0.12495771247E+03 0.  0.
          4    1    3    3  501    0  0.38843084436E+02  0.49176846642E+02 -0.60314310295E+01  0.62969345831E+02  0.12700000000E+01 0. -1.
         -4    1    3    3    0  501  0.17716122519E+01 -0.70318150332E+02 -0.10690844196E+02  0.71159594756E+02  0.12700000000E+01 0. -1.
          2    1    1    2  502    0 -0.25008987006E+02 -0.26449617738E+02 -0.18886937930E+02  0.41009122570E+02  0.00000000000E+00 0. -1.
          1    1    1    2  503    0 -0.15605709681E+02  0.47590921429E+02 -0.12031911148E+03  0.13032698325E+03  0.00000000000E+00 0. -1.
<mgrwt>
<rscale>  0 0.42141397E+02</rscale>
<asrwt>0</asrwt>
<pdfrwt beam="2">  1        2 0.35491797E-01 0.48787068E+02</pdfrwt>
<pdfrwt beam="1">  1        1 0.11502825E-01 0.36400985E+02</pdfrwt>
<totfact> 0.90060662E+03</totfact>
</mgrwt>
</event>
<event>
 7    1  0.5277388E-004  0.1132580E+03  0.7546771E-02  0.1317797E+00
          2   -1    0    0  503    0  0.00000000000E+00  0.00000000000E+00  0.20915253143E+04  0.20915253143E+04  0.00000000000E+00 0. -1.
         -2   -1    0    0    0  501 -0.00000000000E+00 -0.00000000000E+00 -0.72146303245E+03  0.72146303245E+03  0.00000000000E+00 0.  1.
         25    2    1    2    0    0  0.33163340229E+02  0.52862341984E+02 -0.38261911764E+02  0.14485590818E+03  0.12500010364E+03 0.  0.
          4    1    3    3  502    0  0.21669393992E+02 -0.33351271327E+02  0.15378203422E+02  0.42661129563E+02  0.12700000000E+01 0.  1.
         -4    1    3    3    0  502  0.11493946237E+02  0.86213613312E+02 -0.53640115186E+02  0.10219477862E+03  0.12700000000E+01 0.  1.
          1    1    1    2  503    0 -0.16480047766E+02 -0.11304487325E+03  0.20350744430E+04  0.20382783725E+04  0.00000000000E+00 0. -1.
         -1    1    1    2    0  501 -0.16683292463E+02  0.60182531266E+02 -0.62675024943E+03  0.62985406601E+03  0.00000000000E+00 0.  1.
<mgrwt>
<rscale>  0 0.84102333E+02</rscale>
<asrwt>0</asrwt>
<pdfrwt beam="1">  1        2 0.32177312E+00 0.11325797E+03</pdfrwt>
<pdfrwt beam="2">  1       -2 0.11099431E+00 0.62452136E+02</pdfrwt>
<totfact> 0.52275746E+00</totfact>
</mgrwt>
</event>
<event>
 7    1  0.5277388E-004  0.8357383E+02  0.7546771E-02  0.1355025E+00
         -1   -1    0    0    0  501 -0.00000000000E+00  0.00000000000E+00  0.81852074448E+03  0.81852074448E+03  0.00000000000E+00 0.  1.
          1   -1    0    0  503    0  0.00000000000E+00 -0.00000000000E+00 -0.40651163675E+03  0.40651163675E+03  0.00000000000E+00 0. -1.
         25    2    1    2    0    0 -0.45307833223E+02 -0.37986533794E+02 -0.11172850648E+03  0.17775708259E+03  0.12497417633E+03 0.  0.
          4    1    3    3  502    0 -0.14423440793E+02 -0.47723544448E+02 -0.13091709195E+03  0.14009450454E+03  0.12700000000E+01 0.  1.
         -4    1    3    3    0  502 -0.30884392430E+02  0.97370106541E+01  0.19188585473E+02  0.37662578041E+02  0.12700000000E+01 0.  1.
          2    1    1    2  503    0  0.40233273784E+02 -0.46104633110E+02 -0.25589238195E+03  0.26310694528E+03  0.00000000000E+00 0. -1.
         -2    1    1    2    0  501  0.50745594391E+01  0.84091166904E+02  0.77962999616E+03  0.78416835336E+03  0.00000000000E+00 0.  1.
<mgrwt>
<rscale>  0 0.71512072E+02</rscale>
<asrwt>0</asrwt>
<pdfrwt beam="2">  1        1 0.62540252E-01 0.61191123E+02</pdfrwt>
<pdfrwt beam="1">  1       -1 0.12592627E+00 0.83573830E+02</pdfrwt>
<totfact> 0.38520703E+01</totfact>
</mgrwt>
</event>
<event>
 7    1  0.5277388E-004  0.3084386E+03  0.7546771E-02  0.1236107E+00
          2   -1    0    0  503    0  0.00000000000E+00  0.00000000000E+00  0.87418060256E+03  0.87418060256E+03  0.00000000000E+00 0. -1.
          1   -1    0    0  502    0 -0.00000000000E+00 -0.00000000000E+00 -0.24930607253E+03  0.24930607253E+03  0.00000000000E+00 0. -1.
         25    2    1    2    0    0 -0.23424047958E+03 -0.14077640425E+03  0.33878975502E+02  0.30242275997E+03  0.12500057000E+03 0.  0.
          4    1    3    3  501    0 -0.42517929279E+02 -0.40148377885E+02 -0.43057480375E+02  0.72630751567E+02  0.12700000000E+01 0. -1.
         -4    1    3    3    0  501 -0.19172255030E+03 -0.10062802636E+03  0.76936455877E+02  0.22979200840E+03  0.12700000000E+01 0. -1.
          2    1    1    2  502    0 -0.25144536279E+02 -0.43360474580E+02 -0.70824262823E+02  0.86766667937E+02  0.00000000000E+00 0. -1.
          1    1    1    2  503    0  0.25938501585E+03  0.18413687883E+03  0.66181981735E+03  0.73429724719E+03  0.00000000000E+00 0. -1.
<mgrwt>
<rscale>  0 0.12433850E+03</rscale>
<asrwt>0</asrwt>
<pdfrwt beam="1">  1        2 0.13448932E+00 0.30843859E+03</pdfrwt>
<pdfrwt beam="2">  1        1 0.38354781E-01 0.50123632E+02</pdfrwt>
<totfact> 0.46905933E+02</totfact>
</mgrwt>
</event>
<event>
 7    1  0.5277388E-004  0.1277207E+03  0.7546771E-02  0.1410473E+00
          1   -1    0    0  502    0 -0.00000000000E+00  0.00000000000E+00  0.78753317614E+03  0.78753317614E+03  0.00000000000E+00 0. -1.
          2   -1    0    0  503    0  0.00000000000E+00 -0.00000000000E+00 -0.72974713479E+03  0.72974713479E+03  0.00000000000E+00 0. -1.
         25    2    1    2    0    0  0.84877882372E+02 -0.11577676898E+03  0.86507701016E+02  0.20908596490E+03  0.12499937292E+03 0.  0.
          4    1    3    3  501    0  0.33634553826E+02  0.23468999560E+02  0.27536402881E+02  0.49416025084E+02  0.12700000000E+01 0.  1.
         -4    1    3    3    0  501  0.51243328546E+02 -0.13924576854E+03  0.58971298135E+02  0.15966993981E+03  0.12700000000E+01 0.  1.
          2    1    1    2  502    0  0.42854213615E+01  0.25154975199E+02  0.63343247621E+03  0.63394624341E+03  0.00000000000E+00 0. -1.
          1    1    1    2  503    0 -0.89163303733E+02  0.90621793777E+02 -0.66215413587E+03  0.67424810263E+03  0.00000000000E+00 0. -1.
<mgrwt>
<rscale>  0 0.57088526E+02</rscale>
<asrwt>0</asrwt>
<pdfrwt beam="2">  1        2 0.11226879E+00 0.12772069E+03</pdfrwt>
<pdfrwt beam="1">  1        1 0.12115895E+00 0.25517398E+02</pdfrwt>
<totfact> 0.14851070E+02</totfact>
</mgrwt>
</event>
<event>
 7    1  0.5277388E-004  0.1307630E+03  0.7546771E-02  0.1289829E+00
          2   -1    0    0  503    0  0.00000000000E+00  0.00000000000E+00  0.25711078913E+04  0.25711078913E+04  0.00000000000E+00 0. -1.
          1   -1    0    0  502    0 -0.00000000000E+00 -0.00000000000E+00 -0.19317926509E+03  0.19317926509E+03  0.00000000000E+00 0. -1.
         25    2    1    2    0    0 -0.63760882267E+02  0.19186642769E+02  0.48677652080E+03  0.50696041137E+03  0.12499560045E+03 0.  0.
          4    1    3    3  501    0 -0.28852163185E+02  0.66722049664E+02  0.35810868045E+03  0.36541444847E+03  0.12700000000E+01 0.  1.
         -4    1    3    3    0  501 -0.34908719082E+02 -0.47535406895E+02  0.12866784034E+03  0.14154596291E+03  0.12700000000E+01 0.  1.
          2    1    1    2  502    0  0.13337493436E+03 -0.12944598257E+02 -0.15789246750E+03  0.20709048031E+03  0.00000000000E+00 0. -1.
          1    1    1    2  503    0 -0.69614052095E+02 -0.62420445117E+01  0.20490445729E+04  0.20502362647E+04  0.00000000000E+00 0. -1.
<mgrwt>
<rscale>  0 0.95600530E+02</rscale>
<asrwt>0</asrwt>
<pdfrwt beam="1">  1        2 0.39555504E+00 0.69893343E+02</pdfrwt>
<pdfrwt beam="2">  1        1 0.29719889E-01 0.13076297E+03</pdfrwt>
<totfact> 0.91047239E+01</totfact>
</mgrwt>
</event>
<event>
 7    1  0.5277388E-004  0.7381663E+02  0.7546771E-02  0.1374212E+00
          1   -1    0    0  502    0 -0.00000000000E+00  0.00000000000E+00  0.16741127104E+04  0.16741127104E+04  0.00000000000E+00 0. -1.
          2   -1    0    0  503    0  0.00000000000E+00 -0.00000000000E+00 -0.50087260376E+03  0.50087260376E+03  0.00000000000E+00 0. -1.
         25    2    1    2    0    0  0.73904549177E+02 -0.57865961460E+02 -0.27742903417E+03  0.31844465258E+03  0.12501910202E+03 0.  0.
          4    1    3    3  501    0  0.85197689828E+02 -0.85922538944E+02 -0.18391897009E+03  0.22015705646E+03  0.12700000000E+01 0.  1.
         -4    1    3    3    0  501 -0.11293140651E+02  0.28056577484E+02 -0.93510064081E+02  0.98287596116E+02  0.12700000000E+01 0.  1.
          2    1    1    2  502    0 -0.16286081969E+01  0.59006350345E+02  0.16466223259E+04  0.16476800314E+04  0.00000000000E+00 0. -1.
          1    1    1    2  503    0 -0.72275940980E+02 -0.11403888854E+01 -0.19595318504E+03  0.20886063023E+03  0.00000000000E+00 0. -1.
<mgrwt>
<rscale>  0 0.66009914E+02</rscale>
<asrwt>0</asrwt>
<pdfrwt beam="2">  1        2 0.77057324E-01 0.73816631E+02</pdfrwt>
<pdfrwt beam="1">  1        1 0.25755580E+00 0.59028821E+02</pdfrwt>
<totfact> 0.55917403E+01</totfact>
</mgrwt>
</event>
<event>
 7    1  0.5277388E-004  0.5957507E+02  0.7546771E-02  0.1442160E+00
          2   -1    0    0  503    0  0.00000000000E+00  0.00000000000E+00  0.23946572479E+02  0.23946572479E+02  0.00000000000E+00 0. -1.
          1   -1    0    0  502    0 -0.00000000000E+00 -0.00000000000E+00 -0.79594886026E+03  0.79594886026E+03  0.00000000000E+00 0. -1.
         25    2    1    2    0    0 -0.45806321739E+02  0.52922767109E+02 -0.43477452503E+03  0.45776897091E+03  0.12499801888E+03 0.  0.
          4    1    3    3  501    0  0.32105573200E+02  0.16733896791E+02 -0.40918229178E+02  0.54650759477E+02  0.12700000000E+01 0.  1.
         -4    1    3    3    0  501 -0.77911894939E+02  0.36188870318E+02 -0.39385629586E+03  0.40311821144E+03  0.12700000000E+01 0.  1.
          2    1    1    2  502    0  0.42414146079E+02  0.68777071067E+01 -0.26422790986E+03  0.26769880648E+03  0.00000000000E+00 0. -1.
          1    1    1    2  503    0  0.33921756609E+01 -0.59800474216E+02 -0.72999852892E+02  0.94427655347E+02  0.00000000000E+00 0. -1.
<mgrwt>
<rscale>  0 0.50594772E+02</rscale>
<asrwt>0</asrwt>
<pdfrwt beam="1">  1        2 0.36840880E-02 0.59575068E+02</pdfrwt>
<pdfrwt beam="2">  1        1 0.12245367E+00 0.42968158E+02</pdfrwt>
<totfact> 0.70293686E+03</totfact>
</mgrwt>
</event>
<event>
 7    1  0.5277388E-004  0.1174816E+03  0.7546771E-02  0.1363008E+00
          2   -1    0    0  503    0  0.00000000000E+00  0.00000000000E+00  0.14401281919E+04  0.14401281919E+04  0.00000000000E+00 0. -1.
          1   -1    0    0  502    0 -0.00000000000E+00 -0.00000000000E+00 -0.86240005247E+03  0.86240005247E+03  0.00000000000E+00 0. -1.
         25    2    1    2    0    0  0.10141199325E+03  0.32608493262E+02  0.65995196661E+03  0.68008199795E+03  0.12500887766E+03 0.  0.
          4    1    3    3  501    0  0.12667075578E+03  0.40499815149E+02  0.59958134026E+03  0.61415398060E+03  0.12700000000E+01 0. -1.
         -4    1    3    3    0  501 -0.25258762532E+02 -0.78913218870E+01  0.60370626354E+02  0.65928017353E+02  0.12700000000E+01 0. -1.
          2    1    1    2  502    0 -0.33167631636E+00  0.40700269305E+02 -0.84678159717E+03  0.84775922008E+03  0.00000000000E+00 0. -1.
          1    1    1    2  503    0 -0.10108031693E+03 -0.73308762566E+02  0.76455777002E+03  0.77468702638E+03  0.00000000000E+00 0. -1.
<mgrwt>
<rscale>  0 0.69149763E+02</rscale>
<asrwt>0</asrwt>
<pdfrwt beam="1">  1        2 0.22155818E+00 0.11748156E+03</pdfrwt>
<pdfrwt beam="2">  1        1 0.13267693E+00 0.40701621E+02</pdfrwt>
<totfact> 0.48873080E+01</totfact>
</mgrwt>
</event>
<event>
 7    1  0.5277388E-004  0.6288897E+02  0.7546771E-02  0.1485343E+00
          2   -1    0    0  503    0  0.00000000000E+00  0.00000000000E+00  0.72007559076E+03  0.72007559076E+03  0.00000000000E+00 0. -1.
          1   -1    0    0  502    0 -0.00000000000E+00 -0.00000000000E+00 -0.60782592809E+03  0.60782592809E+03  0.00000000000E+00 0. -1.
         25    2    1    2    0    0 -0.54663377703E+02 -0.26734065871E+02  0.10304591931E+03  0.17308670220E+03  0.12505098901E+03 0.  0.
          4    1    3    3  501    0  0.39624149998E+02 -0.35078107671E+01  0.16785814982E+02  0.43194380237E+02  0.12700000000E+01 0. -1.
         -4    1    3    3    0  501 -0.94287527701E+02 -0.23226255104E+02  0.86260104326E+02  0.12989232196E+03  0.12700000000E+01 0. -1.
          2    1    1    2  502    0  0.37183343601E+02  0.50858566750E+02 -0.57068965122E+03  0.57415666230E+03  0.00000000000E+00 0. -1.
          1    1    1    2  503    0  0.17480034102E+02 -0.24124500879E+02  0.57989339458E+03  0.58065815435E+03  0.00000000000E+00 0. -1.
<mgrwt>
<rscale>  0 0.43284720E+02</rscale>
<asrwt>0</asrwt>
<pdfrwt beam="1">  1        2 0.11078086E+00 0.29791662E+02</pdfrwt>
<pdfrwt beam="2">  1        1 0.93511682E-01 0.62888970E+02</pdfrwt>
<totfact> 0.21576910E+02</totfact>
</mgrwt>
</event>
<event>
 7    1  0.5277388E-004  0.1111728E+03  0.7546771E-02  0.1292720E+00
          1   -1    0    0  502    0 -0.00000000000E+00  0.00000000000E+00  0.68503595863E+03  0.68503595863E+03  0.00000000000E+00 0. -1.
          2   -1    0    0  503    0  0.00000000000E+00 -0.00000000000E+00 -0.20275331614E+04  0.20275331614E+04  0.00000000000E+00 0. -1.
         25    2    1    2    0    0  0.63738452677E+02  0.11747815832E+03  0.37741260878E+02  0.18683722370E+03  0.12498014785E+03 0.  0.
          4    1    3    3  501    0  0.36405256445E+02  0.74992878280E+02  0.83983227589E+02  0.11833879290E+03  0.12700000000E+01 0.  1.
         -4    1    3    3    0  501  0.27333196232E+02  0.42485280042E+02 -0.46241966712E+02  0.68498430799E+02  0.12700000000E+01 0.  1.
          2    1    1    2  502    0 -0.10105800015E+03 -0.46695375230E+02  0.56650748931E+03  0.57734211080E+03  0.00000000000E+00 0. -1.
          3    1    1    2  503    0  0.37319547470E+02 -0.70782783093E+02 -0.19467459529E+04  0.19483897855E+04  0.00000000000E+00 0. -1.
<mgrwt>
<rscale>  0 0.94317951E+02</rscale>
<asrwt>0</asrwt>
<pdfrwt beam="2">  1        2 0.31192818E+00 0.80018442E+02</pdfrwt>
<pdfrwt beam="1">  1        1 0.10539015E+00 0.11117282E+03</pdfrwt>
<totfact> 0.33924362E+01</totfact>
</mgrwt>
</event>
<event>
 7    1  0.5277388E-004  0.4780288E+02  0.7546771E-02  0.1463760E+00
          1   -1    0    0  502    0 -0.00000000000E+00  0.00000000000E+00  0.14676252979E+03  0.14676252979E+03  0.00000000000E+00 0. -1.
          2   -1    0    0  503    0  0.00000000000E+00 -0.00000000000E+00 -0.31166205521E+04  0.31166205521E+04  0.00000000000E+00 0. -1.
         25    2    1    2    0    0 -0.57413306065E+02 -0.63749103773E+02 -0.35405493282E+03  0.38514602883E+03  0.12498932805E+03 0.  0.
          4    1    3    3  501    0 -0.91927469179E+02 -0.56083008233E+02 -0.20074654776E+03  0.22780858794E+03  0.12700000000E+01 0. -1.
         -4    1    3    3    0  501  0.34514163114E+02 -0.76660955397E+01 -0.15330838507E+03  0.15733744090E+03  0.12700000000E+01 0. -1.
          2    1    1    2  502    0  0.14675667591E+02  0.43281164011E+02  0.12702676403E+03  0.13499790057E+03  0.00000000000E+00 0. -1.
          1    1    1    2  503    0  0.42737638474E+02  0.20467939761E+02 -0.27428298535E+04  0.27432391525E+04  0.00000000000E+00 0. -1.
<mgrwt>
<rscale>  0 0.46740422E+02</rscale>
<asrwt>0</asrwt>
<pdfrwt beam="2">  1        2 0.47948012E+00 0.47802878E+02</pdfrwt>
<pdfrwt beam="1">  1        1 0.22578849E-01 0.45701580E+02</pdfrwt>
<totfact> 0.66799050E+01</totfact>
</mgrwt>
</event>
<event>
 7    1  0.5277388E-004  0.1755976E+03  0.7546771E-02  0.1262390E+00
          1   -1    0    0  502    0 -0.00000000000E+00  0.00000000000E+00  0.46018461665E+03  0.46018461665E+03  0.00000000000E+00 0. -1.
          2   -1    0    0  503    0  0.00000000000E+00 -0.00000000000E+00 -0.79536586270E+03  0.79536586270E+03  0.00000000000E+00 0. -1.
         25    2    1    2    0    0  0.15951529487E+03  0.73976639961E+01 -0.76968554093E+01  0.20293704417E+03  0.12499739032E+03 0.  0.
          4    1    3    3  501    0 -0.13737364706E+02  0.20333277706E+01 -0.25111949110E+02  0.28724075251E+02  0.12700000000E+01 0. -1.
         -4    1    3    3    0  501  0.17325265957E+03  0.53643362255E+01  0.17415093701E+02  0.17421296892E+03  0.12700000000E+01 0. -1.
          2    1    1    2  502    0 -0.16490261656E+03 -0.74871837571E+02  0.33812472697E+03  0.38357137015E+03  0.00000000000E+00 0. -1.
          1    1    1    2  503    0  0.53873216920E+01  0.67474173574E+02 -0.66560911761E+03  0.66904206503E+03  0.00000000000E+00 0. -1.
<mgrwt>
<rscale>  0 0.10902298E+03</rscale>
<asrwt>0</asrwt>
<pdfrwt beam="2">  1        2 0.12236398E+00 0.67688901E+02</pdfrwt>
<pdfrwt beam="1">  1        1 0.70797634E-01 0.17559761E+03</pdfrwt>
<totfact> 0.26186818E+02</totfact>
</mgrwt>
</event>
<event>
 7    1  0.5277388E-004  0.1129888E+03  0.7546771E-02  0.1427966E+00
          1   -1    0    0  503    0  0.00000000000E+00  0.00000000000E+00  0.98008871204E+03  0.98008871204E+03  0.00000000000E+00 0. -1.
         -1   -1    0    0    0  501 -0.00000000000E+00 -0.00000000000E+00 -0.11362501153E+03  0.11362501153E+03  0.00000000000E+00 0.  1.
         25    2    1    2    0    0  0.17800167559E+02 -0.13091243224E+03  0.81072654008E+01  0.18205493358E+03  0.12499344066E+03 0.  0.
          4    1    3    3  502    0  0.50469686146E+02 -0.13135218686E+03 -0.15722018819E+02  0.14159583677E+03  0.12700000000E+01 0. -1.
         -4    1    3    3    0  502 -0.32669518587E+02  0.43975462252E+00  0.23829284220E+02  0.40459096817E+02  0.12700000000E+01 0. -1.
          2    1    1    2  503    0 -0.86441192056E+00  0.11223874215E+03  0.87453229558E+03  0.88170574369E+03  0.00000000000E+00 0. -1.
         -2    1    1    2    0  501 -0.16935755638E+02  0.18673690090E+02 -0.16175860468E+02  0.29953046297E+02  0.00000000000E+00 0.  1.
<mgrwt>
<rscale>  0 0.53370471E+02</rscale>
<asrwt>0</asrwt>
<pdfrwt beam="1">  1        1 0.15078287E+00 0.11298876E+03</pdfrwt>
<pdfrwt beam="2">  1       -1 0.17480772E-01 0.25209651E+02</pdfrwt>
<totfact> 0.39490550E+02</totfact>
</mgrwt>
</event>
<event>
 7    1  0.5277388E-004  0.1660047E+03  0.7546771E-02  0.1340807E+00
         -2   -1    0    0    0  501 -0.00000000000E+00  0.00000000000E+00  0.28297337863E+03  0.28297337863E+03  0.00000000000E+00 0.  1.
          2   -1    0    0  503    0  0.00000000000E+00 -0.00000000000E+00 -0.70834469213E+03  0.70834469213E+03  0.00000000000E+00 0. -1.
         25    2    1    2    0    0 -0.11596243948E+03 -0.68416821107E+02 -0.25860772934E+03  0.31721049244E+03  0.12496555549E+03 0.  0.
          4    1    3    3  502    0  0.13086287821E+02 -0.46987084382E+02 -0.10260017392E+03  0.11361093969E+03  0.12700000000E+01 0. -1.
         -4    1    3    3    0  502 -0.12904872730E+03 -0.21429736725E+02 -0.15600755542E+03  0.20359955276E+03  0.12700000000E+01 0. -1.
          3    1    1    2  503    0 -0.26817368158E+02 -0.22166712961E+02 -0.39140033773E+03  0.39294370942E+03  0.00000000000E+00 0. -1.
         -1    1    1    2    0  501  0.14277980764E+03  0.90583534068E+02  0.22463675357E+03  0.28116386889E+03  0.00000000000E+00 0.  1.
<mgrwt>
<rscale>  0 0.75998409E+02</rscale>
<asrwt>0</asrwt>
<pdfrwt beam="2">  1        2 0.10897611E+00 0.34792735E+02</pdfrwt>
<pdfrwt beam="1">  1       -2 0.43534366E-01 0.16600472E+03</pdfrwt>
<totfact> 0.22457961E+02</totfact>
</mgrwt>
</event>
<event>
 7    1  0.5277388E-004  0.1129397E+03  0.7546771E-02  0.1387393E+00
          2   -1    0    0  503    0  0.00000000000E+00  0.00000000000E+00  0.16981627177E+03  0.16981627177E+03  0.00000000000E+00 0. -1.
          1   -1    0    0  502    0 -0.00000000000E+00 -0.00000000000E+00 -0.94063362018E+03  0.94063362018E+03  0.00000000000E+00 0. -1.
         25    2    1    2    0    0 -0.41520224991E+02  0.89357337188E+02 -0.21755962290E+03  0.26956733394E+03  0.12500278085E+03 0.  0.
          4    1    3    3  501    0 -0.54444290769E+02  0.30436101544E+02 -0.19568452989E+03  0.20538886341E+03  0.12700000000E+01 0. -1.
         -4    1    3    3    0  501  0.12924065778E+02  0.58921235643E+02 -0.21875093010E+02  0.64178470535E+02  0.12700000000E+01 0. -1.
          2    1    1    2  502    0  0.24912979868E+02  0.24086958845E+02 -0.67370218569E+03  0.67459282027E+03  0.00000000000E+00 0. -1.
          1    1    1    2  503    0  0.16607245123E+02 -0.11344429603E+03  0.12044446018E+03  0.16628973775E+03  0.00000000000E+00 0. -1.
<mgrwt>
<rscale>  0 0.62559670E+02</rscale>
<asrwt>0</asrwt>
<pdfrwt beam="1">  1        2 0.26125580E-01 0.11293971E+03</pdfrwt>
<pdfrwt beam="2">  1        1 0.14471286E+00 0.34653112E+02</pdfrwt>
<totfact> 0.54907491E+02</totfact>
</mgrwt>
</event>
<event>
 7    1  0.5277388E-004  0.7852097E+02  0.7546771E-02  0.1367126E+00
         -1   -1    0    0    0  501 -0.00000000000E+00  0.00000000000E+00  0.13811640943E+03  0.13811640943E+03  0.00000000000E+00 0.  1.
          1   -1    0    0  503    0  0.00000000000E+00 -0.00000000000E+00 -0.19451350349E+04  0.19451350349E+04  0.00000000000E+00 0. -1.
         25    2    1    2    0    0  0.78097685380E+01  0.65436126909E+02 -0.17330599338E+03  0.22361375889E+03  0.12500106652E+03 0.  0.
          4    1    3    3  502    0  0.41786488805E+01 -0.33035363818E+02 -0.84970707325E+02  0.91271191361E+02  0.12700000000E+01 0. -1.
         -4    1    3    3    0  502  0.36311196575E+01  0.98471490728E+02 -0.88335286058E+02  0.13234256752E+03  0.12700000000E+01 0. -1.
          2    1    1    2  503    0 -0.63897401921E+02 -0.47646175572E+02 -0.17380368481E+04  0.17398635353E+04  0.00000000000E+00 0. -1.
         -2    1    1    2    0  501  0.56087633383E+02 -0.17789951337E+02  0.10432421605E+03  0.11977415014E+03  0.00000000000E+00 0.  1.
<mgrwt>
<rscale>  0 0.67972642E+02</rscale>
<asrwt>0</asrwt>
<pdfrwt beam="2">  1        1 0.29925152E+00 0.78520968E+02</pdfrwt>
<pdfrwt beam="1">  1       -1 0.21248680E-01 0.58841354E+02</pdfrwt>
<totfact> 0.74148296E+01</totfact>
</mgrwt>
</event>
<event>
 7    1  0.5277388E-004  0.5386956E+02  0.7546771E-02  0.1522572E+00
          1   -1    0    0  502    0 -0.00000000000E+00  0.00000000000E+00  0.25420144993E+02  0.25420144993E+02  0.00000000000E+00 0. -1.
          2   -1    0    0  503    0  0.00000000000E+00 -0.00000000000E+00 -0.79437256252E+03  0.79437256252E+03  0.00000000000E+00 0. -1.
         25    2    1    2    0    0 -0.36987918766E+02 -0.11027059016E+02 -0.21477013917E+03  0.25147871720E+03  0.12500252140E+03 0.  0.
          4    1    3    3  501    0 -0.46024163581E+02  0.55086000898E+01 -0.12089601595E+02  0.47920138512E+02  0.12700000000E+01 0. -1.
         -4    1    3    3    0  501  0.90362448150E+01 -0.16535659106E+02 -0.20268053758E+03  0.20355857868E+03  0.12700000000E+01 0. -1.
          2    1    1    2  502    0  0.63817933216E+02  0.83256958843E+01 -0.14988245589E+03  0.16311589866E+03  0.00000000000E+00 0. -1.
          1    1    1    2  503    0 -0.26830014450E+02  0.27013631314E+01 -0.40429982247E+03  0.40519809166E+03  0.00000000000E+00 0. -1.
<mgrwt>
<rscale>  0 0.38113363E+02</rscale>
<asrwt>0</asrwt>
<pdfrwt beam="2">  1        2 0.12221118E+00 0.26965664E+02</pdfrwt>
<pdfrwt beam="1">  1        1 0.39107909E-02 0.53869560E+02</pdfrwt>
<totfact> 0.10550422E+04</totfact>
</mgrwt>
</event>
<event>
 7    1  0.5277388E-004  0.5364139E+02  0.7546771E-02  0.1561529E+00
         -2   -1    0    0    0  501 -0.00000000000E+00  0.00000000000E+00  0.51089265790E+03  0.51089265790E+03  0.00000000000E+00 0.  1.
          2   -1    0    0  503    0  0.00000000000E+00 -0.00000000000E+00 -0.22915220272E+04  0.22915220272E+04  0.00000000000E+00 0. -1.
         25    2    1    2    0    0 -0.37079129975E+02  0.93903412610E+01 -0.24269547165E+03  0.27566191471E+03  0.12500143548E+03 0.  0.
          4    1    3    3  502    0  0.18456428826E+01  0.36632619131E+02 -0.21991541692E+03  0.22295685386E+03  0.12700000000E+01 0.  1.
         -4    1    3    3    0  502 -0.38924772858E+02 -0.27242277870E+02 -0.22780054727E+02  0.52705060848E+02  0.12700000000E+01 0.  1.
          1    1    1    2  503    0  0.53919960625E+02  0.32030756283E+01 -0.20317606293E+04  0.20324785058E+04  0.00000000000E+00 0. -1.
         -1    1    1    2    0  501 -0.16840830650E+02 -0.12593416889E+02  0.49382673165E+03  0.49427426457E+03  0.00000000000E+00 0.  1.
<mgrwt>
<rscale>  0 0.33585869E+02</rscale>
<asrwt>0</asrwt>
<pdfrwt beam="2">  1        2 0.35254185E+00 0.53641388E+02</pdfrwt>
<pdfrwt beam="1">  1       -2 0.78598871E-01 0.21028736E+02</pdfrwt>
<totfact> 0.99072884E+00</totfact>
</mgrwt>
</event>
<event>
 7    1  0.5277388E-004  0.1108629E+03  0.7546771E-02  0.1310332E+00
          1   -1    0    0  502    0 -0.00000000000E+00  0.00000000000E+00  0.26836177334E+03  0.26836177334E+03  0.00000000000E+00 0. -1.
          2   -1    0    0  503    0  0.00000000000E+00 -0.00000000000E+00 -0.15395367645E+04  0.15395367645E+04  0.00000000000E+00 0. -1.
         25    2    1    2    0    0  0.83540930066E+01  0.48635170526E+02  0.17209077570E+03  0.21835610580E+03  0.12501593169E+03 0.  0.
          4    1    3    3  501    0  0.44724911787E+02  0.22011548854E+02  0.10986211597E+02  0.51060119101E+02  0.12700000000E+01 0. -1.
         -4    1    3    3    0  501 -0.36370818780E+02  0.26623621672E+02  0.16110456410E+03  0.16729598670E+03  0.12700000000E+01 0. -1.
          2    1    1    2  502    0  0.50015442057E+02  0.46429278951E+02  0.54680490245E+02  0.87448146930E+02  0.00000000000E+00 0. -1.
          1    1    1    2  503    0 -0.58369535064E+02 -0.95064449478E+02 -0.14979462571E+04  0.15020942851E+04  0.00000000000E+00 0. -1.
<mgrwt>
<rscale>  0 0.86981111E+02</rscale>
<asrwt>0</asrwt>
<pdfrwt beam="2">  1        2 0.23685181E+00 0.11086295E+03</pdfrwt>
<pdfrwt beam="1">  1        1 0.41286427E-01 0.68243845E+02</pdfrwt>
<totfact> 0.19172319E+02</totfact>
</mgrwt>
</event>
<event>
 7    1  0.5277388E-004  0.7316278E+02  0.7546771E-02  0.1512760E+00
          2   -1    0    0  503    0  0.00000000000E+00  0.00000000000E+00  0.12688784048E+03  0.12688784048E+03  0.00000000000E+00 0. -1.
          1   -1    0    0  502    0 -0.00000000000E+00 -0.00000000000E+00 -0.53083084165E+03  0.53083084165E+03  0.00000000000E+00 0. -1.
         25    2    1    2    0    0  0.76485610863E+02 -0.53662422348E+02 -0.21271531762E+02  0.15749054376E+03  0.12498435529E+03 0.  0.
          4    1    3    3  501    0 -0.32183632614E+02 -0.63788561318E+01 -0.20995210119E+02  0.38972910613E+02  0.12700000000E+01 0. -1.
         -4    1    3    3    0  501  0.10866924348E+03 -0.47283566216E+02 -0.27632164296E+00  0.11851763314E+03  0.12700000000E+01 0. -1.
          2    1    1    2  502    0 -0.58412960981E+02  0.42569470236E+02 -0.43646322958E+03  0.44240748703E+03  0.00000000000E+00 0. -1.
          1    1    1    2  503    0 -0.18072649883E+02  0.11092952112E+02  0.53791760167E+02  0.57820651347E+02  0.00000000000E+00 0. -1.
<mgrwt>
<rscale>  0 0.39388514E+02</rscale>
<asrwt>0</asrwt>
<pdfrwt beam="1">  1        2 0.19521206E-01 0.21205524E+02</pdfrwt>
<pdfrwt beam="2">  1        1 0.81666286E-01 0.73162775E+02</pdfrwt>
<totfact> 0.14970698E+03</totfact>
</mgrwt>
</event>
<event>
 7    1  0.5277388E-004  0.1191477E+03  0.7546771E-02  0.1273900E+00
          2   -1    0    0  503    0  0.00000000000E+00  0.00000000000E+00  0.11568252594E+04  0.11568252594E+04  0.00000000000E+00 0. -1.
          1   -1    0    0  502    0 -0.00000000000E+00 -0.00000000000E+00 -0.28206843171E+03  0.28206843171E+03  0.00000000000E+00 0. -1.
         25    2    1    2    0    0 -0.12947719611E+03  0.10776257572E+03  0.15151755241E+03  0.25876477970E+03  0.12499810192E+03 0.  0.
          4    1    3    3  501    0  0.90240898759E+01 -0.19576983585E+02  0.16798335779E+02  0.27358535585E+02  0.12700000000E+01 0. -1.
         -4    1    3    3    0  501 -0.13850128599E+03  0.12733955931E+03  0.13471921663E+03  0.23140624411E+03  0.12700000000E+01 0. -1.
          2    1    1    2  502    0  0.13919124614E+02 -0.88128509369E+02 -0.21594909616E+03  0.23365442073E+03  0.00000000000E+00 0. -1.
          1    1    1    2  503    0  0.11555807150E+03 -0.19634066351E+02  0.93918837147E+03  0.94647449071E+03  0.00000000000E+00 0. -1.
<mgrwt>
<rscale>  0 0.10310418E+03</rscale>
<asrwt>0</asrwt>
<pdfrwt beam="1">  1        2 0.17797311E+00 0.11914772E+03</pdfrwt>
<pdfrwt beam="2">  1        1 0.43395144E-01 0.89220940E+02</pdfrwt>
<totfact> 0.28725573E+02</totfact>
</mgrwt>
</event>
<event>
 7    1  0.5277388E-004  0.8569194E+02  0.7546771E-02  0.1405108E+00
          1   -1    0    0  502    0 -0.00000000000E+00  0.00000000000E+00  0.13322067213E+04  0.13322067213E+04  0.00000000000E+00 0. -1.
          2   -1    0    0  503    0  0.00000000000E+00 -0.00000000000E+00 -0.56737897687E+02  0.56737897687E+02  0.00000000000E+00 0. -1.
         25    2    1    2    0    0 -0.77082994611E+02  0.83361536486E+02  0.84789865520E+03  0.86455005272E+03  0.12499492130E+03 0.  0.
          4    1    3    3  501    0  0.33165765986E+02  0.21292407088E+02  0.27743082868E+03  0.28021922174E+03  0.12700000000E+01 0. -1.
         -4    1    3    3    0  501 -0.11024876060E+03  0.62069129399E+02  0.57046782652E+03  0.58433083098E+03  0.12700000000E+01 0. -1.
          2    1    1    2  502    0  0.58004441067E+02 -0.48587534688E+02  0.46424667956E+03  0.47037245157E+03  0.00000000000E+00 0. -1.
          1    1    1    2  503    0  0.19078553544E+02 -0.34774001798E+02 -0.36676511147E+02  0.54022114697E+02  0.00000000000E+00 0. -1.
<mgrwt>
<rscale>  0 0.58299860E+02</rscale>
<asrwt>0</asrwt>
<pdfrwt beam="2">  1        2 0.87289084E-02 0.39663868E+02</pdfrwt>
<pdfrwt beam="1">  1        1 0.20495486E+00 0.85691939E+02</pdfrwt>
<totfact> 0.92414342E+02</totfact>
</mgrwt>
</event>
<event>
 7    1  0.5277388E-004  0.1523216E+03  0.7546771E-02  0.1260803E+00
          2   -1    0    0  503    0  0.00000000000E+00  0.00000000000E+00  0.40755590107E+04  0.40755590107E+04  0.00000000000E+00 0. -1.
          1   -1    0    0  502    0 -0.00000000000E+00 -0.00000000000E+00 -0.10047351311E+04  0.10047351311E+04  0.00000000000E+00 0. -1.
         25    2    1    2    0    0 -0.35668856647E+02 -0.70321308041E+02 -0.29717472586E+03  0.33189580822E+03  0.12499862447E+03 0.  0.
          4    1    3    3  501    0 -0.30534408140E+02  0.32499078121E+01 -0.23027034923E+03  0.23231220075E+03  0.12700000000E+01 0. -1.
         -4    1    3    3    0  501 -0.51344485074E+01 -0.73571215853E+02 -0.66904376629E+02  0.99583607465E+02  0.12700000000E+01 0. -1.
          2    1    1    2  502    0 -0.66493774921E+02 -0.43128199213E+02 -0.68648321901E+03  0.69104317785E+03  0.00000000000E+00 0. -1.
          1    1    1    2  503    0  0.10216263157E+03  0.11344950725E+03  0.40544818246E+04  0.40573551557E+04  0.00000000000E+00 0. -1.
<mgrwt>
<rscale>  0 0.10987424E+03</rscale>
<asrwt>0</asrwt>
<pdfrwt beam="1">  1        2 0.62700907E+00 0.15232155E+03</pdfrwt>
<pdfrwt beam="2">  1        1 0.15457464E+00 0.79255685E+02</pdfrwt>
<totfact> 0.10390397E+00</totfact>
</mgrwt>
</event>
<event>
 7    1  0.5277388E-004  0.6520985E+02  0.7546771E-02  0.1448164E+00
         -2   -1    0    0    0  501 -0.00000000000E+00  0.00000000000E+00  0.20624096707E+03  0.20624096707E+03  0.00000000000E+00 0.  1.
          2   -1    0    0  503    0  0.00000000000E+00 -0.00000000000E+00 -0.91548082466E+03  0.91548082466E+03  0.00000000000E+00 0. -1.
         25    2    1    2    0    0  0.74637801273E+01 -0.40508643638E+02 -0.20883042409E+03  0.24684066720E+03  0.12499404280E+03 0.  0.
          4    1    3    3  502    0 -0.45808979736E+02 -0.47232484773E+00 -0.27027998547E+02  0.53205369284E+02  0.12700000000E+01 0.  1.
         -4    1    3    3    0  502  0.53272759864E+02 -0.40036318790E+02 -0.18180242555E+03  0.19363529792E+03  0.12700000000E+01 0.  1.
          1    1    1    2  503    0 -0.43118969094E+02  0.52271248134E+02 -0.68407219615E+03  0.68742003056E+03  0.00000000000E+00 0. -1.
         -1    1    1    2    0  501  0.35655188967E+02 -0.11762604496E+02  0.18366276265E+03  0.18746109396E+03  0.00000000000E+00 0.  1.
<mgrwt>
<rscale>  0 0.49480553E+02</rscale>
<asrwt>0</asrwt>
<pdfrwt beam="2">  1        2 0.14084320E+00 0.65209855E+02</pdfrwt>
<pdfrwt beam="1">  1       -2 0.31729379E-01 0.37545324E+02</pdfrwt>
<totfact> 0.28283495E+02</totfact>
</mgrwt>
</event>
<event>
 7    1  0.5277388E-004  0.1062326E+03  0.7546771E-02  0.1341646E+00
          1   -1    0    0  502    0 -0.00000000000E+00  0.00000000000E+00  0.13947359489E+04  0.13947359489E+04  0.00000000000E+00 0. -1.
          2   -1    0    0  503    0  0.00000000000E+00 -0.00000000000E+00 -0.35355831308E+04  0.35355831308E+04  0.00000000000E+00 0. -1.
         25    2    1    2    0    0 -0.17073934418E+02 -0.98229265418E+02 -0.89925981027E+02  0.18345039484E+03  0.12500742970E+03 0.  0.
          4    1    3    3  501    0  0.42112344938E+02 -0.11608104999E+02  0.22969894481E+01  0.43761704245E+02  0.12700000000E+01 0.  1.
         -4    1    3    3    0  501 -0.59186279356E+02 -0.86621160419E+02 -0.92222970475E+02  0.13968869059E+03  0.12700000000E+01 0.  1.
          2    1    1    2  502    0 -0.51381891882E+02  0.16532572795E+02  0.13465973336E+04  0.13476786723E+04  0.00000000000E+00 0. -1.
          1    1    1    2  503    0  0.68455826300E+02  0.81696692623E+02 -0.33975185345E+04  0.33991900126E+04  0.00000000000E+00 0. -1.
<mgrwt>
<rscale>  0 0.75723347E+02</rscale>
<asrwt>0</asrwt>
<pdfrwt beam="2">  1        2 0.54393586E+00 0.10623257E+03</pdfrwt>
<pdfrwt beam="1">  1        1 0.21457476E+00 0.53976150E+02</pdfrwt>
<totfact> 0.15211682E+00</totfact>
</mgrwt>
</event>
<event>
 7    1  0.5277388E-004  0.5716332E+02  0.7546771E-02  0.1447651E+00
          1   -1    0    0  503    0  0.00000000000E+00  0.00000000000E+00  0.18236902889E+04  0.18236902889E+04  0.00000000000E+00 0. -1.
         -1   -1    0    0    0  501 -0.00000000000E+00 -0.00000000000E+00 -0.24652154769E+02  0.24652154769E+02  0.00000000000E+00 0.  1.
         25    2    1    2    0    0  0.44135097119E+02 -0.53364234804E+02  0.12169891692E+04  0.12253498824E+04  0.12499619201E+03 0.  0.
          4    1    3    3  502    0  0.23116186109E+01 -0.87019034705E+02  0.85115764278E+03  0.85559838811E+03  0.12700000000E+01 0.  1.
         -4    1    3    3    0  502  0.41823478508E+02  0.33654799900E+02  0.36583152641E+03  0.36975149428E+03  0.12700000000E+01 0.  1.
          2    1    1    2  503    0  0.11827184602E+02  0.41334161884E+02  0.56000648746E+03  0.56165439661E+03  0.00000000000E+00 0. -1.
         -2    1    1    2    0  501 -0.55962281721E+02  0.12030072921E+02  0.22042477477E+02  0.61338164655E+02  0.00000000000E+00 0.  1.
<mgrwt>
<rscale>  0 0.49574395E+02</rscale>
<asrwt>0</asrwt>
<pdfrwt beam="1">  1        1 0.28056763E+00 0.42992967E+02</pdfrwt>
<pdfrwt beam="2">  1       -1 0.37926406E-02 0.57163317E+02</pdfrwt>
<totfact> 0.12316803E+03</totfact>
</mgrwt>
</event>
<event>
 7    1  0.5277388E-004  0.3443246E+03  0.7546771E-02  0.1117214E+00
          1   -1    0    0  502    0 -0.00000000000E+00  0.00000000000E+00  0.16225646938E+04  0.16225646938E+04  0.00000000000E+00 0. -1.
          2   -1    0    0  503    0  0.00000000000E+00 -0.00000000000E+00 -0.21267025804E+03  0.21267025804E+03  0.00000000000E+00 0. -1.
         25    2    1    2    0    0 -0.17794212113E+03  0.20787195901E+03  0.77910423367E+03  0.83516664779E+03  0.12500309134E+03 0.  0.
          4    1    3    3  501    0 -0.16503133779E+03  0.20752092508E+03  0.77823154988E+03  0.82215949482E+03  0.12700000000E+01 0.  1.
         -4    1    3    3    0  501 -0.12910783345E+02  0.35103393421E+00  0.87268378987E+00  0.13007152970E+02  0.12700000000E+01 0.  1.
          2    1    1    2  502    0 -0.16029334522E+03 -0.64494945010E+02  0.60790972974E+03  0.63198717864E+03  0.00000000000E+00 0. -1.
          1    1    1    2  503    0  0.33823546635E+03 -0.14337701400E+03  0.22880472315E+02  0.36808112537E+03  0.00000000000E+00 0. -1.
<mgrwt>
<rscale>  0 0.24391194E+03</rscale>
<asrwt>0</asrwt>
<pdfrwt beam="2">  1        2 0.32718502E-01 0.34432463E+03</pdfrwt>
<pdfrwt beam="1">  1        1 0.24962533E+00 0.17278181E+03</pdfrwt>
<totfact> 0.13518555E+02</totfact>
</mgrwt>
</event>
<event>
 7    1  0.5277388E-004  0.1049487E+03  0.7546771E-02  0.1335373E+00
          1   -1    0    0  503    0  0.00000000000E+00  0.00000000000E+00  0.57355113763E+02  0.57355113763E+02  0.00000000000E+00 0. -1.
         -1   -1    0    0    0  501 -0.00000000000E+00 -0.00000000000E+00 -0.15635611208E+04  0.15635611208E+04  0.00000000000E+00 0.  1.
         25    2    1    2    0    0  0.15358300399E+02 -0.51766329543E+02 -0.54678714149E+03  0.56348852681E+03  0.12501004550E+03 0.  0.
          4    1    3    3  502    0  0.28934773390E+02 -0.83182012489E+02 -0.25678525237E+03  0.27147144794E+03  0.12700000000E+01 0. -1.
         -4    1    3    3    0  502 -0.13576472991E+02  0.31415682946E+02 -0.29000188912E+03  0.29201707887E+03  0.12700000000E+01 0. -1.
          2    1    1    2  503    0 -0.17864421663E+02  0.10940625632E+03 -0.15716898639E+02  0.11196377712E+03  0.00000000000E+00 0. -1.
         -2    1    1    2    0  501  0.25061212643E+01 -0.57639926777E+02 -0.94370196692E+03  0.94546393065E+03  0.00000000000E+00 0.  1.
<mgrwt>
<rscale>  0 0.77813554E+02</rscale>
<asrwt>0</asrwt>
<pdfrwt beam="1">  1        1 0.88238650E-02 0.10494868E+03</pdfrwt>
<pdfrwt beam="2">  1       -1 0.24054783E+00 0.57694383E+02</pdfrwt>
<totfact> 0.76727466E+01</totfact>
</mgrwt>
</event>
<event>
 7    1  0.5277388E-004  0.3047111E+02  0.7546771E-02  0.1649402E+00
         -1   -1    0    0    0  502 -0.00000000000E+00  0.00000000000E+00  0.44053480882E+03  0.44053480882E+03  0.00000000000E+00 0.  1.
         -2   -1    0    0    0  501  0.00000000000E+00 -0.00000000000E+00 -0.94714014095E+02  0.94714014095E+02  0.00000000000E+00 0.  1.
         25    2    1    2    0    0  0.48421282701E+02  0.75208044048E+01  0.50498623761E+02  0.14344076690E+03  0.12499583789E+03 0.  0.
          4    1    3    3  503    0 -0.22303462687E+02 -0.13531562013E+02  0.63354442112E+02  0.68526971724E+02  0.12700000000E+01 0. -1.
         -4    1    3    3    0  503  0.70724745388E+02  0.21052366418E+02 -0.12855818352E+02  0.74913795175E+02  0.12700000000E+01 0. -1.
         -2    1    1    2    0  502 -0.27251724250E+02 -0.13092315652E+02  0.34037687176E+03  0.34171695895E+03  0.00000000000E+00 0.  1.
         -1    1    1    2    0  501 -0.21169558451E+02  0.55715112470E+01 -0.45054700791E+02  0.50091097072E+02  0.00000000000E+00 0.  1.
<mgrwt>
<rscale>  0 0.25826852E+02</rscale>
<asrwt>0</asrwt>
<pdfrwt beam="2">  1       -2 0.14571387E-01 0.21890453E+02</pdfrwt>
<pdfrwt beam="1">  1       -1 0.67774585E-01 0.30471105E+02</pdfrwt>
<totfact> 0.54953791E+02</totfact>
</mgrwt>
</event>
<event>
 7    1  0.5277388E-004  0.8894463E+02  0.7546771E-02  0.1376732E+00
          1   -1    0    0  503    0  0.00000000000E+00  0.00000000000E+00  0.48603544072E+03  0.48603544072E+03  0.00000000000E+00 0. -1.
         -1   -1    0    0    0  501 -0.00000000000E+00 -0.00000000000E+00 -0.50701152358E+03  0.50701152358E+03  0.00000000000E+00 0.  1.
         25    2    1    2    0    0  0.11887168717E+03  0.22533794979E+01  0.20702393871E+03  0.26948048324E+03  0.12500105566E+03 0.  0.
          4    1    3    3  502    0  0.13758300172E+03 -0.23575131451E+02  0.15642624026E+03  0.20965602955E+03  0.12700000000E+01 0.  1.
         -4    1    3    3    0  502 -0.18711314553E+02  0.25828510948E+02  0.50597698452E+02  0.59824453685E+02  0.12700000000E+01 0.  1.
          2    1    1    2  503    0 -0.36741340022E+02  0.30866122533E+02  0.24127920192E+03  0.24600466838E+03  0.00000000000E+00 0. -1.
         -2    1    1    2    0  501 -0.82130347143E+02 -0.33119502030E+02 -0.46927922349E+03  0.47756181269E+03  0.00000000000E+00 0.  1.
<mgrwt>
<rscale>  0 0.65330585E+02</rscale>
<asrwt>0</asrwt>
<pdfrwt beam="1">  1        1 0.74774683E-01 0.47985869E+02</pdfrwt>
<pdfrwt beam="2">  1       -1 0.78001773E-01 0.88944630E+02</pdfrwt>
<totfact> 0.87636886E+01</totfact>
</mgrwt>
</event>
<event>
 7    1  0.5277388E-004  0.1212551E+03  0.7546771E-02  0.1312431E+00
          2   -1    0    0  503    0  0.00000000000E+00  0.00000000000E+00  0.13376199498E+04  0.13376199498E+04  0.00000000000E+00 0. -1.
          1   -1    0    0  502    0 -0.00000000000E+00 -0.00000000000E+00 -0.17961418007E+03  0.17961418007E+03  0.00000000000E+00 0. -1.
         25    2    1    2    0    0  0.43844629228E+02 -0.99457110376E+02  0.19568932410E+03  0.25639051287E+03  0.12501086036E+03 0.  0.
          4    1    3    3  501    0 -0.36012149393E+02 -0.60944649773E+02  0.12219251215E+03  0.14122233593E+03  0.12700000000E+01 0.  1.
         -4    1    3    3    0  501  0.79856778621E+02 -0.38512460603E+02  0.73496811952E+02  0.11516817694E+03  0.12700000000E+01 0.  1.
          2    1    1    2  502    0 -0.99598378938E+02  0.74170854638E+02 -0.12242155435E+03  0.17437944183E+03  0.00000000000E+00 0. -1.
          1    1    1    2  503    0  0.55753749710E+02  0.25286255739E+02  0.10847380000E+04  0.10864641752E+04  0.00000000000E+00 0. -1.
<mgrwt>
<rscale>  0 0.86158143E+02</rscale>
<asrwt>0</asrwt>
<pdfrwt beam="1">  1        2 0.20578768E+00 0.61219893E+02</pdfrwt>
<pdfrwt beam="2">  1        1 0.27632952E-01 0.12125512E+03</pdfrwt>
<totfact> 0.42017689E+02</totfact>
</mgrwt>
</event>
<event>
 7    1  0.5277388E-004  0.6100170E+02  0.7546771E-02  0.1517988E+00
          2   -1    0    0  503    0  0.00000000000E+00  0.00000000000E+00  0.44059378761E+03  0.44059378761E+03  0.00000000000E+00 0. -1.
         -2   -1    0    0    0  501 -0.00000000000E+00 -0.00000000000E+00 -0.34605304568E+02  0.34605304568E+02  0.00000000000E+00 0.  1.
         25    2    1    2    0    0  0.43530239475E+02  0.16364657930E+02  0.27904999427E+03  0.30928550878E+03  0.12500377137E+03 0.  0.
          4    1    3    3  502    0  0.56611855038E+02 -0.14728652201E+02  0.47712018370E+02  0.75497582236E+02  0.12700000000E+01 0.  1.
         -4    1    3    3    0  502 -0.13081615564E+02  0.31093310130E+02  0.23133797590E+03  0.23378792654E+03  0.12700000000E+01 0.  1.
          3    1    1    2  503    0 -0.62219966941E+02 -0.32289073894E+02  0.12224150399E+03  0.14091449137E+03  0.00000000000E+00 0. -1.
         -3    1    1    2    0  501  0.18689727466E+02  0.15924415964E+02  0.46969847764E+01  0.24999092035E+02  0.00000000000E+00 0.  1.
<mgrwt>
<rscale>  0 0.38701787E+02</rscale>
<asrwt>0</asrwt>
<pdfrwt beam="1">  1        2 0.67783655E-01 0.61001700E+02</pdfrwt>
<pdfrwt beam="2">  1       -2 0.53238933E-02 0.24553878E+02</pdfrwt>
<totfact> 0.10111369E+04</totfact>
</mgrwt>
</event>
<event>
 7    1  0.5277388E-004  0.1001749E+03  0.7546771E-02  0.1427012E+00
         -2   -1    0    0    0  501 -0.00000000000E+00  0.00000000000E+00  0.51514913104E+03  0.51514913104E+03  0.00000000000E+00 0.  1.
          2   -1    0    0  503    0  0.00000000000E+00 -0.00000000000E+00 -0.54224581360E+03  0.54224581360E+03  0.00000000000E+00 0. -1.
         25    2    1    2    0    0 -0.72004256799E+02  0.74684210163E+02 -0.16490934566E+03  0.23148060626E+03  0.12500333813E+03 0.  0.
          4    1    3    3  502    0 -0.86152045062E+02  0.55878435051E+01 -0.60319456180E+02  0.10532544117E+03  0.12700000000E+01 0.  1.
         -4    1    3    3    0  502  0.14147788262E+02  0.69096366658E+02 -0.10458988948E+03  0.12615516509E+03  0.12700000000E+01 0.  1.
          1    1    1    2  503    0  0.25080352535E+02  0.13831592745E+02 -0.33823169339E+03  0.33944221225E+03  0.00000000000E+00 0. -1.
         -1    1    1    2    0  501  0.46923904264E+02 -0.88515802909E+02  0.47604435650E+03  0.48647212614E+03  0.00000000000E+00 0.  1.
<mgrwt>
<rscale>  0 0.53564555E+02</rscale>
<asrwt>0</asrwt>
<pdfrwt beam="2">  1        2 0.83422432E-01 0.28641527E+02</pdfrwt>
<pdfrwt beam="1">  1       -2 0.79253713E-01 0.10017488E+03</pdfrwt>
<totfact> 0.88493171E+01</totfact>
</mgrwt>
</event>
<event>
 7    1  0.5277388E-004  0.9573315E+02  0.7546771E-02  0.1340910E+00
          2   -1    0    0  503    0  0.00000000000E+00  0.00000000000E+00  0.20356675715E+04  0.20356675715E+04  0.00000000000E+00 0. -1.
          1   -1    0    0  502    0 -0.00000000000E+00 -0.00000000000E+00 -0.77616993151E+02  0.77616993151E+02  0.00000000000E+00 0. -1.
         25    2    1    2    0    0  0.58584922491E+02  0.62824101901E+02  0.64361651931E+03  0.66124641144E+03  0.12500212716E+03 0.  0.
          4    1    3    3  501    0 -0.61891238425E+01  0.26340202784E+02  0.48829300007E+03  0.48904373869E+03  0.12700000000E+01 0. -1.
         -4    1    3    3    0  501  0.64774046334E+02  0.36483899117E+02  0.15532351924E+03  0.17220267275E+03  0.12700000000E+01 0. -1.
          2    1    1    2  502    0 -0.87789753445E+01 -0.96777333354E+02 -0.33477321602E+02  0.10277963670E+03  0.00000000000E+00 0. -1.
          1    1    1    2  503    0 -0.49805947147E+02  0.33953231453E+02  0.13479113806E+04  0.13492585165E+04  0.00000000000E+00 0. -1.
<mgrwt>
<rscale>  0 0.75964571E+02</rscale>
<asrwt>0</asrwt>
<pdfrwt beam="1">  1        2 0.31317959E+00 0.60278141E+02</pdfrwt>
<pdfrwt beam="2">  1        1 0.11941077E-01 0.95733146E+02</pdfrwt>
<totfact> 0.54544879E+02</totfact>
</mgrwt>
</event>
<event>
 7    1  0.5277388E-004  0.6657901E+02  0.7546771E-02  0.1411805E+00
          1   -1    0    0  503    0  0.00000000000E+00  0.00000000000E+00  0.18418872207E+04  0.18418872207E+04  0.00000000000E+00 0. -1.
         -1   -1    0    0    0  501 -0.00000000000E+00 -0.00000000000E+00 -0.29228444013E+03  0.29228444013E+03  0.00000000000E+00 0.  1.
         25    2    1    2    0    0 -0.21790901682E+02 -0.52101525953E+02  0.11903266077E+03  0.18161565362E+03  0.12500423556E+03 0.  0.
          4    1    3    3  502    0  0.40042214425E+02 -0.11201789890E+02  0.94938783427E+02  0.10365251821E+03  0.12700000000E+01 0. -1.
         -4    1    3    3    0  502 -0.61833116107E+02 -0.40899736063E+02  0.24093877343E+02  0.77963135410E+02  0.12700000000E+01 0. -1.
          2    1    1    2  503    0 -0.40516908807E+02  0.26557939660E+02  0.16868657774E+04  0.16875612863E+04  0.00000000000E+00 0. -1.
         -2    1    1    2    0  501  0.62307810489E+02  0.25543586293E+02 -0.25629565756E+03  0.26499472095E+03  0.00000000000E+00 0.  1.
<mgrwt>
<rscale>  0 0.56792941E+02</rscale>
<asrwt>0</asrwt>
<pdfrwt beam="1">  1        1 0.28336726E+00 0.48445269E+02</pdfrwt>
<pdfrwt beam="2">  1       -1 0.44966838E-01 0.66579011E+02</pdfrwt>
<totfact> 0.26430940E+01</totfact>
</mgrwt>
</event>
<event>
 7    1  0.5277388E-004  0.1608927E+03  0.7546771E-02  0.1302252E+00
         -2   -1    0    0    0  501 -0.00000000000E+00  0.00000000000E+00  0.13988321821E+04  0.13988321821E+04  0.00000000000E+00 0.  1.
          2   -1    0    0  503    0  0.00000000000E+00 -0.00000000000E+00 -0.11992281145E+03  0.11992281145E+03  0.00000000000E+00 0. -1.
         25    2    1    2    0    0  0.12314609956E+03 -0.69123342844E+01  0.34921346065E+03  0.39087973801E+03  0.12499674509E+03 0.  0.
          4    1    3    3  502    0  0.45647827480E+02  0.41258048255E+02  0.53973871108E+02  0.81858062290E+02  0.12700000000E+01 0.  1.
         -4    1    3    3    0  502  0.77498272077E+02 -0.48170382539E+02  0.29523958955E+03  0.30902167572E+03  0.12700000000E+01 0.  1.
          1    1    1    2  503    0 -0.16758070692E+03 -0.17340088329E+02 -0.26320928420E+02  0.17051909942E+03  0.00000000000E+00 0. -1.
         -3    1    1    2    0  501  0.44434607359E+02  0.24252422613E+02  0.95601683837E+03  0.95735615608E+03  0.00000000000E+00 0.  1.
<mgrwt>
<rscale>  0 0.90248283E+02</rscale>
<asrwt>0</asrwt>
<pdfrwt beam="2">  1        2 0.18449664E-01 0.16089268E+03</pdfrwt>
<pdfrwt beam="1">  1       -2 0.21520494E+00 0.50622271E+02</pdfrwt>
<totfact> 0.39535774E+01</totfact>
</mgrwt>
</event>
<event>
 7    1  0.5277388E-004  0.5485817E+02  0.7546771E-02  0.1461669E+00
          2   -1    0    0  503    0  0.00000000000E+00  0.00000000000E+00  0.28204055973E+03  0.28204055973E+03  0.00000000000E+00 0. -1.
          1   -1    0    0  502    0 -0.00000000000E+00 -0.00000000000E+00 -0.11673474671E+04  0.11673474671E+04  0.00000000000E+00 0. -1.
         25    2    1    2    0    0  0.23585382142E+02  0.55832012479E+02 -0.79107006454E+01  0.13914358014E+03  0.12499949136E+03 0.  0.
          4    1    3    3  501    0  0.85792384777E+01  0.83814748385E+02  0.30210616706E+02  0.89514298531E+02  0.12700000000E+01 0. -1.
         -4    1    3    3    0  501  0.15006143664E+02 -0.27982735906E+02 -0.38121317352E+02  0.49629281609E+02  0.12700000000E+01 0. -1.
          2    1    1    2  502    0 -0.49171943660E+02 -0.24527228975E+02 -0.10912346977E+04  0.10926173303E+04  0.00000000000E+00 0. -1.
          1    1    1    2  503    0  0.25586561518E+02 -0.31304783504E+02  0.21383849093E+03  0.21762711643E+03  0.00000000000E+00 0. -1.
<mgrwt>
<rscale>  0 0.47095305E+02</rscale>
<asrwt>0</asrwt>
<pdfrwt beam="1">  1        2 0.43390857E-01 0.40430949E+02</pdfrwt>
<pdfrwt beam="2">  1        1 0.17959191E+00 0.54858168E+02</pdfrwt>
<totfact> 0.21357056E+02</totfact>
</mgrwt>
</event>
<event>
 7    1  0.5277388E-004  0.4860020E+02  0.7546771E-02  0.1516775E+00
          1   -1    0    0  503    0  0.00000000000E+00  0.00000000000E+00  0.93984890293E+02  0.93984890293E+02  0.00000000000E+00 0. -1.
         -1   -1    0    0    0  501 -0.00000000000E+00 -0.00000000000E+00 -0.15188384106E+03  0.15188384106E+03  0.00000000000E+00 0.  1.
         25    2    1    2    0    0 -0.40063245319E+02 -0.27937659261E+02 -0.50311832100E+02  0.14332158686E+03  0.12499688148E+03 0.  0.
          4    1    3    3  502    0 -0.20820222040E+02  0.13549221206E+02 -0.83289904721E+02  0.86924588981E+02  0.12700000000E+01 0.  1.
         -4    1    3    3    0  502 -0.19243023279E+02 -0.41486880467E+02  0.32978072621E+02  0.56396997877E+02  0.12700000000E+01 0.  1.
          2    1    1    2  503    0  0.17023445924E+02  0.48784520138E+02 -0.33928118730E+02  0.61812978870E+02  0.00000000000E+00 0.  1.
         -2    1    1    2    0  501  0.23039799395E+02 -0.20846860877E+02  0.26341000066E+02  0.40734165624E+02  0.00000000000E+00 0. -1.
<mgrwt>
<rscale>  0 0.38859618E+02</rscale>
<asrwt>0</asrwt>
<pdfrwt beam="1">  1        1 0.14459214E-01 0.48600196E+02</pdfrwt>
<pdfrwt beam="2">  1       -1 0.23366745E-01 0.31071272E+02</pdfrwt>
<totfact> 0.52288424E+03</totfact>
</mgrwt>
</event>
<event>
 7    1  0.5277388E-004  0.2958265E+02  0.7546771E-02  0.1655254E+00
          2   -1    0    0  503    0  0.00000000000E+00  0.00000000000E+00  0.26353178340E+03  0.26353178340E+03  0.00000000000E+00 0. -1.
          1   -1    0    0  502    0 -0.00000000000E+00 -0.00000000000E+00 -0.70605432697E+03  0.70605432697E+03  0.00000000000E+00 0. -1.
         25    2    1    2    0    0 -0.50783895552E+01  0.14823235933E+02  0.24314021993E+02  0.12829858896E+03  0.12499535151E+03 0.  0.
          4    1    3    3  501    0 -0.46595120740E+02 -0.16909309921E+01  0.56464742727E+02  0.73238272752E+02  0.12700000000E+01 0. -1.
         -4    1    3    3    0  501  0.41516731185E+02  0.16514166925E+02 -0.32150720734E+02  0.55060316211E+02  0.12700000000E+01 0. -1.
          2    1    1    2  502    0  0.26794752134E+02 -0.12729630440E+02 -0.65308863498E+03  0.65376201127E+03  0.00000000000E+00 0. -1.
          1    1    1    2  503    0 -0.21716362578E+02 -0.20936054929E+01  0.18625206942E+03  0.18752551013E+03  0.00000000000E+00 0. -1.
<mgrwt>
<rscale>  0 0.25404844E+02</rscale>
<asrwt>0</asrwt>
<pdfrwt beam="1">  1        2 0.40543351E-01 0.21817048E+02</pdfrwt>
<pdfrwt beam="2">  1        1 0.10862374E+00 0.29582650E+02</pdfrwt>
<totfact> 0.50565154E+02</totfact>
</mgrwt>
</event>
<event>
 7    1  0.5277388E-004  0.5321374E+02  0.7546771E-02  0.1545876E+00
          2   -1    0    0  503    0  0.00000000000E+00  0.00000000000E+00  0.37994402796E+03  0.37994402796E+03  0.00000000000E+00 0. -1.
          1   -1    0    0  502    0 -0.00000000000E+00 -0.00000000000E+00 -0.13575004474E+04  0.13575004474E+04  0.00000000000E+00 0. -1.
         25    2    1    2    0    0 -0.27118810945E+02 -0.39387863053E+02  0.46348716448E+02  0.14162984914E+03  0.12499590789E+03 0.  0.
          4    1    3    3  501    0 -0.33857480638E+02  0.39961527423E+02  0.72023029476E+01  0.52884201203E+02  0.12700000000E+01 0.  1.
         -4    1    3    3    0  501  0.67386696931E+01 -0.79349390476E+02  0.39146413500E+02  0.88745647939E+02  0.12700000000E+01 0.  1.
          2    1    1    2  502    0  0.78354829654E+01  0.52693402489E+02 -0.13088372425E+04  0.13099209582E+04  0.00000000000E+00 0. -1.
          1    1    1    2  503    0  0.19283327979E+02 -0.13305539436E+02  0.28493210653E+03  0.28589366808E+03  0.00000000000E+00 0. -1.
<mgrwt>
<rscale>  0 0.35308726E+02</rscale>
<asrwt>0</asrwt>
<pdfrwt beam="1">  1        2 0.58452928E-01 0.23428276E+02</pdfrwt>
<pdfrwt beam="2">  1        1 0.20884622E+00 0.53213739E+02</pdfrwt>
<totfact> 0.11888980E+02</totfact>
</mgrwt>
</event>
<event>
 7    1  0.5277388E-004  0.7789832E+02  0.7546771E-02  0.1492443E+00
         -2   -1    0    0    0  501 -0.00000000000E+00  0.00000000000E+00  0.58153370575E+02  0.58153370575E+02  0.00000000000E+00 0.  1.
          2   -1    0    0  503    0  0.00000000000E+00 -0.00000000000E+00 -0.72067337897E+03  0.72067337897E+03  0.00000000000E+00 0. -1.
         25    2    1    2    0    0  0.21638587340E+02 -0.54367873439E+02 -0.10627194421E+03  0.17418923655E+03  0.12499627946E+03 0.  0.
          4    1    3    3  502    0 -0.25041316609E+02 -0.79490810781E+02 -0.77721513364E+02  0.11396535910E+03  0.12700000000E+01 0. -1.
         -4    1    3    3    0  502  0.46679903949E+02  0.25122937342E+02 -0.28550430847E+02  0.60223877448E+02  0.12700000000E+01 0. -1.
          1    1    1    2  503    0 -0.38995119093E+02  0.69289627310E+02 -0.57158290145E+03  0.57708637568E+03  0.00000000000E+00 0. -1.
         -1    1    1    2    0  501  0.17356531753E+02 -0.14921753871E+02  0.15334837268E+02  0.27551137311E+02  0.00000000000E+00 0.  1.
<mgrwt>
<rscale>  0 0.42225790E+02</rscale>
<asrwt>0</asrwt>
<pdfrwt beam="2">  1        2 0.11087284E+00 0.77898317E+02</pdfrwt>
<pdfrwt beam="1">  1       -2 0.89466717E-02 0.22889035E+02</pdfrwt>
<totfact> 0.27404282E+03</totfact>
</mgrwt>
</event>
<event>
 7    1  0.5277388E-004  0.4734591E+02  0.7546771E-02  0.1512745E+00
          1   -1    0    0  502    0 -0.00000000000E+00  0.00000000000E+00  0.12856912568E+03  0.12856912568E+03  0.00000000000E+00 0. -1.
          2   -1    0    0  503    0  0.00000000000E+00 -0.00000000000E+00 -0.57081098397E+03  0.57081098397E+03  0.00000000000E+00 0. -1.
         25    2    1    2    0    0  0.15828621253E+02  0.27631193311E+02 -0.13290618351E+03  0.18521130623E+03  0.12500058499E+03 0.  0.
          4    1    3    3  501    0 -0.12454218035E+02  0.11707992658E+02  0.21459786699E+02  0.27464886385E+02  0.12700000000E+01 0. -1.
         -4    1    3    3    0  501  0.28282839288E+02  0.15923200653E+02 -0.15436597021E+03  0.15774641985E+03  0.12700000000E+01 0. -1.
          2    1    1    2  502    0  0.30351225593E+02 -0.12360938508E+02  0.98311672095E+02  0.10362998874E+03  0.00000000000E+00 0. -1.
          1    1    1    2  503    0 -0.46179846846E+02 -0.15270254803E+02 -0.40764734688E+03  0.41053881467E+03  0.00000000000E+00 0. -1.
<mgrwt>
<rscale>  0 0.39390478E+02</rscale>
<asrwt>0</asrwt>
<pdfrwt beam="2">  1        2 0.87817076E-01 0.47345908E+02</pdfrwt>
<pdfrwt beam="1">  1        1 0.19779865E-01 0.32771782E+02</pdfrwt>
<totfact> 0.17995446E+03</totfact>
</mgrwt>
</event>
<event>
 7    1  0.5277388E-004  0.1146833E+03  0.7546771E-02  0.1313934E+00
          2   -1    0    0  503    0  0.00000000000E+00  0.00000000000E+00  0.69444349704E+03  0.69444349704E+03  0.00000000000E+00 0. -1.
         -2   -1    0    0    0  501 -0.00000000000E+00 -0.00000000000E+00 -0.60089778342E+02  0.60089778342E+02  0.00000000000E+00 0.  1.
         25    2    1    2    0    0  0.13171363290E+03  0.10098500261E+03  0.43150597538E+03  0.47892429490E+03  0.12499848643E+03 0.  0.
          4    1    3    3  502    0  0.46104385544E+02  0.43022192494E+02  0.41632380397E+02  0.75573748159E+02  0.12700000000E+01 0. -1.
         -4    1    3    3    0  502  0.85609247353E+02  0.57962810121E+02  0.38987359498E+03  0.40335054674E+03  0.12700000000E+01 0. -1.
          3    1    1    2  503    0 -0.57768979596E+02 -0.27208505936E+02  0.13956635074E+03  0.15348069604E+03  0.00000000000E+00 0. -1.
         -3    1    1    2    0  501 -0.73944653300E+02 -0.73776496678E+02  0.63281392578E+02  0.12212828444E+03  0.00000000000E+00 0.  1.
<mgrwt>
<rscale>  0 0.85575648E+02</rscale>
<asrwt>0</asrwt>
<pdfrwt beam="1">  1        2 0.10683746E+00 0.63855758E+02</pdfrwt>
<pdfrwt beam="2">  1       -2 0.92445818E-02 0.11468334E+03</pdfrwt>
<totfact> 0.31507675E+03</totfact>
</mgrwt>
</event>
<event>
 7    1  0.5277388E-004  0.1460598E+03  0.7546771E-02  0.1219393E+00
          2   -1    0    0  503    0  0.00000000000E+00  0.00000000000E+00  0.70494438302E+03  0.70494438302E+03  0.00000000000E+00 0. -1.
          1   -1    0    0  502    0 -0.00000000000E+00 -0.00000000000E+00 -0.68110437861E+03  0.68110437861E+03  0.00000000000E+00 0. -1.
         25    2    1    2    0    0 -0.10107324199E+03 -0.24240340004E+03 -0.22169179921E+03  0.36571551259E+03  0.12500149484E+03 0.  0.
          4    1    3    3  501    0 -0.39984834608E+02 -0.22221099388E+03 -0.16146697305E+03  0.27757829361E+03  0.12700000000E+01 0.  1.
         -4    1    3    3    0  501 -0.61088407380E+02 -0.20192406166E+02 -0.60224826164E+02  0.88137218980E+02  0.12700000000E+01 0.  1.
          2    1    1    2  502    0  0.20785830177E+02  0.12413727927E+03 -0.36874998022E+03  0.38963914428E+03  0.00000000000E+00 0. -1.
          1    1    1    2  503    0  0.80287411811E+02  0.11826612077E+03  0.61428178384E+03  0.63069410476E+03  0.00000000000E+00 0. -1.
<mgrwt>
<rscale>  0 0.13558718E+03</rscale>
<asrwt>0</asrwt>
<pdfrwt beam="1">  1        2 0.10845298E+00 0.14605980E+03</pdfrwt>
<pdfrwt beam="2">  1        1 0.10478529E+00 0.12586546E+03</pdfrwt>
<totfact> 0.17566526E+02</totfact>
</mgrwt>
</event>
<event>
 7    1  0.5277388E-004  0.7536748E+02  0.7546771E-02  0.1429170E+00
          2   -1    0    0  503    0  0.00000000000E+00  0.00000000000E+00  0.42595150455E+03  0.42595150455E+03  0.00000000000E+00 0. -1.
          1   -1    0    0  502    0 -0.00000000000E+00 -0.00000000000E+00 -0.85914652967E+03  0.85914652967E+03  0.00000000000E+00 0. -1.
         25    2    1    2    0    0  0.24372955138E+02  0.10354504793E+03 -0.25874662129E+03  0.30641539413E+03  0.12499984735E+03 0.  0.
          4    1    3    3  501    0  0.28321639486E+02  0.20723992838E+02 -0.43526190478E+00  0.35119816276E+02  0.12700000000E+01 0.  1.
         -4    1    3    3    0  501 -0.39486843480E+01  0.82821055093E+02 -0.25831135938E+03  0.27129557785E+03  0.12700000000E+01 0.  1.
          2    1    1    2  502    0 -0.29199593291E+02 -0.66407856805E+02 -0.57340325240E+03  0.57797396962E+03  0.00000000000E+00 0. -1.
          1    1    1    2  503    0  0.48266381530E+01 -0.37137191125E+02  0.39895484857E+03  0.40070867048E+03  0.00000000000E+00 0. -1.
<mgrwt>
<rscale>  0 0.53126986E+02</rscale>
<asrwt>0</asrwt>
<pdfrwt beam="1">  1        2 0.65531001E-01 0.37449531E+02</pdfrwt>
<pdfrwt beam="2">  1        1 0.13217639E+00 0.75367476E+02</pdfrwt>
<totfact> 0.22762128E+02</totfact>
</mgrwt>
</event>
<event>
 7    1  0.5277388E-004  0.1276769E+03  0.7546771E-02  0.1317700E+00
         -2   -1    0    0    0  501 -0.00000000000E+00  0.00000000000E+00  0.29889266794E+03  0.29889266794E+03  0.00000000000E+00 0.  1.
          2   -1    0    0  503    0  0.00000000000E+00 -0.00000000000E+00 -0.11430756171E+04  0.11430756171E+04  0.00000000000E+00 0. -1.
         25    2    1    2    0    0  0.11953168222E+03  0.75855938381E+02 -0.18882842825E+02  0.18979773125E+03  0.12499868236E+03 0.  0.
          4    1    3    3  502    0  0.13508035379E+03  0.90133494858E+02 -0.31140540675E+02  0.16535445276E+03  0.12700000000E+01 0. -1.
         -4    1    3    3    0  502 -0.15548671570E+02 -0.14277556477E+02  0.12257697851E+02  0.24443278486E+02  0.12700000000E+01 0. -1.
          1    1    1    2  503    0 -0.12583030290E+03 -0.20767547154E+02 -0.10311383271E+04  0.10389950942E+04  0.00000000000E+00 0. -1.
         -1    1    1    2    0  501  0.62986206825E+01 -0.55088391227E+02  0.20583822074E+03  0.21317545963E+03  0.00000000000E+00 0.  1.
<mgrwt>
<rscale>  0 0.84138811E+02</rscale>
<asrwt>0</asrwt>
<pdfrwt beam="2">  1        2 0.17585779E+00 0.12767690E+03</pdfrwt>
<pdfrwt beam="1">  1       -2 0.45983487E-01 0.55447304E+02</pdfrwt>
<totfact> 0.10295856E+02</totfact>
</mgrwt>
</event>
<event>
 7    1  0.5277388E-004  0.4991870E+02  0.7546771E-02  0.1578954E+00
          1   -1    0    0  502    0 -0.00000000000E+00  0.00000000000E+00  0.23345589856E+03  0.23345589856E+03  0.00000000000E+00 0. -1.
          2   -1    0    0  503    0  0.00000000000E+00 -0.00000000000E+00 -0.13111551179E+03  0.13111551179E+03  0.00000000000E+00 0. -1.
         25    2    1    2    0    0 -0.42992041625E+02 -0.27662565671E+02 -0.31261831543E+01  0.13508526765E+03  0.12499889332E+03 0.  0.
          4    1    3    3  501    0  0.17419260271E+02  0.29563201927E+02  0.29918405515E+02  0.45542698922E+02  0.12700000000E+01 0. -1.
         -4    1    3    3    0  501 -0.60411301896E+02 -0.57225767598E+02 -0.33044588669E+02  0.89542568727E+02  0.12700000000E+01 0. -1.
          2    1    1    2  502    0  0.28117371648E+02  0.41423870721E+02  0.16193192915E+03  0.16949475901E+03  0.00000000000E+00 0. -1.
          1    1    1    2  503    0  0.14874669976E+02 -0.13761305050E+02 -0.56465359228E+02  0.59991383684E+02  0.00000000000E+00 0. -1.
<mgrwt>
<rscale>  0 0.31804908E+02</rscale>
<asrwt>0</asrwt>
<pdfrwt beam="2">  1        2 0.20171617E-01 0.20263991E+02</pdfrwt>
<pdfrwt beam="1">  1        1 0.35916292E-01 0.49918704E+02</pdfrwt>
<totfact> 0.39388757E+03</totfact>
</mgrwt>
</event>
<event>
 7    1  0.5277388E-004  0.1551766E+03  0.7546771E-02  0.1229118E+00
          2   -1    0    0  503    0  0.00000000000E+00  0.00000000000E+00  0.68366199336E+03  0.68366199336E+03  0.00000000000E+00 0. -1.
          1   -1    0    0  502    0 -0.00000000000E+00 -0.00000000000E+00 -0.22665109929E+03  0.22665109929E+03  0.00000000000E+00 0. -1.
         25    2    1    2    0    0 -0.12266917816E+03 -0.33317333264E+02 -0.49732038971E+02  0.18511629104E+03  0.12504796496E+03 0.  0.
          4    1    3    3  501    0  0.20761566416E+02 -0.13920757426E+02 -0.29946020004E+02  0.39028286427E+02  0.12700000000E+01 0. -1.
         -4    1    3    3    0  501 -0.14343074458E+03 -0.19396575839E+02 -0.19786018968E+02  0.14608800461E+03  0.12700000000E+01 0. -1.
          2    1    1    2  502    0  0.15898103470E+03  0.13402070479E+03  0.67968549449E+00  0.20793503957E+03  0.00000000000E+00 0. -1.
          1    1    1    2  503    0 -0.36311856543E+02 -0.10070337153E+03  0.50606324754E+03  0.51726176205E+03  0.00000000000E+00 0. -1.
<mgrwt>
<rscale>  0 0.12888627E+03</rscale>
<asrwt>0</asrwt>
<pdfrwt beam="1">  1        2 0.10517877E+00 0.10705008E+03</pdfrwt>
<pdfrwt beam="2">  1        1 0.34869400E-01 0.15517663E+03</pdfrwt>
<totfact> 0.75139374E+02</totfact>
</mgrwt>
</event>
<event>
 7    1  0.5277388E-004  0.1215610E+03  0.7546771E-02  0.1298622E+00
          1   -1    0    0  502    0 -0.00000000000E+00  0.00000000000E+00  0.52253641498E+02  0.52253641498E+02  0.00000000000E+00 0. -1.
          2   -1    0    0  503    0  0.00000000000E+00 -0.00000000000E+00 -0.26414129790E+04  0.26414129790E+04  0.00000000000E+00 0. -1.
         25    2    1    2    0    0 -0.16829534709E+02  0.15591696571E+03 -0.65185575197E+03  0.68200810268E+03  0.12500318919E+03 0.  0.
          4    1    3    3  501    0 -0.20926746131E+02  0.16786700564E+03 -0.46665423847E+03  0.49637188827E+03  0.12700000000E+01 0. -1.
         -4    1    3    3    0  501  0.40972114225E+01 -0.11950039931E+02 -0.18520151351E+03  0.18563621441E+03  0.12700000000E+01 0. -1.
          2    1    1    2  502    0 -0.36972608318E+02 -0.11227106486E+03 -0.59056468217E+02  0.13213414475E+03  0.00000000000E+00 0. -1.
          1    1    1    2  503    0  0.53802143026E+02 -0.43645900850E+02 -0.18782471174E+04  0.18795243731E+04  0.00000000000E+00 0. -1.
<mgrwt>
<rscale>  0 0.91769672E+02</rscale>
<asrwt>0</asrwt>
<pdfrwt beam="2">  1        2 0.40637116E+00 0.69279400E+02</pdfrwt>
<pdfrwt beam="1">  1        1 0.80390231E-02 0.12156099E+03</pdfrwt>
<totfact> 0.45034420E+02</totfact>
</mgrwt>
</event>
<event>
 7    1  0.5277388E-004  0.1749370E+03  0.7546771E-02  0.1322506E+00
          1   -1    0    0  502    0 -0.00000000000E+00  0.00000000000E+00  0.34403592527E+02  0.34403592527E+02  0.00000000000E+00 0. -1.
          2   -1    0    0  503    0  0.00000000000E+00 -0.00000000000E+00 -0.32892948817E+04  0.32892948817E+04  0.00000000000E+00 0. -1.
         25    2    1    2    0    0  0.13423347075E+03  0.15168955116E+03 -0.66236374379E+03  0.70383152984E+03  0.12499899483E+03 0.  0.
          4    1    3    3  501    0  0.10823924743E+03  0.34283779287E+02 -0.25608513621E+03  0.28012911683E+03  0.12700000000E+01 0. -1.
         -4    1    3    3    0  501  0.25994223314E+02  0.11740577187E+03 -0.40627860759E+03  0.42370241302E+03  0.12700000000E+01 0. -1.
          2    1    1    2  502    0 -0.37346683691E+02 -0.10399202738E+02 -0.23921210881E+02  0.45553732342E+02  0.00000000000E+00 0. -1.
          1    1    1    2  503    0 -0.96886787056E+02 -0.14129034842E+03 -0.25686063345E+04  0.25743132120E+04  0.00000000000E+00 0. -1.
<mgrwt>
<rscale>  0 0.82352104E+02</rscale>
<asrwt>0</asrwt>
<pdfrwt beam="2">  1        2 0.50604560E+00 0.17493702E+03</pdfrwt>
<pdfrwt beam="1">  1        1 0.52928579E-02 0.38767489E+02</pdfrwt>
<totfact> 0.26085301E+02</totfact>
</mgrwt>
</event>
<event>
 7    1  0.5277388E-004  0.5957751E+02  0.7546771E-02  0.1446654E+00
          1   -1    0    0  502    0 -0.00000000000E+00  0.00000000000E+00  0.70188516267E+03  0.70188516267E+03  0.00000000000E+00 0. -1.
          2   -1    0    0  503    0  0.00000000000E+00 -0.00000000000E+00 -0.72001712102E+03  0.72001712102E+03  0.00000000000E+00 0. -1.
         25    2    1    2    0    0  0.93354911887E+02 -0.82033770034E+01  0.31010218852E+01  0.15626008909E+03  0.12500065655E+03 0.  0.
          4    1    3    3  501    0 -0.18203207456E+02 -0.36503663905E+02 -0.35830850588E+01  0.40967372856E+02  0.12700000000E+01 0.  1.
         -4    1    3    3    0  501  0.11155811934E+03  0.28300286902E+02  0.66841069440E+01  0.11529271623E+03  0.12700000000E+01 0.  1.
          2    1    1    2  502    0 -0.38886527647E+02 -0.14654104958E+02  0.62015204431E+03  0.62154280857E+03  0.00000000000E+00 0. -1.
          1    1    1    2  503    0 -0.54468384240E+02  0.22857481961E+02 -0.64138502455E+03  0.64409938603E+03  0.00000000000E+00 0. -1.
<mgrwt>
<rscale>  0 0.49757468E+02</rscale>
<asrwt>0</asrwt>
<pdfrwt beam="2">  1        2 0.11077187E+00 0.59577510E+02</pdfrwt>
<pdfrwt beam="1">  1        1 0.10798233E+00 0.41556044E+02</pdfrwt>
<totfact> 0.17688122E+02</totfact>
</mgrwt>
</event>
<event>
 7    1  0.5277388E-004  0.6859112E+02  0.7546771E-02  0.1391825E+00
          2   -1    0    0  503    0  0.00000000000E+00  0.00000000000E+00  0.19825865324E+04  0.19825865324E+04  0.00000000000E+00 0. -1.
         -2   -1    0    0    0  501 -0.00000000000E+00 -0.00000000000E+00 -0.17748614831E+02  0.17748614831E+02  0.00000000000E+00 0.  1.
         25    2    1    2    0    0  0.10506914903E+02  0.29984589848E+02  0.48795684091E+03  0.50471501751E+03  0.12500359760E+03 0.  0.
          4    1    3    3  502    0  0.59768734907E+02  0.27827686290E+02  0.38435237947E+03  0.38996800677E+03  0.12700000000E+01 0. -1.
         -4    1    3    3    0  502 -0.49261820004E+02  0.21569035583E+01  0.10360446144E+03  0.11474701074E+03  0.12700000000E+01 0. -1.
          1    1    1    2  503    0 -0.65401253301E+02 -0.34269478436E+02  0.13949703018E+04  0.13969229986E+04  0.00000000000E+00 0. -1.
         -1    1    1    2    0  501  0.54894338398E+02  0.42848885882E+01  0.81910774910E+02  0.98697131188E+02  0.00000000000E+00 0.  1.
<mgrwt>
<rscale>  0 0.61455005E+02</rscale>
<asrwt>0</asrwt>
<pdfrwt beam="1">  1        2 0.30501314E+00 0.68591125E+02</pdfrwt>
<pdfrwt beam="2">  1       -2 0.27305577E-02 0.55061317E+02</pdfrwt>
<totfact> 0.35554144E+03</totfact>
</mgrwt>
</event>
<event>
 7    1  0.5277388E-004  0.6761888E+02  0.7546771E-02  0.1433709E+00
          1   -1    0    0  502    0 -0.00000000000E+00  0.00000000000E+00  0.90862624855E+03  0.90862624855E+03  0.00000000000E+00 0. -1.
          2   -1    0    0  503    0  0.00000000000E+00 -0.00000000000E+00 -0.50591140184E+03  0.50591140184E+03  0.00000000000E+00 0. -1.
         25    2    1    2    0    0  0.87030171491E+01 -0.74361275417E+02  0.24822718213E+03  0.28783226659E+03  0.12500135180E+03 0.  0.
          4    1    3    3  501    0  0.58935278948E+02 -0.54508305101E+01  0.12038041477E+03  0.13414967692E+03  0.12700000000E+01 0.  1.
         -4    1    3    3    0  501 -0.50232261799E+02 -0.68910444907E+02  0.12784676736E+03  0.15368258967E+03  0.12700000000E+01 0.  1.
          2    1    1    2  502    0 -0.38041964139E+02  0.13397064365E+02  0.63760215581E+03  0.63887649938E+03  0.00000000000E+00 0. -1.
          1    1    1    2  503    0  0.29338946990E+02  0.60964211052E+02 -0.48311449123E+03  0.48782888442E+03  0.00000000000E+00 0. -1.
<mgrwt>
<rscale>  0 0.52222662E+02</rscale>
<asrwt>0</asrwt>
<pdfrwt beam="2">  1        2 0.77832523E-01 0.67618879E+02</pdfrwt>
<pdfrwt beam="1">  1        1 0.13978865E+00 0.40332027E+02</pdfrwt>
<totfact> 0.18036947E+02</totfact>
</mgrwt>
</event>
<event>
 7    1  0.5277388E-004  0.3807041E+02  0.7546771E-02  0.1586007E+00
          1   -1    0    0  503    0  0.00000000000E+00  0.00000000000E+00  0.35295925398E+03  0.35295925398E+03  0.00000000000E+00 0. -1.
         -1   -1    0    0    0  501 -0.00000000000E+00 -0.00000000000E+00 -0.12958878984E+03  0.12958878984E+03  0.00000000000E+00 0.  1.
         25    2    1    2    0    0 -0.14863964172E+02 -0.17333735078E+02  0.71089936188E+02  0.14560319147E+03  0.12500045815E+03 0.  0.
          4    1    3    3  502    0 -0.28990880355E+02  0.20184892738E+02 -0.23779792077E+02  0.42602728197E+02  0.12700000000E+01 0. -1.
         -4    1    3    3    0  502  0.14126916183E+02 -0.37518627815E+02  0.94869728265E+02  0.10300046328E+03  0.12700000000E+01 0. -1.
          2    1    1    2  503    0 -0.23310445386E+02  0.10193575116E+02  0.23982604577E+03  0.24117176051E+03  0.00000000000E+00 0. -1.
         -2    1    1    2    0  501  0.38174409558E+02  0.71401599620E+01 -0.87545517822E+02  0.95773091837E+02  0.00000000000E+00 0.  1.
<mgrwt>
<rscale>  0 0.31122023E+02</rscale>
<asrwt>0</asrwt>
<pdfrwt beam="1">  1        1 0.54301423E-01 0.25441813E+02</pdfrwt>
<pdfrwt beam="2">  1       -1 0.19936737E-01 0.38070412E+02</pdfrwt>
<totfact> 0.13602834E+03</totfact>
</mgrwt>
</event>
<event>
 7    1  0.5277388E-004  0.7651655E+02  0.7546771E-02  0.1433629E+00
          1   -1    0    0  502    0 -0.00000000000E+00  0.00000000000E+00  0.16815193312E+03  0.16815193312E+03  0.00000000000E+00 0. -1.
          2   -1    0    0  503    0  0.00000000000E+00 -0.00000000000E+00 -0.16079392711E+04  0.16079392711E+04  0.00000000000E+00 0. -1.
         25    2    1    2    0    0  0.60038835875E+02 -0.77978316804E+02 -0.10369341122E+04  0.10490665677E+04  0.12499212229E+03 0.  0.
          4    1    3    3  501    0  0.44370892099E+02  0.14982962135E+02 -0.15026468752E+03  0.15739871167E+03  0.12700000000E+01 0. -1.
         -4    1    3    3    0  501  0.15667943776E+02 -0.92961278939E+02 -0.88666942468E+03  0.89166785599E+03  0.12700000000E+01 0. -1.
          2    1    1    2  502    0 -0.51805504225E+01  0.35285323487E+02  0.15795173574E+03  0.16192789438E+03  0.00000000000E+00 0. -1.
          1    1    1    2  503    0 -0.54858285452E+02  0.42692993317E+02 -0.56080496148E+03  0.56509674214E+03  0.00000000000E+00 0. -1.
<mgrwt>
<rscale>  0 0.52238448E+02</rscale>
<asrwt>0</asrwt>
<pdfrwt beam="2">  1        2 0.24737528E+00 0.76516550E+02</pdfrwt>
<pdfrwt beam="1">  1        1 0.25869527E-01 0.35663597E+02</pdfrwt>
<totfact> 0.31564781E+02</totfact>
</mgrwt>
</event>
<event>
 7    1  0.5277388E-004  0.3709993E+02  0.7546771E-02  0.1559470E+00
          1   -1    0    0  502    0 -0.00000000000E+00  0.00000000000E+00  0.14048789374E+02  0.14048789374E+02  0.00000000000E+00 0. -1.
          2   -1    0    0  503    0  0.00000000000E+00 -0.00000000000E+00 -0.14996751624E+04  0.14996751624E+04  0.00000000000E+00 0. -1.
         25    2    1    2    0    0  0.55442780043E+02  0.33415193652E+02 -0.65723776039E+03  0.67214389252E+03  0.12500184617E+03 0.  0.
          4    1    3    3  501    0  0.69054618380E+02  0.10560276371E+02 -0.16496290418E+03  0.17914919037E+03  0.12700000000E+01 0. -1.
         -4    1    3    3    0  501 -0.13611838337E+02  0.22854917280E+02 -0.49227485622E+03  0.49299470215E+03  0.12700000000E+01 0. -1.
          2    1    1    2  502    0 -0.32831313613E+02 -0.12496211058E+02 -0.42723789476E+02  0.55311595814E+02  0.00000000000E+00 0. -1.
          1    1    1    2  503    0 -0.22611466430E+02 -0.20918982594E+02 -0.78566482314E+03  0.78626846342E+03  0.00000000000E+00 0. -1.
<mgrwt>
<rscale>  0 0.33805677E+02</rscale>
<asrwt>0</asrwt>
<pdfrwt beam="2">  1        2 0.23071930E+00 0.30803932E+02</pdfrwt>
<pdfrwt beam="1">  1        1 0.21613518E-02 0.37099932E+02</pdfrwt>
<totfact> 0.92988049E+03</totfact>
</mgrwt>
</event>
<event>
 7    1  0.5277388E-004  0.5440669E+02  0.7546771E-02  0.1445484E+00
          2   -1    0    0  503    0  0.00000000000E+00  0.00000000000E+00  0.21425695777E+04  0.21425695777E+04  0.00000000000E+00 0. -1.
          1   -1    0    0  502    0 -0.00000000000E+00 -0.00000000000E+00 -0.18391898372E+02  0.18391898372E+02  0.00000000000E+00 0. -1.
         25    2    1    2    0    0  0.62714314094E+02  0.54609324183E+02  0.39790227677E+03  0.42528442836E+03  0.12500143869E+03 0.  0.
          4    1    3    3  501    0  0.38571978617E+02  0.76514728952E+02  0.13193466697E+03  0.15732345829E+03  0.12700000000E+01 0. -1.
         -4    1    3    3    0  501  0.24142335477E+02 -0.21905404769E+02  0.26596760980E+03  0.26796097007E+03  0.12700000000E+01 0. -1.
          2    1    1    2  502    0 -0.45766411092E+02 -0.35230448491E+01  0.11968545491E+03  0.12818574158E+03  0.00000000000E+00 0. -1.
          1    1    1    2  503    0 -0.16947903002E+02 -0.51086279334E+02  0.16065899477E+04  0.16074913061E+04  0.00000000000E+00 0. -1.
<mgrwt>
<rscale>  0 0.49973650E+02</rscale>
<asrwt>0</asrwt>
<pdfrwt beam="1">  1        2 0.32962589E+00 0.54406693E+02</pdfrwt>
<pdfrwt beam="2">  1        1 0.28295245E-02 0.45901811E+02</pdfrwt>
<totfact> 0.30782928E+03</totfact>
</mgrwt>
</event>
<event>
 7    1  0.5277388E-004  0.9517008E+02  0.7546771E-02  0.1362748E+00
         -2   -1    0    0    0  501 -0.00000000000E+00  0.00000000000E+00  0.43807337308E+03  0.43807337308E+03  0.00000000000E+00 0.  1.
          2   -1    0    0  503    0  0.00000000000E+00 -0.00000000000E+00 -0.35917506527E+04  0.35917506527E+04  0.00000000000E+00 0. -1.
         25    2    1    2    0    0  0.15670094534E+02 -0.47174327899E+02 -0.37720567345E+03  0.40047488725E+03  0.12500018461E+03 0.  0.
          4    1    3    3  502    0  0.38534933793E+02 -0.23392732168E+02 -0.36080198400E+03  0.36360946852E+03  0.12700000000E+01 0.  1.
         -4    1    3    3    0  502 -0.22864839259E+02 -0.23781595731E+02 -0.16403689452E+02  0.36865418722E+02  0.12700000000E+01 0.  1.
          1    1    1    2  503    0 -0.13097279715E+02 -0.48620245558E+02 -0.31973259634E+04  0.31977224369E+04  0.00000000000E+00 0. -1.
         -1    1    1    2    0  501 -0.25728148186E+01  0.95794573457E+02  0.42085435718E+03  0.43162670172E+03  0.00000000000E+00 0.  1.
<mgrwt>
<rscale>  0 0.69225279E+02</rscale>
<asrwt>0</asrwt>
<pdfrwt beam="2">  1        2 0.55257700E+00 0.50353421E+02</pdfrwt>
<pdfrwt beam="1">  1       -2 0.67395906E-01 0.95170083E+02</pdfrwt>
<totfact> 0.25894555E+00</totfact>
</mgrwt>
</event>
<event>
 7    1  0.5277388E-004  0.8159396E+02  0.7546771E-02  0.1405047E+00
          2   -1    0    0  503    0  0.00000000000E+00  0.00000000000E+00  0.12923788974E+04  0.12923788974E+04  0.00000000000E+00 0. -1.
          1   -1    0    0  502    0 -0.00000000000E+00 -0.00000000000E+00 -0.15641390254E+04  0.15641390254E+04  0.00000000000E+00 0. -1.
         25    2    1    2    0    0  0.85874160514E+02 -0.18013997120E+01  0.92684347566E+02  0.17773840861E+03  0.12499174824E+03 0.  0.
          4    1    3    3  501    0  0.33670715397E+02 -0.61528886493E+02  0.58536914306E+02  0.91365771408E+02  0.12700000000E+01 0. -1.
         -4    1    3    3    0  501  0.52203445117E+02  0.59727486781E+02  0.34147433260E+02  0.86372637203E+02  0.12700000000E+01 0. -1.
          2    1    1    2  502    0 -0.13286750511E+02  0.39501121018E+02 -0.15198806158E+04  0.15204518942E+04  0.00000000000E+00 0. -1.
          1    1    1    2  503    0 -0.72587410003E+02 -0.37699721306E+02  0.11554361402E+04  0.11583276199E+04  0.00000000000E+00 0. -1.
<mgrwt>
<rscale>  0 0.58313785E+02</rscale>
<asrwt>0</asrwt>
<pdfrwt beam="1">  1        2 0.19882752E+00 0.81593960E+02</pdfrwt>
<pdfrwt beam="2">  1        1 0.24063677E+00 0.41675848E+02</pdfrwt>
<totfact> 0.20709787E+01</totfact>
</mgrwt>
</event>
<event>
 7    1  0.5277388E-004  0.7537186E+02  0.7546771E-02  0.1366595E+00
         -1   -1    0    0    0  501 -0.00000000000E+00  0.00000000000E+00  0.11441142614E+03  0.11441142614E+03  0.00000000000E+00 0.  1.
          1   -1    0    0  503    0  0.00000000000E+00 -0.00000000000E+00 -0.41255204113E+03  0.41255204113E+03  0.00000000000E+00 0. -1.
         25    2    1    2    0    0 -0.13439190746E+02  0.31829302546E+02 -0.15457376973E+03  0.20176965067E+03  0.12499690113E+03 0.  0.
          4    1    3    3  502    0 -0.56806996869E+02  0.12242384137E+00 -0.26137334694E+02  0.62544568476E+02  0.12700000000E+01 0.  1.
         -4    1    3    3    0  502  0.43367806123E+02  0.31706878705E+02 -0.12843643504E+03  0.13922508219E+03  0.12700000000E+01 0.  1.
          2    1    1    2  503    0  0.63291356385E+02 -0.67964340689E+02 -0.21301639001E+03  0.23238100140E+03  0.00000000000E+00 0. -1.
         -2    1    1    2    0  501 -0.49852165638E+02  0.36135038143E+02  0.69449544753E+02  0.92812815208E+02  0.00000000000E+00 0.  1.
<mgrwt>
<rscale>  0 0.68122795E+02</rscale>
<asrwt>0</asrwt>
<pdfrwt beam="2">  1        1 0.63469546E-01 0.75371855E+02</pdfrwt>
<pdfrwt beam="1">  1       -1 0.17601757E-01 0.61570930E+02</pdfrwt>
<totfact> 0.13920224E+03</totfact>
</mgrwt>
</event>
<event>
 7    1  0.5277388E-004  0.8038475E+02  0.7546771E-02  0.1411637E+00
         -2   -1    0    0    0  501 -0.00000000000E+00  0.00000000000E+00  0.88290901592E+01  0.88290901592E+01  0.00000000000E+00 0.  1.
          2   -1    0    0  503    0  0.00000000000E+00 -0.00000000000E+00 -0.24082951615E+04  0.24082951615E+04  0.00000000000E+00 0. -1.
         25    2    1    2    0    0  0.44079193353E+02 -0.70095535404E+02 -0.96557499124E+03  0.97714293828E+03  0.12496759078E+03 0.  0.
          4    1    3    3  502    0  0.18677895227E+02  0.26702618310E+02 -0.87448369495E+02  0.93331258548E+02  0.12700000000E+01 0. -1.
         -4    1    3    3    0  502  0.25401298126E+02 -0.96798153714E+02 -0.87812662175E+03  0.88381167973E+03  0.12700000000E+01 0. -1.
          3    1    1    2  503    0 -0.71084909572E+02  0.40347579236E+02 -0.11899254568E+04  0.11927294682E+04  0.00000000000E+00 0. -1.
         -3    1    1    2    0  501  0.27005716219E+02  0.29747956167E+02 -0.24396562333E+03  0.24725184523E+03  0.00000000000E+00 0.  1.
<mgrwt>
<rscale>  0 0.56830242E+02</rscale>
<asrwt>0</asrwt>
<pdfrwt beam="2">  1        2 0.37050694E+00 0.80384751E+02</pdfrwt>
<pdfrwt beam="1">  1       -2 0.13583216E-02 0.40177725E+02</pdfrwt>
<totfact> 0.53989504E+03</totfact>
</mgrwt>
</event>
<event>
 7    1  0.5277388E-004  0.1488919E+03  0.7546771E-02  0.1292195E+00
          1   -1    0    0  502    0 -0.00000000000E+00  0.00000000000E+00  0.55901898200E+03  0.55901898200E+03  0.00000000000E+00 0. -1.
          2   -1    0    0  503    0  0.00000000000E+00 -0.00000000000E+00 -0.32745250321E+04  0.32745250321E+04  0.00000000000E+00 0. -1.
         25    2    1    2    0    0 -0.10976903629E+03 -0.16919225650E+03 -0.71270362064E+02  0.24774383169E+03  0.12498912211E+03 0.  0.
          4    1    3    3  501    0 -0.12422775252E+03 -0.82043458706E+02 -0.42477513403E+02  0.15482123775E+03  0.12700000000E+01 0.  1.
         -4    1    3    3    0  501  0.14458716230E+02 -0.87148797790E+02 -0.28792848661E+02  0.92922593944E+02  0.12700000000E+01 0.  1.
          2    1    1    2  502    0  0.63879131220E+02  0.13047590277E+03  0.45927782666E+03  0.48170595457E+03  0.00000000000E+00 0. -1.
          1    1    1    2  503    0  0.45889905068E+02  0.38716353724E+02 -0.31035135147E+04  0.31040942278E+04  0.00000000000E+00 0. -1.
<mgrwt>
<rscale>  0 0.94549022E+02</rscale>
<asrwt>0</asrwt>
<pdfrwt beam="2">  1        2 0.50377309E+00 0.60040315E+02</pdfrwt>
<pdfrwt beam="1">  1        1 0.86002919E-01 0.14889192E+03</pdfrwt>
<totfact> 0.99658306E+00</totfact>
</mgrwt>
</event>
<event>
 7    1  0.5277388E-004  0.1270739E+03  0.7546771E-02  0.1381138E+00
          2   -1    0    0  503    0  0.00000000000E+00  0.00000000000E+00  0.31604028137E+04  0.31604028137E+04  0.00000000000E+00 0. -1.
         -2   -1    0    0    0  501 -0.00000000000E+00 -0.00000000000E+00 -0.18122764102E+02  0.18122764102E+02  0.00000000000E+00 0.  1.
         25    2    1    2    0    0 -0.79108754156E+02  0.96135272061E+02  0.20180195994E+04  0.20257167851E+04  0.12500081739E+03 0.  0.
          4    1    3    3  502    0  0.22348287811E+02  0.34679622926E+02  0.99270238234E+03  0.99356014162E+03  0.12700000000E+01 0.  1.
         -4    1    3    3    0  502 -0.10145704197E+03  0.61455649135E+02  0.10253172171E+04  0.10321566435E+04  0.12700000000E+01 0.  1.
          1    1    1    2  503    0  0.10600163512E+03 -0.78064902996E+02  0.11093650910E+04  0.11171487729E+04  0.00000000000E+00 0. -1.
         -1    1    1    2    0  501 -0.26892880961E+02 -0.18070369066E+02  0.14895359195E+02  0.35660019771E+02  0.00000000000E+00 0.  1.
<mgrwt>
<rscale>  0 0.64165456E+02</rscale>
<asrwt>0</asrwt>
<pdfrwt beam="1">  1        2 0.48621538E+00 0.12707393E+03</pdfrwt>
<pdfrwt beam="2">  1       -2 0.27881201E-02 0.32400082E+02</pdfrwt>
<totfact> 0.68497298E+02</totfact>
</mgrwt>
</event>
<event>
 7    1  0.5277388E-004  0.2213870E+03  0.7546771E-02  0.1223221E+00
         -1   -1    0    0    0  501 -0.00000000000E+00  0.00000000000E+00  0.98246975561E+02  0.98246975561E+02  0.00000000000E+00 0.  1.
          1   -1    0    0  503    0  0.00000000000E+00 -0.00000000000E+00 -0.17977891870E+04  0.17977891870E+04  0.00000000000E+00 0. -1.
         25    2    1    2    0    0  0.20101883027E+02  0.17356462303E+03 -0.33833900334E+03  0.40078412175E+03  0.12500346795E+03 0.  0.
          4    1    3    3  502    0  0.35808797352E+02  0.18922782547E+03 -0.30526379885E+03  0.36093910800E+03  0.12700000000E+01 0. -1.
         -4    1    3    3    0  502 -0.15706914325E+02 -0.15663202441E+02 -0.33075204492E+02  0.39845013748E+02  0.12700000000E+01 0. -1.
          2    1    1    2  503    0  0.31063481552E+02  0.73479131449E+02 -0.11846292046E+04  0.11873122904E+04  0.00000000000E+00 0. -1.
         -2    1    1    2    0  501 -0.51165364579E+02 -0.24704375448E+03 -0.17657400356E+03  0.30793975043E+03  0.00000000000E+00 0.  1.
<mgrwt>
<rscale>  0 0.13289563E+03</rscale>
<asrwt>0</asrwt>
<pdfrwt beam="2">  1        1 0.27658293E+00 0.79775451E+02</pdfrwt>
<pdfrwt beam="1">  1       -1 0.15114920E-01 0.22138700E+03</pdfrwt>
<totfact> 0.16498626E+02</totfact>
</mgrwt>
</event>
<event>
 7    1  0.5277388E-004  0.1075340E+03  0.7546771E-02  0.1446385E+00
          1   -1    0    0  502    0 -0.00000000000E+00  0.00000000000E+00  0.11758479599E+03  0.11758479599E+03  0.00000000000E+00 0. -1.
          2   -1    0    0  503    0  0.00000000000E+00 -0.00000000000E+00 -0.31448104261E+04  0.31448104261E+04  0.00000000000E+00 0. -1.
         25    2    1    2    0    0 -0.63518384100E+02 -0.87442054893E+02 -0.68643185170E+03  0.70604227695E+03  0.12500524681E+03 0.  0.
          4    1    3    3  501    0 -0.82854036457E+02 -0.47464164135E+02 -0.25440680179E+03  0.27173897757E+03  0.12700000000E+01 0.  1.
         -4    1    3    3    0  501  0.19335652357E+02 -0.39977890758E+02 -0.43202504992E+03  0.43430329939E+03  0.12700000000E+01 0.  1.
          2    1    1    2  502    0  0.20174371213E+02 -0.11189071925E+02  0.10534572490E+03  0.10784211765E+03  0.00000000000E+00 0. -1.
          1    1    1    2  503    0  0.43344012887E+02  0.98631126818E+02 -0.24461395033E+04  0.24485108275E+04  0.00000000000E+00 0. -1.
<mgrwt>
<rscale>  0 0.49807149E+02</rscale>
<asrwt>0</asrwt>
<pdfrwt beam="2">  1        2 0.48381702E+00 0.10753397E+03</pdfrwt>
<pdfrwt beam="1">  1        1 0.18089967E-01 0.23069473E+02</pdfrwt>
<totfact> 0.70392242E+01</totfact>
</mgrwt>
</event>
<event>
 7    1  0.5277388E-004  0.4709193E+02  0.7546771E-02  0.1511136E+00
          1   -1    0    0  503    0  0.00000000000E+00  0.00000000000E+00  0.18056286108E+03  0.18056286108E+03  0.00000000000E+00 0. -1.
         -1   -1    0    0    0  501 -0.00000000000E+00 -0.00000000000E+00 -0.42113930664E+03  0.42113930664E+03  0.00000000000E+00 0.  1.
         25    2    1    2    0    0  0.38207225236E+02  0.10342724931E+02 -0.15339894922E+03  0.20180266291E+03  0.12500525235E+03 0.  0.
          4    1    3    3  502    0  0.53718242178E+02  0.32992854736E+02 -0.20815273939E+02  0.66400802220E+02  0.12700000000E+01 0.  1.
         -4    1    3    3    0  502 -0.15511016942E+02 -0.22650129804E+02 -0.13258367528E+03  0.13540186069E+03  0.12700000000E+01 0.  1.
          2    1    1    2  503    0 -0.41639338446E+02  0.22788925207E+02  0.15157550449E+03  0.15883420028E+03  0.00000000000E+00 0. -1.
         -2    1    1    2    0  501  0.34321132102E+01 -0.33131650139E+02 -0.23875300082E+03  0.24106530452E+03  0.00000000000E+00 0.  1.
<mgrwt>
<rscale>  0 0.39605332E+02</rscale>
<asrwt>0</asrwt>
<pdfrwt beam="1">  1        1 0.27778902E-01 0.47091929E+02</pdfrwt>
<pdfrwt beam="2">  1       -1 0.64790662E-01 0.33308942E+02</pdfrwt>
<totfact> 0.42093455E+02</totfact>
</mgrwt>
</event>
<event>
 7    1  0.5277388E-004  0.4818620E+02  0.7546771E-02  0.1483368E+00
          2   -1    0    0  503    0  0.00000000000E+00  0.00000000000E+00  0.20849663002E+04  0.20849663002E+04  0.00000000000E+00 0. -1.
          1   -1    0    0  502    0 -0.00000000000E+00 -0.00000000000E+00 -0.32444740520E+03  0.32444740520E+03  0.00000000000E+00 0. -1.
         25    2    1    2    0    0  0.80897303929E+02  0.20054690774E+02  0.33682281514E+03  0.36880931048E+03  0.12499653712E+03 0.  0.
          4    1    3    3  501    0  0.35224851352E+02  0.53131147467E+02  0.28555194920E+03  0.29258372746E+03  0.12700000000E+01 0.  1.
         -4    1    3    3    0  501  0.45672452578E+02 -0.33076456692E+02  0.51270865936E+02  0.76225583013E+02  0.12700000000E+01 0.  1.
          2    1    1    2  502    0 -0.41658380972E+02 -0.23878268392E+02 -0.30635955374E+03  0.31009961072E+03  0.00000000000E+00 0. -1.
          1    1    1    2  503    0 -0.39238922958E+02  0.38235776172E+01  0.17300556336E+04  0.17305047842E+04  0.00000000000E+00 0. -1.
<mgrwt>
<rscale>  0 0.43585891E+02</rscale>
<asrwt>0</asrwt>
<pdfrwt beam="1">  1        2 0.32076404E+00 0.39424774E+02</pdfrwt>
<pdfrwt beam="2">  1        1 0.49914987E-01 0.48186197E+02</pdfrwt>
<totfact> 0.91137674E+01</totfact>
</mgrwt>
</event>
<event>
 7    1  0.5277388E-004  0.1194289E+03  0.7546771E-02  0.1322047E+00
          1   -1    0    0  502    0 -0.00000000000E+00  0.00000000000E+00  0.28048344676E+03  0.28048344676E+03  0.00000000000E+00 0. -1.
          2   -1    0    0  503    0  0.00000000000E+00 -0.00000000000E+00 -0.40781761565E+04  0.40781761565E+04  0.00000000000E+00 0. -1.
         25    2    1    2    0    0 -0.80062369103E+02 -0.13394927124E+03 -0.41290794127E+03  0.45876908683E+03  0.12499486729E+03 0.  0.
          4    1    3    3  501    0 -0.58117293288E+02 -0.99670642579E+02 -0.13368826531E+03  0.17659564534E+03  0.12700000000E+01 0. -1.
         -4    1    3    3    0  501 -0.21945075815E+02 -0.34278628665E+02 -0.27921967597E+03  0.28217344149E+03  0.12700000000E+01 0. -1.
          2    1    1    2  502    0 -0.90521209074E+01  0.56295021029E+02  0.25342553379E+03  0.25976060414E+03  0.00000000000E+00 0. -1.
          1    1    1    2  503    0  0.89114490010E+02  0.77654250215E+02 -0.36382103023E+04  0.36401299123E+04  0.00000000000E+00 0. -1.
<mgrwt>
<rscale>  0 0.82520397E+02</rscale>
<asrwt>0</asrwt>
<pdfrwt beam="2">  1        2 0.62741167E+00 0.11942890E+03</pdfrwt>
<pdfrwt beam="1">  1        1 0.43151303E-01 0.57018158E+02</pdfrwt>
<totfact> 0.59989808E+00</totfact>
</mgrwt>
</event>
<event>
 7    1  0.5277388E-004  0.9779223E+02  0.7546771E-02  0.1386025E+00
          2   -1    0    0  503    0  0.00000000000E+00  0.00000000000E+00  0.30642534597E+03  0.30642534597E+03  0.00000000000E+00 0. -1.
          1   -1    0    0  502    0 -0.00000000000E+00 -0.00000000000E+00 -0.34191405218E+03  0.34191405218E+03  0.00000000000E+00 0. -1.
         25    2    1    2    0    0 -0.35790799671E+02  0.77259802196E+02 -0.19789011670E+03  0.24907133914E+03  0.12500390121E+03 0.  0.
          4    1    3    3  501    0 -0.34310759416E+02  0.61344943646E+02 -0.21465493471E+03  0.22587338094E+03  0.12700000000E+01 0. -1.
         -4    1    3    3    0  501 -0.14800402551E+01  0.15914858549E+02  0.16764818008E+02  0.23197958200E+02  0.12700000000E+01 0. -1.
          2    1    1    2  502    0  0.34406177278E+02  0.21299506720E+02 -0.10593496762E+03  0.11340049112E+03  0.00000000000E+00 0. -1.
          1    1    1    2  503    0  0.13846223931E+01 -0.98559308916E+02  0.26833637812E+03  0.28586756789E+03  0.00000000000E+00 0. -1.
<mgrwt>
<rscale>  0 0.62906344E+02</rscale>
<asrwt>0</asrwt>
<pdfrwt beam="1">  1        2 0.47142361E-01 0.97792226E+02</pdfrwt>
<pdfrwt beam="2">  1        1 0.52602162E-01 0.40465467E+02</pdfrwt>
<totfact> 0.10828600E+03</totfact>
</mgrwt>
</event>
<event>
 7    1  0.5277388E-004  0.1471770E+03  0.7546771E-02  0.1300463E+00
          1   -1    0    0  502    0 -0.00000000000E+00  0.00000000000E+00  0.32674309295E+03  0.32674309295E+03  0.00000000000E+00 0. -1.
          2   -1    0    0  503    0  0.00000000000E+00 -0.00000000000E+00 -0.48702609799E+03  0.48702609799E+03  0.00000000000E+00 0. -1.
         25    2    1    2    0    0  0.15442460871E+03  0.25165173054E+02  0.86515755032E+02  0.21815261238E+03  0.12500136283E+03 0.  0.
          4    1    3    3  501    0  0.50537328700E+02  0.17495932693E+02  0.99698765888E+02  0.11314409429E+03  0.12700000000E+01 0. -1.
         -4    1    3    3    0  501  0.10388728001E+03  0.76692403614E+01 -0.13183010856E+02  0.10500851809E+03  0.12700000000E+01 0. -1.
          2    1    1    2  502    0 -0.10337058169E+02 -0.55299742960E+02  0.15649362628E+03  0.16629844079E+03  0.00000000000E+00 0. -1.
          1    1    1    2  503    0 -0.14408755054E+03  0.30134569906E+02 -0.40329238635E+03  0.42931813777E+03  0.00000000000E+00 0. -1.
<mgrwt>
<rscale>  0 0.90993522E+02</rscale>
<asrwt>0</asrwt>
<pdfrwt beam="2">  1        2 0.74927092E-01 0.14717696E+03</pdfrwt>
<pdfrwt beam="1">  1        1 0.50268168E-01 0.56257589E+02</pdfrwt>
<totfact> 0.69659051E+02</totfact>
</mgrwt>
</event>
<event>
 7    1  0.5277388E-004  0.1082482E+03  0.7546771E-02  0.1400598E+00
          2   -1    0    0  503    0  0.00000000000E+00  0.00000000000E+00  0.49014968066E+03  0.49014968066E+03  0.00000000000E+00 0. -1.
          1   -1    0    0  502    0 -0.00000000000E+00 -0.00000000000E+00 -0.28164997275E+03  0.28164997275E+03  0.00000000000E+00 0. -1.
         25    2    1    2    0    0 -0.10445349701E+03  0.64934707211E+02 -0.15729563949E+02  0.17606653262E+03  0.12499982195E+03 0.  0.
          4    1    3    3  501    0 -0.86743205615E+02  0.19509774409E+02  0.43789736217E+02  0.99116945654E+02  0.12700000000E+01 0. -1.
         -4    1    3    3    0  501 -0.17710291396E+02  0.45424932802E+02 -0.59519300167E+02  0.76949586963E+02  0.12700000000E+01 0. -1.
          2    1    1    2  502    0  0.73874256774E+02 -0.76046780915E+02 -0.16989840889E+03  0.20026479482E+03  0.00000000000E+00 0. -1.
          1    1    1    2  503    0  0.30579240237E+02  0.11112073704E+02  0.39412768075E+03  0.39546832597E+03  0.00000000000E+00 0. -1.
<mgrwt>
<rscale>  0 0.59345799E+02</rscale>
<asrwt>0</asrwt>
<pdfrwt beam="1">  1        2 0.75407643E-01 0.32535644E+02</pdfrwt>
<pdfrwt beam="2">  1        1 0.43330765E-01 0.10824817E+03</pdfrwt>
<totfact> 0.84386157E+02</totfact>
</mgrwt>
</event>
<event>
 7    1  0.5277388E-004  0.2620004E+02  0.7546771E-02  0.1691618E+00
          1   -1    0    0  502    0 -0.00000000000E+00  0.00000000000E+00  0.15853487140E+04  0.15853487140E+04  0.00000000000E+00 0. -1.
          2   -1    0    0  503    0  0.00000000000E+00 -0.00000000000E+00 -0.76026392041E+03  0.76026392041E+03  0.00000000000E+00 0. -1.
         25    2    1    2    0    0  0.64689134248E+01 -0.38711161685E+02 -0.81735214219E+02  0.15441777820E+03  0.12499521632E+03 0.  0.
          4    1    3    3  501    0  0.24399556820E+02 -0.11460378937E+02 -0.10874732670E+03  0.11204585054E+03  0.12700000000E+01 0.  1.
         -4    1    3    3    0  501 -0.17930643395E+02 -0.27250782748E+02  0.27012112484E+02  0.42371927662E+02  0.12700000000E+01 0.  1.
          2    1    1    2  502    0  0.82153132696E+01  0.24870288492E+02  0.15487381544E+04  0.15489596164E+04  0.00000000000E+00 0. -1.
          1    1    1    2  503    0 -0.14684226694E+02  0.13840873193E+02 -0.64191814656E+03  0.64223523975E+03  0.00000000000E+00 0. -1.
<mgrwt>
<rscale>  0 0.22993332E+02</rscale>
<asrwt>0</asrwt>
<pdfrwt beam="2">  1        2 0.11696368E+00 0.20179105E+02</pdfrwt>
<pdfrwt beam="1">  1        1 0.24389980E+00 0.26200037E+02</pdfrwt>
<totfact> 0.45590950E+01</totfact>
</mgrwt>
</event>
<event>
 7    1  0.5277388E-004  0.9903800E+02  0.7546771E-02  0.1303188E+00
          1   -1    0    0  502    0 -0.00000000000E+00  0.00000000000E+00  0.10367864517E+04  0.10367864517E+04  0.00000000000E+00 0. -1.
          2   -1    0    0  503    0  0.00000000000E+00 -0.00000000000E+00 -0.60040854936E+02  0.60040854936E+02  0.00000000000E+00 0. -1.
         25    2    1    2    0    0 -0.27877247328E+02 -0.14252631066E+03  0.25892027342E+03  0.32210894605E+03  0.12499429982E+03 0.  0.
          4    1    3    3  501    0 -0.20186850843E+02 -0.16578803752E+03  0.22300537263E+03  0.27861477249E+03  0.12700000000E+01 0. -1.
         -4    1    3    3    0  501 -0.76903964847E+01  0.23261726855E+02  0.35914900791E+02  0.43494173555E+02  0.12700000000E+01 0. -1.
          2    1    1    2  502    0 -0.34311536604E+02  0.89796574989E+02  0.67652498860E+03  0.68332039822E+03  0.00000000000E+00 0. -1.
          1    1    1    2  503    0  0.62188783932E+02  0.52729735672E+02  0.41300334705E+02  0.91397962328E+02  0.00000000000E+00 0. -1.
<mgrwt>
<rscale>  0 0.89861065E+02</rscale>
<asrwt>0</asrwt>
<pdfrwt beam="2">  1        2 0.92370553E-02 0.81534470E+02</pdfrwt>
<pdfrwt beam="1">  1        1 0.15950560E+00 0.99038002E+02</pdfrwt>
<totfact> 0.14314001E+03</totfact>
</mgrwt>
</event>
<event>
 7    1  0.5277388E-004  0.8871045E+02  0.7546771E-02  0.1400194E+00
         -1   -1    0    0    0  501 -0.00000000000E+00  0.00000000000E+00  0.31081483005E+02  0.31081483005E+02  0.00000000000E+00 0.  1.
          1   -1    0    0  503    0  0.00000000000E+00 -0.00000000000E+00 -0.14247079477E+04  0.14247079477E+04  0.00000000000E+00 0. -1.
         25    2    1    2    0    0 -0.67256712662E+02 -0.51549012186E+02 -0.34685549944E+03  0.37830652422E+03  0.12500529079E+03 0.  0.
          4    1    3    3  502    0  0.26319109915E+02 -0.76590253045E+01 -0.16187204064E+02  0.31858981320E+02  0.12700000000E+01 0.  1.
         -4    1    3    3    0  502 -0.93575822577E+02 -0.43889986882E+02 -0.33066829537E+03  0.34644754290E+03  0.12700000000E+01 0.  1.
          2    1    1    2  503    0  0.25031797252E+02 -0.30979179012E+02 -0.91773533874E+03  0.91859917940E+03  0.00000000000E+00 0. -1.
         -2    1    1    2    0  501  0.42224915410E+02  0.82528191198E+02 -0.12903562653E+03  0.15888372710E+03  0.00000000000E+00 0.  1.
<mgrwt>
<rscale>  0 0.59440677E+02</rscale>
<asrwt>0</asrwt>
<pdfrwt beam="2">  1        1 0.21918581E+00 0.39828387E+02</pdfrwt>
<pdfrwt beam="1">  1       -1 0.47817672E-02 0.88710448E+02</pdfrwt>
<totfact> 0.16363814E+03</totfact>
</mgrwt>
</event>
<event>
 7    1  0.5277388E-004  0.6878560E+02  0.7546771E-02  0.1506881E+00
          2   -1    0    0  503    0  0.00000000000E+00  0.00000000000E+00  0.14964866417E+03  0.14964866417E+03  0.00000000000E+00 0. -1.
          1   -1    0    0  502    0 -0.00000000000E+00 -0.00000000000E+00 -0.36787305881E+03  0.36787305881E+03  0.00000000000E+00 0. -1.
         25    2    1    2    0    0 -0.38358389469E+02 -0.29689646396E+02 -0.19393769598E+03  0.23577398370E+03  0.12499880128E+03 0.  0.
          4    1    3    3  501    0 -0.30996665816E+02  0.23840269240E+01  0.72179726549E+01  0.31940396136E+02  0.12700000000E+01 0. -1.
         -4    1    3    3    0  501 -0.73617236539E+01 -0.32073673320E+02 -0.20115566863E+03  0.20383358756E+03  0.12700000000E+01 0. -1.
          2    1    1    2  502    0 -0.23299215614E+02 -0.28437956661E+01 -0.14254805898E+03  0.14446760793E+03  0.00000000000E+00 0. -1.
          1    1    1    2  503    0  0.61657605083E+02  0.32533442062E+02  0.11826136032E+03  0.13728013134E+03  0.00000000000E+00 0. -1.
<mgrwt>
<rscale>  0 0.40181390E+02</rscale>
<asrwt>0</asrwt>
<pdfrwt beam="1">  1        2 0.23022871E-01 0.68785596E+02</pdfrwt>
<pdfrwt beam="2">  1        1 0.56595856E-01 0.23472124E+02</pdfrwt>
<totfact> 0.21101036E+03</totfact>
</mgrwt>
</event>
<event>
 7    1  0.5277388E-004  0.7392135E+02  0.7546771E-02  0.1353081E+00
          1   -1    0    0  503    0  0.00000000000E+00  0.00000000000E+00  0.68011833858E+03  0.68011833858E+03  0.00000000000E+00 0. -1.
         -1   -1    0    0    0  501 -0.00000000000E+00 -0.00000000000E+00 -0.31658843845E+03  0.31658843845E+03  0.00000000000E+00 0.  1.
         25    2    1    2    0    0 -0.26762841441E+02  0.30290024459E+02  0.31335456766E+03  0.33977829621E+03  0.12499788092E+03 0.  0.
          4    1    3    3  502    0  0.37046776767E+02  0.21314064658E+02  0.23240184335E+03  0.23630273531E+03  0.12700000000E+01 0.  1.
         -4    1    3    3    0  502 -0.63809618208E+02  0.89759598012E+01  0.80952724309E+02  0.10347556090E+03  0.12700000000E+01 0.  1.
          2    1    1    2  503    0  0.93999767898E+02 -0.96570016062E+01  0.34299880533E+03  0.35577716973E+03  0.00000000000E+00 0. -1.
         -2    1    1    2    0  501 -0.67236926458E+02 -0.20633022853E+02 -0.29282347287E+03  0.30115131109E+03  0.00000000000E+00 0.  1.
<mgrwt>
<rscale>  0 0.72104112E+02</rscale>
<asrwt>0</asrwt>
<pdfrwt beam="1">  1        1 0.10463359E+00 0.73921354E+02</pdfrwt>
<pdfrwt beam="2">  1       -1 0.48705914E-01 0.70331543E+02</pdfrwt>
<totfact> 0.13626439E+02</totfact>
</mgrwt>
</event>
<event>
 7    1  0.5277388E-004  0.3800920E+02  0.7546771E-02  0.1535112E+00
          2   -1    0    0  503    0  0.00000000000E+00  0.00000000000E+00  0.22272644007E+03  0.22272644007E+03  0.00000000000E+00 0. -1.
         -2   -1    0    0    0  501 -0.00000000000E+00 -0.00000000000E+00 -0.13239380579E+03  0.13239380579E+03  0.00000000000E+00 0.  1.
         25    2    1    2    0    0  0.71162098031E+01  0.17343946924E+02 -0.17532254145E+02  0.12761090170E+03  0.12500283741E+03 0.  0.
          4    1    3    3  502    0 -0.30601793234E+02 -0.35550171986E+02  0.21709826592E+02  0.51703132865E+02  0.12700000000E+01 0.  1.
         -4    1    3    3    0  502  0.37718003037E+02  0.52894118910E+02 -0.39242080737E+02  0.75907768831E+02  0.12700000000E+01 0.  1.
          1    1    1    2  503    0  0.33883269973E+02 -0.94598019253E+01  0.15822769547E+03  0.16209123187E+03  0.00000000000E+00 0. -1.
         -1    1    1    2    0  501 -0.40999479776E+02 -0.78841449983E+01 -0.50362807032E+02  0.65418112296E+02  0.00000000000E+00 0.  1.
<mgrwt>
<rscale>  0 0.36566744E+02</rscale>
<asrwt>0</asrwt>
<pdfrwt beam="1">  1        2 0.34265606E-01 0.35179026E+02</pdfrwt>
<pdfrwt beam="2">  1       -2 0.20368278E-01 0.38009204E+02</pdfrwt>
<totfact> 0.27442174E+03</totfact>
</mgrwt>
</event>
<event>
 7    1  0.5277388E-004  0.9302786E+02  0.7546771E-02  0.1347976E+00
          1   -1    0    0  502    0 -0.00000000000E+00  0.00000000000E+00  0.99794329817E+03  0.99794329817E+03  0.00000000000E+00 0. -1.
          2   -1    0    0  503    0  0.00000000000E+00 -0.00000000000E+00 -0.98581158696E+02  0.98581158696E+02  0.00000000000E+00 0. -1.
         25    2    1    2    0    0  0.12293998711E+03 -0.48257211430E+02  0.31229191098E+03  0.36137610153E+03  0.12499380067E+03 0.  0.
          4    1    3    3  501    0  0.96899745098E+02  0.19996389281E+02  0.23517603848E+03  0.25514466124E+03  0.12700000000E+01 0.  1.
         -4    1    3    3    0  501  0.26040242014E+02 -0.68253600711E+02  0.77115872501E+02  0.10623144029E+03  0.12700000000E+01 0.  1.
          2    1    1    2  502    0 -0.32482402839E+02  0.48499400818E+02  0.63162258381E+03  0.63431410732E+03  0.00000000000E+00 0. -1.
          1    1    1    2  503    0 -0.90457584273E+02 -0.24218938777E+00 -0.44552355314E+02  0.10083424801E+03  0.00000000000E+00 0. -1.
<mgrwt>
<rscale>  0 0.73690086E+02</rscale>
<asrwt>0</asrwt>
<pdfrwt beam="2">  1        2 0.15166333E-01 0.93027862E+02</pdfrwt>
<pdfrwt beam="1">  1        1 0.15352973E+00 0.58372068E+02</pdfrwt>
<totfact> 0.88356220E+02</totfact>
</mgrwt>
</event>
<event>
 7    1  0.5277388E-004  0.1188039E+03  0.7546771E-02  0.1312127E+00
          2   -1    0    0  503    0  0.00000000000E+00  0.00000000000E+00  0.77964512812E+03  0.77964512812E+03  0.00000000000E+00 0. -1.
          1   -1    0    0  502    0 -0.00000000000E+00 -0.00000000000E+00 -0.42248931378E+03  0.42248931378E+03  0.00000000000E+00 0. -1.
         25    2    1    2    0    0  0.46237485604E+02  0.16782010533E+03  0.16987726704E+03  0.27346836986E+03  0.12500068252E+03 0.  0.
          4    1    3    3  501    0  0.43424990198E+02  0.18333555638E+03  0.17468751584E+03  0.25693383797E+03  0.12700000000E+01 0. -1.
         -4    1    3    3    0  501  0.28124954052E+01 -0.15515451044E+02 -0.48102487930E+01  0.16534531894E+02  0.12700000000E+01 0. -1.
          2    1    1    2  502    0 -0.50129885397E+02 -0.10528588399E+03 -0.35969013631E+03  0.37812050584E+03  0.00000000000E+00 0. -1.
          1    1    1    2  503    0  0.38923997931E+01 -0.62534221344E+02  0.54696868360E+03  0.55054556620E+03  0.00000000000E+00 0. -1.
<mgrwt>
<rscale>  0 0.86276794E+02</rscale>
<asrwt>0</asrwt>
<pdfrwt beam="1">  1        2 0.11994540E+00 0.62655244E+02</pdfrwt>
<pdfrwt beam="2">  1        1 0.64998356E-01 0.11880387E+03</pdfrwt>
<totfact> 0.30214145E+02</totfact>
</mgrwt>
</event>
<event>
 7    1  0.5277388E-004  0.4080315E+02  0.7546771E-02  0.1541729E+00
         -2   -1    0    0    0  501 -0.00000000000E+00  0.00000000000E+00  0.11496955695E+03  0.11496955695E+03  0.00000000000E+00 0.  1.
          2   -1    0    0  503    0  0.00000000000E+00 -0.00000000000E+00 -0.19514992309E+03  0.19514992309E+03  0.00000000000E+00 0. -1.
         25    2    1    2    0    0 -0.59257418380E+02  0.35192631983E+02 -0.56448039544E+02  0.15349743509E+03  0.12500047373E+03 0.  0.
          4    1    3    3  502    0  0.12703120649E+02  0.27895855645E+02 -0.73089877565E+02  0.79267213518E+02  0.12700000000E+01 0.  1.
         -4    1    3    3    0  502 -0.71960539028E+02  0.72967763382E+01  0.16641838022E+02  0.74230221574E+02  0.12700000000E+01 0.  1.
          1    1    1    2  503    0  0.29921122317E+02 -0.24036612678E+02 -0.81944862107E+02  0.90487528066E+02  0.00000000000E+00 0. -1.
         -1    1    1    2    0  501  0.29336296063E+02 -0.11156019305E+02  0.58212535505E+02  0.66134516883E+02  0.00000000000E+00 0.  1.
<mgrwt>
<rscale>  0 0.35786082E+02</rscale>
<asrwt>0</asrwt>
<pdfrwt beam="2">  1        2 0.30023065E-01 0.40803147E+02</pdfrwt>
<pdfrwt beam="1">  1       -2 0.17687624E-01 0.31385905E+02</pdfrwt>
<totfact> 0.39239453E+03</totfact>
</mgrwt>
</event>
<event>
 7    1  0.5277388E-004  0.6336045E+02  0.7546771E-02  0.1418244E+00
          2   -1    0    0  503    0  0.00000000000E+00  0.00000000000E+00  0.61720451657E+03  0.61720451657E+03  0.00000000000E+00 0. -1.
          1   -1    0    0  502    0 -0.00000000000E+00 -0.00000000000E+00 -0.24051669908E+03  0.24051669908E+03  0.00000000000E+00 0. -1.
         25    2    1    2    0    0 -0.34373167286E+01  0.61979360738E+02 -0.62486804101E+02  0.15288668726E+03  0.12496592396E+03 0.  0.
          4    1    3    3  501    0 -0.72605162709E+01  0.39325288286E+02  0.34731893284E+02  0.52982173477E+02  0.12700000000E+01 0.  1.
         -4    1    3    3    0  501  0.38231995424E+01  0.22654072452E+02 -0.97218697385E+02  0.99904513785E+02  0.12700000000E+01 0.  1.
          2    1    1    2  502    0  0.48807626328E+02 -0.45039620117E+02 -0.12342261841E+03  0.14015667841E+03  0.00000000000E+00 0. -1.
          1    1    1    2  503    0 -0.45370309600E+02 -0.16939740621E+02  0.56259724000E+03  0.56467784998E+03  0.00000000000E+00 0. -1.
<mgrwt>
<rscale>  0 0.55394196E+02</rscale>
<asrwt>0</asrwt>
<pdfrwt beam="1">  1        2 0.94954540E-01 0.48429534E+02</pdfrwt>
<pdfrwt beam="2">  1        1 0.37002569E-01 0.63360447E+02</pdfrwt>
<totfact> 0.79308683E+02</totfact>
</mgrwt>
</event>
<event>
 7    1  0.5277388E-004  0.6414369E+02  0.7546771E-02  0.1403568E+00
          1   -1    0    0  502    0 -0.00000000000E+00  0.00000000000E+00  0.72685473571E+03  0.72685473571E+03  0.00000000000E+00 0. -1.
          2   -1    0    0  503    0  0.00000000000E+00 -0.00000000000E+00 -0.89723602231E+02  0.89723602231E+02  0.00000000000E+00 0. -1.
         25    2    1    2    0    0  0.70929635503E+01  0.42901424464E+02  0.32226790675E+03  0.34838251214E+03  0.12499171449E+03 0.  0.
          4    1    3    3  501    0 -0.50511490063E+02  0.52595535429E+02  0.19967242347E+03  0.21257561142E+03  0.12700000000E+01 0. -1.
         -4    1    3    3    0  501  0.57604453614E+02 -0.96941109652E+01  0.12259548329E+03  0.13580690073E+03  0.12700000000E+01 0. -1.
          2    1    1    2  502    0  0.44439702322E+02 -0.57768996313E+02  0.37822389179E+03  0.38518236771E+03  0.00000000000E+00 0. -1.
          1    1    1    2  503    0 -0.51532665872E+02  0.14867571850E+02 -0.63360665066E+02  0.83013458079E+02  0.00000000000E+00 0. -1.
<mgrwt>
<rscale>  0 0.58654199E+02</rscale>
<asrwt>0</asrwt>
<pdfrwt beam="2">  1        2 0.13803632E-01 0.53634507E+02</pdfrwt>
<pdfrwt beam="1">  1        1 0.11182380E+00 0.64143688E+02</pdfrwt>
<totfact> 0.15320308E+03</totfact>
</mgrwt>
</event>
<event>
 7    1  0.5277388E-004  0.4713898E+02  0.7546771E-02  0.1519333E+00
          2   -1    0    0  503    0  0.00000000000E+00  0.00000000000E+00  0.31703602165E+04  0.31703602165E+04  0.00000000000E+00 0. -1.
         -2   -1    0    0    0  501 -0.00000000000E+00 -0.00000000000E+00 -0.38247824525E+01  0.38247824525E+01  0.00000000000E+00 0.  1.
         25    2    1    2    0    0  0.89180804554E+01  0.54346586590E+02  0.16938864025E+04  0.16993842967E+04  0.12499103874E+03 0.  0.
          4    1    3    3  502    0 -0.44810742228E+02  0.51109724043E+02  0.13073088773E+04  0.13090753683E+04  0.12700000000E+01 0.  1.
         -4    1    3    3    0  502  0.53728822684E+02  0.32368625477E+01  0.38657752521E+03  0.39030892837E+03  0.12700000000E+01 0.  1.
          1    1    1    2  503    0  0.23539697792E+02 -0.20916207678E+02  0.74159963918E+03  0.74226789634E+03  0.00000000000E+00 0. -1.
         -1    1    1    2    0  501 -0.32457778248E+02 -0.33430378913E+02  0.73104939235E+03  0.73253280586E+03  0.00000000000E+00 0.  1.
<mgrwt>
<rscale>  0 0.38527850E+02</rscale>
<asrwt>0</asrwt>
<pdfrwt beam="1">  1        2 0.48774562E+00 0.31489762E+02</pdfrwt>
<pdfrwt beam="2">  1       -2 0.58843061E-03 0.47138980E+02</pdfrwt>
<totfact> 0.80846718E+03</totfact>
</mgrwt>
</event>
<event>
 7    1  0.5277388E-004  0.6561969E+02  0.7546771E-02  0.1456965E+00
          2   -1    0    0  503    0  0.00000000000E+00  0.00000000000E+00  0.21457483184E+04  0.21457483184E+04  0.00000000000E+00 0. -1.
          1   -1    0    0  502    0 -0.00000000000E+00 -0.00000000000E+00 -0.32609944044E+03  0.32609944044E+03  0.00000000000E+00 0. -1.
         25    2    1    2    0    0  0.18221895383E+02  0.97058857705E+02 -0.28360943578E+02  0.16180790079E+03  0.12499997722E+03 0.  0.
          4    1    3    3  501    0  0.41740073872E+02  0.51871166581E+02  0.39132225140E+02  0.77238563126E+02  0.12700000000E+01 0. -1.
         -4    1    3    3    0  501 -0.23518178490E+02  0.45187691124E+02 -0.67493168719E+02  0.84569337660E+02  0.12700000000E+01 0. -1.
          2    1    1    2  502    0  0.22644375578E+01 -0.34903174751E+02 -0.22917280615E+03  0.23182651781E+03  0.00000000000E+00 0. -1.
          1    1    1    2  503    0 -0.20486332940E+02 -0.62155682953E+02  0.20771826277E+04  0.20782133402E+04  0.00000000000E+00 0. -1.
<mgrwt>
<rscale>  0 0.47907731E+02</rscale>
<asrwt>0</asrwt>
<pdfrwt beam="1">  1        2 0.33011512E+00 0.65619692E+02</pdfrwt>
<pdfrwt beam="2">  1        1 0.50169146E-01 0.34976553E+02</pdfrwt>
<totfact> 0.79301669E+01</totfact>
</mgrwt>
</event>
<event>
 7    1  0.5277388E-004  0.3252419E+02  0.7546771E-02  0.1601140E+00
         -1   -1    0    0    0  501 -0.00000000000E+00  0.00000000000E+00  0.33992791648E+02  0.33992791648E+02  0.00000000000E+00 0.  1.
          1   -1    0    0  503    0  0.00000000000E+00 -0.00000000000E+00 -0.86702874512E+03  0.86702874512E+03  0.00000000000E+00 0. -1.
         25    2    1    2    0    0 -0.52210495281E+02 -0.10514542832E+02 -0.68695960847E+03  0.70026586932E+03  0.12498917003E+03 0.  0.
          4    1    3    3  502    0 -0.89393704833E+02 -0.11721577840E+02 -0.35690522030E+03  0.36811897401E+03  0.12700000000E+01 0. -1.
         -4    1    3    3    0  502  0.37183209552E+02  0.12070350083E+01 -0.33005438817E+03  0.33214689530E+03  0.12700000000E+01 0. -1.
          2    1    1    2  503    0  0.25282206797E+02  0.14116558128E+02 -0.16508028720E+03  0.16760062177E+03  0.00000000000E+00 0. -1.
         -2    1    1    2    0  501  0.26928288483E+02 -0.36020152963E+01  0.19003942207E+02  0.33155045683E+02  0.00000000000E+00 0.  1.
<mgrwt>
<rscale>  0 0.29725770E+02</rscale>
<asrwt>0</asrwt>
<pdfrwt beam="2">  1        1 0.13338903E+00 0.32524191E+02</pdfrwt>
<pdfrwt beam="1">  1       -1 0.52296606E-02 0.27168129E+02</pdfrwt>
<totfact> 0.29877415E+03</totfact>
</mgrwt>
</event>
<event>
 7    1  0.5277388E-004  0.1566056E+03  0.7546771E-02  0.1205152E+00
          2   -1    0    0  503    0  0.00000000000E+00  0.00000000000E+00  0.85970748056E+03  0.85970748056E+03  0.00000000000E+00 0. -1.
          1   -1    0    0  502    0 -0.00000000000E+00 -0.00000000000E+00 -0.65762440184E+03  0.65762440184E+03  0.00000000000E+00 0. -1.
         25    2    1    2    0    0 -0.59965284612E+02  0.39391363734E+02 -0.10829163090E+03  0.18028174606E+03  0.12500766274E+03 0.  0.
          4    1    3    3  501    0  0.24945973133E+02  0.48479005877E+02 -0.21805041181E+02  0.58733195957E+02  0.12700000000E+01 0.  1.
         -4    1    3    3    0  501 -0.84911257745E+02 -0.90876421426E+01 -0.86486589719E+02  0.12154855011E+03  0.12700000000E+01 0.  1.
          2    1    1    2  502    0  0.57792181472E+02  0.12375888968E+03 -0.49593330893E+03  0.51439872270E+03  0.00000000000E+00 0. -1.
          1    1    1    2  503    0  0.21731031395E+01 -0.16315025341E+03  0.80630801855E+03  0.82265141363E+03  0.00000000000E+00 0. -1.
<mgrwt>
<rscale>  0 0.14625455E+03</rscale>
<asrwt>0</asrwt>
<pdfrwt beam="1">  1        2 0.13226269E+00 0.15660556E+03</pdfrwt>
<pdfrwt beam="2">  1        1 0.10117299E+00 0.13658770E+03</pdfrwt>
<totfact> 0.14353388E+02</totfact>
</mgrwt>
</event>
<event>
 7    1  0.5277388E-004  0.2401987E+03  0.7546771E-02  0.1175425E+00
          1   -1    0    0  502    0 -0.00000000000E+00  0.00000000000E+00  0.36054677263E+03  0.36054677263E+03  0.00000000000E+00 0. -1.
          2   -1    0    0  503    0  0.00000000000E+00 -0.00000000000E+00 -0.37167558256E+03  0.37167558256E+03  0.00000000000E+00 0. -1.
         25    2    1    2    0    0  0.15495868098E+03 -0.25718387355E+03  0.74373392679E+02  0.33363401868E+03  0.12499807701E+03 0.  0.
          4    1    3    3  501    0  0.35951104676E+01 -0.55481284927E+02  0.58855915487E+02  0.80973634500E+02  0.12700000000E+01 0.  1.
         -4    1    3    3    0  501  0.15136357051E+03 -0.20170258862E+03  0.15517477192E+02  0.25266038418E+03  0.12700000000E+01 0.  1.
          2    1    1    2  502    0 -0.11894917979E+03  0.33802489098E+02  0.51637329196E+02  0.13400719909E+03  0.00000000000E+00 0. -1.
          1    1    1    2  503    0 -0.36009501191E+02  0.22338138445E+03 -0.13713953180E+03  0.26458113742E+03  0.00000000000E+00 0. -1.
<mgrwt>
<rscale>  0 0.17234472E+03</rscale>
<asrwt>0</asrwt>
<pdfrwt beam="2">  1        2 0.57180859E-01 0.24019873E+03</pdfrwt>
<pdfrwt beam="1">  1        1 0.55468735E-01 0.12365887E+03</pdfrwt>
<totfact> 0.82172630E+02</totfact>
</mgrwt>
</event>
<event>
 7    1  0.5277388E-004  0.2551501E+03  0.7546771E-02  0.1134189E+00
          2   -1    0    0  503    0  0.00000000000E+00  0.00000000000E+00  0.15122267589E+04  0.15122267589E+04  0.00000000000E+00 0. -1.
          1   -1    0    0  502    0 -0.00000000000E+00 -0.00000000000E+00 -0.10972416807E+04  0.10972416807E+04  0.00000000000E+00 0. -1.
         25    2    1    2    0    0  0.24118179172E+03  0.44716238254E+02  0.66532639010E+02  0.28323074279E+03  0.12499945195E+03 0.  0.
          4    1    3    3  501    0  0.24401332922E+03  0.66087252754E+02  0.54892860529E+02  0.25869841292E+03  0.12700000000E+01 0.  1.
         -4    1    3    3    0  501 -0.28315375016E+01 -0.21371014501E+02  0.11639778482E+02  0.24532329863E+02  0.12700000000E+01 0.  1.
          2    1    1    2  502    0 -0.21995231433E+03  0.14307381408E+03 -0.96460183747E+03  0.99965286060E+03  0.00000000000E+00 0. -1.
          1    1    1    2  503    0 -0.21229477382E+02 -0.18779005233E+03  0.13130542766E+04  0.13265848363E+04  0.00000000000E+00 0. -1.
<mgrwt>
<rscale>  0 0.21959018E+03</rscale>
<asrwt>0</asrwt>
<pdfrwt beam="1">  1        2 0.23265027E+00 0.18898623E+03</pdfrwt>
<pdfrwt beam="2">  1        1 0.16880641E+00 0.25515007E+03</pdfrwt>
<totfact> 0.25964171E+01</totfact>
</mgrwt>
</event>
<event>
 7    1  0.5277388E-004  0.5951305E+02  0.7546771E-02  0.1493776E+00
          1   -1    0    0  502    0 -0.00000000000E+00  0.00000000000E+00  0.39378168556E+03  0.39378168556E+03  0.00000000000E+00 0. -1.
          2   -1    0    0  503    0  0.00000000000E+00 -0.00000000000E+00 -0.22704032270E+03  0.22704032270E+03  0.00000000000E+00 0. -1.
         25    2    1    2    0    0 -0.10472172575E+01 -0.57251727731E+02 -0.14278784522E+03  0.19822177104E+03  0.12499857911E+03 0.  0.
          4    1    3    3  501    0 -0.17185739885E+02  0.37286894739E+02 -0.50757348102E+02  0.65296121332E+02  0.12700000000E+01 0. -1.
         -4    1    3    3    0  501  0.16138522628E+02 -0.94538622469E+02 -0.92030497119E+02  0.13292564971E+03  0.12700000000E+01 0. -1.
          2    1    1    2  502    0  0.30161584554E+02  0.51462515918E+02  0.35953385125E+03  0.36444849008E+03  0.00000000000E+00 0. -1.
          1    1    1    2  503    0 -0.29114367297E+02  0.57892118128E+01 -0.50004643170E+02  0.58151747136E+02  0.00000000000E+00 0. -1.
<mgrwt>
<rscale>  0 0.42031024E+02</rscale>
<asrwt>0</asrwt>
<pdfrwt beam="2">  1        2 0.34929280E-01 0.29684362E+02</pdfrwt>
<pdfrwt beam="1">  1        1 0.60581798E-01 0.59513051E+02</pdfrwt>
<totfact> 0.12162780E+03</totfact>
</mgrwt>
</event>
<event>
 7    1  0.5277388E-004  0.7084808E+02  0.7546771E-02  0.1359158E+00
         -1   -1    0    0    0  501 -0.00000000000E+00  0.00000000000E+00  0.12393562556E+03  0.12393562556E+03  0.00000000000E+00 0.  1.
          1   -1    0    0  503    0  0.00000000000E+00 -0.00000000000E+00 -0.12385764313E+04  0.12385764313E+04  0.00000000000E+00 0. -1.
         25    2    1    2    0    0 -0.19950997706E+02 -0.19517347864E+02 -0.43444523400E+02  0.13525584594E+03  0.12501099180E+03 0.  0.
          4    1    3    3  502    0 -0.24501546826E+02  0.95026568096E+01 -0.82372269858E+02  0.86472134384E+02  0.12700000000E+01 0.  1.
         -4    1    3    3    0  502  0.45505491206E+01 -0.29020004673E+02  0.38927746459E+02  0.48783711553E+02  0.12700000000E+01 0.  1.
          2    1    1    2  503    0 -0.64013482585E+02  0.27594466613E+02 -0.11250313079E+04  0.11271888148E+04  0.00000000000E+00 0. -1.
         -2    1    1    2    0  501  0.83964480290E+02 -0.80771187499E+01  0.53835025514E+02  0.10006739614E+03  0.00000000000E+00 0.  1.
<mgrwt>
<rscale>  0 0.70275639E+02</rscale>
<asrwt>0</asrwt>
<pdfrwt beam="2">  1        1 0.19055023E+00 0.69707823E+02</pdfrwt>
<pdfrwt beam="1">  1       -1 0.19067019E-01 0.70848081E+02</pdfrwt>
<totfact> 0.25085636E+02</totfact>
</mgrwt>
</event>
<event>
 7    1  0.5277388E-004  0.7703517E+02  0.7546771E-02  0.1403606E+00
          2   -1    0    0  503    0  0.00000000000E+00  0.00000000000E+00  0.15821827508E+04  0.15821827508E+04  0.00000000000E+00 0. -1.
          1   -1    0    0  502    0 -0.00000000000E+00 -0.00000000000E+00 -0.25045800602E+03  0.25045800602E+03  0.00000000000E+00 0. -1.
         25    2    1    2    0    0 -0.26641274492E+02  0.10668307408E+03 -0.95685450886E+02  0.19202151534E+03  0.12500208415E+03 0.  0.
          4    1    3    3  501    0 -0.53487064201E+02  0.60710149906E+02  0.17982716714E+01  0.80940935375E+02  0.12700000000E+01 0. -1.
         -4    1    3    3    0  501  0.26845789709E+02  0.45972924174E+02 -0.97483722557E+02  0.11108057997E+03  0.12700000000E+01 0. -1.
          2    1    1    2  502    0  0.32980524784E+02 -0.30091969745E+02 -0.10092187712E+03  0.11035609154E+03  0.00000000000E+00 0. -1.
          1    1    1    2  503    0 -0.63392502917E+01 -0.76591104335E+02  0.15283320728E+04  0.15302631499E+04  0.00000000000E+00 0. -1.
<mgrwt>
<rscale>  0 0.58645474E+02</rscale>
<asrwt>0</asrwt>
<pdfrwt beam="1">  1        2 0.24341273E+00 0.77035167E+02</pdfrwt>
<pdfrwt beam="2">  1        1 0.38532002E-01 0.44645735E+02</pdfrwt>
<totfact> 0.20342423E+02</totfact>
</mgrwt>
</event>
<event>
 7    1  0.5277388E-004  0.1057780E+03  0.7546771E-02  0.1303088E+00
         -2   -1    0    0    0  501 -0.00000000000E+00  0.00000000000E+00  0.64370725162E+03  0.64370725162E+03  0.00000000000E+00 0.  1.
          2   -1    0    0  503    0  0.00000000000E+00 -0.00000000000E+00 -0.42258324395E+03  0.42258324395E+03  0.00000000000E+00 0. -1.
         25    2    1    2    0    0 -0.90185149707E+02  0.12769284072E+03 -0.26383132302E+03  0.33116633348E+03  0.12500140249E+03 0.  0.
          4    1    3    3  502    0 -0.11610288340E+03  0.99518553014E+02 -0.16398064791E+03  0.22422106885E+03  0.12700000000E+01 0. -1.
         -4    1    3    3    0  502  0.25917733688E+02  0.28174287709E+02 -0.99850675109E+02  0.10694526463E+03  0.12700000000E+01 0. -1.
          1    1    1    2  503    0  0.63640618377E+02 -0.56042129885E+02 -0.10797355627E+03  0.13729216104E+03  0.00000000000E+00 0. -1.
         -1    1    1    2    0  501  0.26544531330E+02 -0.71650710837E+02  0.59292888695E+03  0.59783200106E+03  0.00000000000E+00 0.  1.
<mgrwt>
<rscale>  0 0.89902530E+02</rscale>
<asrwt>0</asrwt>
<pdfrwt beam="2">  1        2 0.65012807E-01 0.10577805E+03</pdfrwt>
<pdfrwt beam="1">  1       -2 0.99031885E-01 0.76409662E+02</pdfrwt>
<totfact> 0.69618616E+01</totfact>
</mgrwt>
</event>
<event>
 7    1  0.5277388E-004  0.7724389E+02  0.7546771E-02  0.1443387E+00
          2   -1    0    0  503    0  0.00000000000E+00  0.00000000000E+00  0.87508651843E+02  0.87508651843E+02  0.00000000000E+00 0. -1.
          1   -1    0    0  502    0 -0.00000000000E+00 -0.00000000000E+00 -0.26674129220E+03  0.26674129220E+03  0.00000000000E+00 0. -1.
         25    2    1    2    0    0 -0.40217390993E+02 -0.83058184172E+02 -0.74587724290E+02  0.17234971397E+03  0.12499997917E+03 0.  0.
          4    1    3    3  501    0 -0.11848312662E+02 -0.11272019179E+03 -0.46062355688E+02  0.12235022542E+03  0.12700000000E+01 0.  1.
         -4    1    3    3    0  501 -0.28369078331E+02  0.29662007614E+02 -0.28525368602E+02  0.49999488547E+02  0.12700000000E+01 0.  1.
          2    1    1    2  502    0 -0.11712603847E+02  0.30678456246E+02 -0.10301615355E+03  0.10812345101E+03  0.00000000000E+00 0. -1.
          1    1    1    2  503    0  0.51929994840E+02  0.52379727926E+02 -0.16287625178E+01  0.73776779064E+02  0.00000000000E+00 0. -1.
<mgrwt>
<rscale>  0 0.50364240E+02</rscale>
<asrwt>0</asrwt>
<pdfrwt beam="1">  1        2 0.13462869E-01 0.77243892E+02</pdfrwt>
<pdfrwt beam="2">  1        1 0.41037122E-01 0.32838282E+02</pdfrwt>
<totfact> 0.56604910E+03</totfact>
</mgrwt>
</event>
<event>
 7    1  0.5277388E-004  0.3924715E+02  0.7546771E-02  0.1620973E+00
          1   -1    0    0  503    0  0.00000000000E+00  0.00000000000E+00  0.29308310675E+03  0.29308310675E+03  0.00000000000E+00 0. -1.
         -1   -1    0    0    0  501 -0.00000000000E+00 -0.00000000000E+00 -0.16603457179E+03  0.16603457179E+03  0.00000000000E+00 0.  1.
         25    2    1    2    0    0 -0.55731936497E+02  0.59471057424E+01  0.13849896405E+02  0.13768522493E+03  0.12499593882E+03 0.  0.
          4    1    3    3  502    0 -0.58089242317E+02 -0.52506801624E+02  0.46477143754E+01  0.78450866398E+02  0.12700000000E+01 0. -1.
         -4    1    3    3    0  502  0.23573058192E+01  0.58453907366E+02  0.92021820293E+01  0.59234358537E+02  0.12700000000E+01 0. -1.
          2    1    1    2  503    0  0.19109533114E+02  0.59532587500E+01  0.21327040270E+03  0.21420756339E+03  0.00000000000E+00 0. -1.
         -2    1    1    2    0  501  0.36622403383E+02 -0.11900364492E+02 -0.10007176414E+03  0.10722489022E+03  0.00000000000E+00 0.  1.
<mgrwt>
<rscale>  0 0.28027606E+02</rscale>
<asrwt>0</asrwt>
<pdfrwt beam="1">  1        1 0.45089709E-01 0.20015383E+02</pdfrwt>
<pdfrwt beam="2">  1       -1 0.25543780E-01 0.39247149E+02</pdfrwt>
<totfact> 0.11427577E+03</totfact>
</mgrwt>
</event>
<event>
 7    1  0.5277388E-004  0.6939246E+02  0.7546771E-02  0.1380725E+00
          1   -1    0    0  502    0 -0.00000000000E+00  0.00000000000E+00  0.97125826477E+03  0.97125826477E+03  0.00000000000E+00 0. -1.
          2   -1    0    0  503    0  0.00000000000E+00 -0.00000000000E+00 -0.12160039296E+04  0.12160039296E+04  0.00000000000E+00 0. -1.
         25    2    1    2    0    0 -0.68860963107E+02 -0.73151411383E+02  0.50626052581E+03  0.53105381135E+03  0.12500187729E+03 0.  0.
          4    1    3    3  501    0  0.94074562111E+01 -0.71053453305E+02  0.14946680803E+03  0.16576800976E+03  0.12700000000E+01 0. -1.
         -4    1    3    3    0  501 -0.78268419318E+02 -0.20979580782E+01  0.35679371778E+03  0.36528580158E+03  0.12700000000E+01 0. -1.
          2    1    1    2  502    0  0.64617344333E+02  0.13770426577E+02  0.44944845923E+03  0.45427848655E+03  0.00000000000E+00 0. -1.
          1    1    1    2  503    0  0.42436187740E+01  0.59380984806E+02 -0.12004546499E+04  0.12019298965E+04  0.00000000000E+00 0. -1.
<mgrwt>
<rscale>  0 0.64273646E+02</rscale>
<asrwt>0</asrwt>
<pdfrwt beam="2">  1        2 0.18707753E+00 0.59532425E+02</pdfrwt>
<pdfrwt beam="1">  1        1 0.14942435E+00 0.69392462E+02</pdfrwt>
<totfact> 0.54203310E+01</totfact>
</mgrwt>
</event>
<event>
 7    1  0.5277388E-004  0.5026826E+02  0.7546771E-02  0.1541158E+00
         -2   -1    0    0    0  501 -0.00000000000E+00  0.00000000000E+00  0.57517342181E+02  0.57517342181E+02  0.00000000000E+00 0.  1.
          2   -1    0    0  503    0  0.00000000000E+00 -0.00000000000E+00 -0.20997542478E+04  0.20997542478E+04  0.00000000000E+00 0. -1.
         25    2    1    2    0    0 -0.18798608111E+02 -0.58976517445E+02 -0.21943042370E+03  0.26001096583E+03  0.12499749690E+03 0.  0.
          4    1    3    3  502    0 -0.42881025473E+02 -0.72155673454E+02 -0.73685931541E+02  0.11169804369E+03  0.12700000000E+01 0. -1.
         -4    1    3    3    0  502  0.24082417363E+02  0.13179156009E+02 -0.14574449216E+03  0.14831292214E+03  0.12700000000E+01 0. -1.
          3    1    1    2  503    0 -0.13919026088E+02  0.21450637168E+02 -0.18432597454E+04  0.18434371045E+04  0.00000000000E+00 0. -1.
         -1    1    1    2    0  501  0.32717634199E+02  0.37525880277E+02  0.20453263519E+02  0.53823519643E+02  0.00000000000E+00 0.  1.
<mgrwt>
<rscale>  0 0.35852514E+02</rscale>
<asrwt>0</asrwt>
<pdfrwt beam="2">  1        2 0.32303909E+00 0.25570865E+02</pdfrwt>
<pdfrwt beam="1">  1       -2 0.88488226E-02 0.50268256E+02</pdfrwt>
<totfact> 0.62404183E+02</totfact>
</mgrwt>
</event>
<event>
 7    1  0.5277388E-004  0.7537261E+02  0.7546771E-02  0.1413942E+00
          1   -1    0    0  502    0 -0.00000000000E+00  0.00000000000E+00  0.51760484307E+03  0.51760484307E+03  0.00000000000E+00 0. -1.
          2   -1    0    0  503    0  0.00000000000E+00 -0.00000000000E+00 -0.25423658200E+03  0.25423658200E+03  0.00000000000E+00 0. -1.
         25    2    1    2    0    0  0.70111754967E+02 -0.79561778130E+02  0.26544647260E+03  0.31198378430E+03  0.12500526840E+03 0.  0.
          4    1    3    3  501    0  0.10221620187E+03 -0.36137170795E+02  0.19613426906E+03  0.22410781209E+03  0.12700000000E+01 0.  1.
         -4    1    3    3    0  501 -0.32104446904E+02 -0.43424607335E+02  0.69312203539E+02  0.87875972215E+02  0.12700000000E+01 0.  1.
          2    1    1    2  502    0 -0.56299461839E+02  0.39803979185E+02  0.22169046049E+03  0.23216512751E+03  0.00000000000E+00 0. -1.
          1    1    1    2  503    0 -0.13812293129E+02  0.39757798945E+02 -0.22376867202E+03  0.22769251326E+03  0.00000000000E+00 0. -1.
<mgrwt>
<rscale>  0 0.56323512E+02</rscale>
<asrwt>0</asrwt>
<pdfrwt beam="2">  1        2 0.39113320E-01 0.42088740E+02</pdfrwt>
<pdfrwt beam="1">  1        1 0.79631514E-01 0.75372605E+02</pdfrwt>
<totfact> 0.77422028E+02</totfact>
</mgrwt>
</event>
<event>
 7    1  0.5277388E-004  0.5788632E+02  0.7546771E-02  0.1422774E+00
         -2   -1    0    0    0  501 -0.00000000000E+00  0.00000000000E+00  0.17032367452E+03  0.17032367452E+03  0.00000000000E+00 0.  1.
          2   -1    0    0  503    0  0.00000000000E+00 -0.00000000000E+00 -0.15623619523E+04  0.15623619523E+04  0.00000000000E+00 0. -1.
         25    2    1    2    0    0 -0.14182364952E+02 -0.48652451499E+02 -0.17794232227E+03  0.22324634175E+03  0.12492901399E+03 0.  0.
          4    1    3    3  502    0  0.93459627497E+01 -0.31088803681E+02  0.92356618631E+01  0.33775302872E+02  0.12700000000E+01 0. -1.
         -4    1    3    3    0  502 -0.23528327701E+02 -0.17563647818E+02 -0.18717798414E+03  0.18947103888E+03  0.12700000000E+01 0. -1.
          1    1    1    2  503    0  0.55651155068E+02  0.18630432372E+02 -0.13566769294E+04  0.13579456671E+04  0.00000000000E+00 0. -1.
         -1    1    1    2    0  501 -0.41468790117E+02  0.30022019127E+02  0.14258097385E+03  0.15149361799E+03  0.00000000000E+00 0.  1.
<mgrwt>
<rscale>  0 0.54438228E+02</rscale>
<asrwt>0</asrwt>
<pdfrwt beam="2">  1        2 0.24036337E+00 0.57886317E+02</pdfrwt>
<pdfrwt beam="1">  1       -2 0.26203643E-01 0.51195529E+02</pdfrwt>
<totfact> 0.18153506E+02</totfact>
</mgrwt>
</event>
<event>
 7    1  0.5277388E-004  0.1077984E+03  0.7546771E-02  0.1352988E+00
          1   -1    0    0  502    0 -0.00000000000E+00  0.00000000000E+00  0.10491005847E+04  0.10491005847E+04  0.00000000000E+00 0. -1.
          2   -1    0    0  503    0  0.00000000000E+00 -0.00000000000E+00 -0.16291697727E+03  0.16291697727E+03  0.00000000000E+00 0. -1.
         25    2    1    2    0    0 -0.77853710842E+02  0.11246672758E+03  0.28044201989E+03  0.33612927944E+03  0.12500080349E+03 0.  0.
          4    1    3    3  501    0 -0.16494602899E+02  0.86753190582E+02  0.62339202392E+02  0.10810169775E+03  0.12700000000E+01 0. -1.
         -4    1    3    3    0  501 -0.61359107943E+02  0.25713537001E+02  0.21810281750E+03  0.22802758169E+03  0.12700000000E+01 0. -1.
          2    1    1    2  502    0 -0.64576728279E+01 -0.47833139978E+02  0.71899141337E+03  0.72060971637E+03  0.00000000000E+00 0. -1.
          1    1    1    2  503    0  0.84311383670E+02 -0.64633587604E+02 -0.11324982582E+03  0.15527856617E+03  0.00000000000E+00 0. -1.
<mgrwt>
<rscale>  0 0.72132612E+02</rscale>
<asrwt>0</asrwt>
<pdfrwt beam="2">  1        2 0.25064151E-01 0.10779840E+03</pdfrwt>
<pdfrwt beam="1">  1        1 0.16140009E+00 0.48267078E+02</pdfrwt>
<totfact> 0.47147420E+02</totfact>
</mgrwt>
</event>
<event>
 7    1  0.5277388E-004  0.1362167E+03  0.7546771E-02  0.1281480E+00
          2   -1    0    0  503    0  0.00000000000E+00  0.00000000000E+00  0.15528729205E+03  0.15528729205E+03  0.00000000000E+00 0. -1.
          1   -1    0    0  502    0 -0.00000000000E+00 -0.00000000000E+00 -0.12191431207E+04  0.12191431207E+04  0.00000000000E+00 0. -1.
         25    2    1    2    0    0 -0.94924655234E+02 -0.25700614632E+02 -0.30167986103E+02  0.16188986034E+03  0.12500803067E+03 0.  0.
          4    1    3    3  501    0 -0.90911732795E+01 -0.13637382069E+02  0.44524977601E+02  0.47462765951E+02  0.12700000000E+01 0. -1.
         -4    1    3    3    0  501 -0.85833481954E+02 -0.12063232563E+02 -0.74692963705E+02  0.11442709439E+03  0.12700000000E+01 0. -1.
          2    1    1    2  502    0 -0.72397294687E+02  0.53054892887E+01 -0.10412819716E+04  0.10438092071E+04  0.00000000000E+00 0. -1.
          3    1    1    2  503    0  0.16732194992E+03  0.20395125343E+02  0.75941291165E+01  0.16873134522E+03  0.00000000000E+00 0. -1.
<mgrwt>
<rscale>  0 0.99439248E+02</rscale>
<asrwt>0</asrwt>
<pdfrwt beam="1">  1        2 0.23890354E-01 0.13621668E+03</pdfrwt>
<pdfrwt beam="2">  1        1 0.18756047E+00 0.72591435E+02</pdfrwt>
<totfact> 0.37244047E+02</totfact>
</mgrwt>
</event>
<event>
 7    1  0.5277388E-004  0.6877927E+02  0.7546771E-02  0.1483021E+00
          2   -1    0    0  503    0  0.00000000000E+00  0.00000000000E+00  0.20559183591E+04  0.20559183591E+04  0.00000000000E+00 0. -1.
         -2   -1    0    0    0  501 -0.00000000000E+00 -0.00000000000E+00 -0.17388000541E+02  0.17388000541E+02  0.00000000000E+00 0.  1.
         25    2    1    2    0    0  0.14241870510E+02 -0.41403064854E+02  0.12403611931E+04  0.12474114307E+04  0.12498937365E+03 0.  0.
          4    1    3    3  502    0 -0.55655009704E+02 -0.14726049011E+02  0.55185480418E+03  0.55485103805E+03  0.12700000000E+01 0. -1.
         -4    1    3    3    0  502  0.69896880214E+02 -0.26677015843E+02  0.68850638891E+03  0.69256039268E+03  0.12700000000E+01 0. -1.
          1    1    1    2  503    0  0.52007240021E+00 -0.27683156026E+02  0.72000126858E+03  0.72053345124E+03  0.00000000000E+00 0. -1.
         -1    1    1    2    0  501 -0.14761942910E+02  0.69086220879E+02  0.78167896900E+02  0.10536147768E+03  0.00000000000E+00 0.  1.
<mgrwt>
<rscale>  0 0.43639011E+02</rscale>
<asrwt>0</asrwt>
<pdfrwt beam="1">  1        2 0.31629494E+00 0.27688041E+02</pdfrwt>
<pdfrwt beam="2">  1       -2 0.26750786E-02 0.68779271E+02</pdfrwt>
<totfact> 0.38828222E+03</totfact>
</mgrwt>
</event>
<event>
 7    1  0.5277388E-004  0.7965385E+02  0.7546771E-02  0.1358435E+00
          2   -1    0    0  503    0  0.00000000000E+00  0.00000000000E+00  0.47910284145E+03  0.47910284145E+03  0.00000000000E+00 0. -1.
          1   -1    0    0  502    0 -0.00000000000E+00 -0.00000000000E+00 -0.16927774608E+04  0.16927774608E+04  0.00000000000E+00 0. -1.
         25    2    1    2    0    0 -0.65223737807E+02  0.31786944663E+01 -0.14443578228E+03  0.20186356772E+03  0.12499185853E+03 0.  0.
          4    1    3    3  501    0 -0.89785527025E+02 -0.28430503302E+02 -0.70050262056E+02  0.11738137201E+03  0.12700000000E+01 0. -1.
         -4    1    3    3    0  501  0.24561789217E+02  0.31609197769E+02 -0.74385520226E+02  0.84482195712E+02  0.12700000000E+01 0. -1.
          2    1    1    2  502    0  0.50076584392E+02 -0.63691994244E+02 -0.15163811573E+04  0.15185440884E+04  0.00000000000E+00 0. -1.
          1    1    1    2  503    0  0.15147153415E+02  0.60513299778E+02  0.44714232016E+03  0.45147264611E+03  0.00000000000E+00 0. -1.
<mgrwt>
<rscale>  0 0.70489907E+02</rscale>
<asrwt>0</asrwt>
<pdfrwt beam="1">  1        2 0.73708129E-01 0.62380251E+02</pdfrwt>
<pdfrwt beam="2">  1        1 0.26042730E+00 0.79653848E+02</pdfrwt>
<totfact> 0.55322277E+01</totfact>
</mgrwt>
</event>
<event>
 7    1  0.5277388E-004  0.5092891E+02  0.7546771E-02  0.1452015E+00
         -1   -1    0    0    0  501 -0.00000000000E+00  0.00000000000E+00  0.26790254897E+03  0.26790254897E+03  0.00000000000E+00 0.  1.
          1   -1    0    0  503    0  0.00000000000E+00 -0.00000000000E+00 -0.70720696053E+02  0.70720696053E+02  0.00000000000E+00 0. -1.
         25    2    1    2    0    0 -0.30379444376E+02 -0.28046231823E+02  0.67944951480E+02  0.14815869495E+03  0.12499992279E+03 0.  0.
          4    1    3    3  502    0  0.18874954585E+02 -0.61458701025E+02  0.60271678074E+02  0.88134691922E+02  0.12700000000E+01 0. -1.
         -4    1    3    3    0  502 -0.49254398961E+02  0.33412469202E+02  0.76732734056E+01  0.60024003032E+02  0.12700000000E+01 0. -1.
          2    1    1    2  503    0  0.38980951318E+02 -0.25769437586E+02 -0.36153997150E+01  0.46868428544E+02  0.00000000000E+00 0. -1.
         -2    1    1    2    0  501 -0.86015069416E+01  0.53815669409E+02  0.13285230116E+03  0.14359612153E+03  0.00000000000E+00 0.  1.
<mgrwt>
<rscale>  0 0.48783659E+02</rscale>
<asrwt>0</asrwt>
<pdfrwt beam="2">  1        1 0.10880107E-01 0.46728776E+02</pdfrwt>
<pdfrwt beam="1">  1       -1 0.41215776E-01 0.50928906E+02</pdfrwt>
<totfact> 0.30028649E+03</totfact>
</mgrwt>
</event>
<event>
 7    1  0.5277388E-004  0.1100238E+03  0.7546771E-02  0.1379434E+00
          1   -1    0    0  502    0 -0.00000000000E+00  0.00000000000E+00  0.11955001994E+03  0.11955001994E+03  0.00000000000E+00 0. -1.
          2   -1    0    0  503    0  0.00000000000E+00 -0.00000000000E+00 -0.18218360875E+04  0.18218360875E+04  0.00000000000E+00 0. -1.
         25    2    1    2    0    0  0.10038538004E+02 -0.86426485511E+02 -0.87309466611E+03  0.88627827516E+03  0.12499830153E+03 0.  0.
          4    1    3    3  501    0  0.57204081327E+02 -0.70143927178E+01 -0.26411223156E+03  0.27033015441E+03  0.12700000000E+01 0. -1.
         -4    1    3    3    0  501 -0.47165543323E+02 -0.79412092793E+02 -0.60898243455E+03  0.61594812074E+03  0.12700000000E+01 0. -1.
          2    1    1    2  502    0 -0.26763092356E+01 -0.37850267925E+02  0.10552364880E+03  0.11213851198E+03  0.00000000000E+00 0. -1.
          1    1    1    2  503    0 -0.73622287683E+01  0.12427675344E+03 -0.93471505022E+03  0.94296932027E+03  0.00000000000E+00 0. -1.
<mgrwt>
<rscale>  0 0.64612892E+02</rscale>
<asrwt>0</asrwt>
<pdfrwt beam="2">  1        2 0.28028246E+00 0.11002376E+03</pdfrwt>
<pdfrwt beam="1">  1        1 0.18392312E-01 0.37944768E+02</pdfrwt>
<totfact> 0.36065181E+02</totfact>
</mgrwt>
</event>
<event>
 7    1  0.5277388E-004  0.1575625E+03  0.7546771E-02  0.1267114E+00
          2   -1    0    0  503    0  0.00000000000E+00  0.00000000000E+00  0.20216203059E+04  0.20216203059E+04  0.00000000000E+00 0. -1.
          1   -1    0    0  502    0 -0.00000000000E+00 -0.00000000000E+00 -0.72513658851E+03  0.72513658851E+03  0.00000000000E+00 0. -1.
         25    2    1    2    0    0  0.12522914008E+03 -0.31425152193E+01  0.51033586975E+03  0.54014848475E+03  0.12500189080E+03 0.  0.
          4    1    3    3  501    0  0.60114660434E+02 -0.62763949697E+02  0.29112965773E+03  0.30382754367E+03  0.12700000000E+01 0. -1.
         -4    1    3    3    0  501  0.65114479648E+02  0.59621434478E+02  0.21920621202E+03  0.23632094109E+03  0.12700000000E+01 0. -1.
          2    1    1    2  502    0  0.34337079365E+02  0.63330864422E+02 -0.70352581857E+03  0.70720464563E+03  0.00000000000E+00 0. -1.
          1    1    1    2  503    0 -0.15956621945E+03 -0.60188349203E+02  0.14896736662E+04  0.14994037640E+04  0.00000000000E+00 0. -1.
<mgrwt>
<rscale>  0 0.10654052E+03</rscale>
<asrwt>0</asrwt>
<pdfrwt beam="1">  1        2 0.31101851E+00 0.15756253E+03</pdfrwt>
<pdfrwt beam="2">  1        1 0.11155948E+00 0.72040498E+02</pdfrwt>
<totfact> 0.29830310E+01</totfact>
</mgrwt>
</event>
<event>
 7    1  0.5277388E-004  0.8296138E+02  0.7546771E-02  0.1476128E+00
          2   -1    0    0  503    0  0.00000000000E+00  0.00000000000E+00  0.82887902051E+03  0.82887902051E+03  0.00000000000E+00 0. -1.
          1   -1    0    0  502    0 -0.00000000000E+00 -0.00000000000E+00 -0.94503678929E+02  0.94503678929E+02  0.00000000000E+00 0. -1.
         25    2    1    2    0    0 -0.43365622562E+02 -0.74368271569E+02  0.44756709563E+03  0.47260240067E+03  0.12500202797E+03 0.  0.
          4    1    3    3  501    0 -0.56112820484E+02 -0.31976143043E+02  0.40841418728E+03  0.41349109255E+03  0.12700000000E+01 0.  1.
         -4    1    3    3    0  501  0.12747197922E+02 -0.42392128526E+02  0.39152908344E+02  0.59111308120E+02  0.12700000000E+01 0.  1.
          2    1    1    2  502    0 -0.16645207696E+02  0.17429503911E+02 -0.75445305259E+02  0.79201291855E+02  0.00000000000E+00 0. -1.
          1    1    1    2  503    0  0.60010830258E+02  0.56938767658E+02  0.36225355121E+03  0.37157900691E+03  0.00000000000E+00 0. -1.
<mgrwt>
<rscale>  0 0.44715087E+02</rscale>
<asrwt>0</asrwt>
<pdfrwt beam="1">  1        2 0.12751984E+00 0.82961379E+02</pdfrwt>
<pdfrwt beam="2">  1        1 0.14539028E-01 0.24100841E+02</pdfrwt>
<totfact> 0.16468809E+03</totfact>
</mgrwt>
</event>
<event>
 7    1  0.5277388E-004  0.7484910E+02  0.7546771E-02  0.1417537E+00
          1   -1    0    0  503    0  0.00000000000E+00  0.00000000000E+00  0.46408066714E+03  0.46408066714E+03  0.00000000000E+00 0. -1.
         -1   -1    0    0    0  501 -0.00000000000E+00 -0.00000000000E+00 -0.31747095211E+03  0.31747095211E+03  0.00000000000E+00 0.  1.
         25    2    1    2    0    0  0.24586435971E+02  0.60303438310E+02 -0.10446336330E+03  0.17543636234E+03  0.12499730179E+03 0.  0.
          4    1    3    3  502    0  0.34676314475E+02  0.89748895938E+02 -0.10733552207E+03  0.14415213598E+03  0.12700000000E+01 0.  1.
         -4    1    3    3    0  502 -0.10089878504E+02 -0.29445457628E+02  0.28721587773E+01  0.31284226364E+02  0.12700000000E+01 0.  1.
          2    1    1    2  503    0 -0.61938532874E+02 -0.42870290838E+02  0.42282689755E+03  0.42948437571E+03  0.00000000000E+00 0. -1.
         -2    1    1    2    0  501  0.37352096902E+02 -0.17433147472E+02 -0.17175381922E+03  0.17663088119E+03  0.00000000000E+00 0.  1.
<mgrwt>
<rscale>  0 0.55545341E+02</rscale>
<asrwt>0</asrwt>
<pdfrwt beam="1">  1        1 0.71397026E-01 0.74849103E+02</pdfrwt>
<pdfrwt beam="2">  1       -1 0.48841685E-01 0.41220065E+02</pdfrwt>
<totfact> 0.22372484E+02</totfact>
</mgrwt>
</event>
<event>
 7    1  0.5277388E-004  0.2023375E+03  0.7546771E-02  0.1166181E+00
          1   -1    0    0  502    0 -0.00000000000E+00  0.00000000000E+00  0.14276838648E+03  0.14276838648E+03  0.00000000000E+00 0. -1.
          2   -1    0    0  503    0  0.00000000000E+00 -0.00000000000E+00 -0.13299437638E+04  0.13299437638E+04  0.00000000000E+00 0. -1.
         25    2    1    2    0    0  0.19723081718E+03 -0.55217490921E+02 -0.27542465006E+03  0.36528234677E+03  0.12499395366E+03 0.  0.
          4    1    3    3  501    0  0.12065620383E+03  0.99570055413E+01 -0.78871356740E+02  0.14449693871E+03  0.12700000000E+01 0.  1.
         -4    1    3    3    0  501  0.76574613353E+02 -0.65174496462E+02 -0.19655329332E+03  0.22078540807E+03  0.12700000000E+01 0.  1.
          2    1    1    2  502    0 -0.19167831194E+03 -0.10783144896E+03 -0.43758357276E+02  0.22423869087E+03  0.00000000000E+00 0. -1.
          1    1    1    2  503    0 -0.55525052395E+01  0.16304893988E+03 -0.86799236993E+03  0.88319111260E+03  0.00000000000E+00 0. -1.
<mgrwt>
<rscale>  0 0.18168664E+03</rscale>
<asrwt>0</asrwt>
<pdfrwt beam="2">  1        2 0.20460674E+00 0.16314346E+03</pdfrwt>
<pdfrwt beam="1">  1        1 0.21964367E-01 0.20233747E+03</pdfrwt>
<totfact> 0.53406332E+02</totfact>
</mgrwt>
</event>
<event>
 7    1  0.5277388E-004  0.1154493E+03  0.7546771E-02  0.1348966E+00
          1   -1    0    0  502    0 -0.00000000000E+00  0.00000000000E+00  0.56452153366E+03  0.56452153366E+03  0.00000000000E+00 0. -1.
          2   -1    0    0  503    0  0.00000000000E+00 -0.00000000000E+00 -0.40747609035E+03  0.40747609035E+03  0.00000000000E+00 0. -1.
         25    2    1    2    0    0  0.40258353289E+02 -0.94455240104E+02 -0.78682456550E+02  0.17988119344E+03  0.12499514947E+03 0.  0.
          4    1    3    3  501    0  0.21446925847E+02 -0.12262794345E+03 -0.45798307590E+02  0.13265248215E+03  0.12700000000E+01 0. -1.
         -4    1    3    3    0  501  0.18811427442E+02  0.28172703349E+02 -0.32884148961E+02  0.47228711281E+02  0.12700000000E+01 0. -1.
          2    1    1    2  502    0 -0.38765149979E+02 -0.25931988499E+02  0.49975910589E+03  0.50193064142E+03  0.00000000000E+00 0. -1.
          1    1    1    2  503    0 -0.14932033103E+01  0.12038722860E+03 -0.26403120603E+03  0.29018578915E+03  0.00000000000E+00 0. -1.
<mgrwt>
<rscale>  0 0.73378829E+02</rscale>
<asrwt>0</asrwt>
<pdfrwt beam="2">  1        2 0.62688629E-01 0.11544934E+03</pdfrwt>
<pdfrwt beam="1">  1        1 0.86849467E-01 0.46639092E+02</pdfrwt>
<totfact> 0.43307084E+02</totfact>
</mgrwt>
</event>
<event>
 7    1  0.5277388E-004  0.1387486E+03  0.7546771E-02  0.1244654E+00
          2   -1    0    0  503    0  0.00000000000E+00  0.00000000000E+00  0.35309348137E+03  0.35309348137E+03  0.00000000000E+00 0. -1.
          1   -1    0    0  502    0 -0.00000000000E+00 -0.00000000000E+00 -0.18739909988E+04  0.18739909988E+04  0.00000000000E+00 0. -1.
         25    2    1    2    0    0  0.13844682099E+03 -0.11525625199E+03 -0.48940384219E+03  0.53627612347E+03  0.12499773594E+03 0.  0.
          4    1    3    3  501    0  0.31713487261E+01 -0.32428589236E+02 -0.14694757223E+02  0.35766180149E+02  0.12700000000E+01 0.  1.
         -4    1    3    3    0  501  0.13527547226E+03 -0.82827662758E+02 -0.47470908497E+03  0.50050994332E+03  0.12700000000E+01 0.  1.
          2    1    1    2  502    0 -0.37546563723E+02  0.13129608791E+03 -0.13497061446E+04  0.13565968760E+04  0.00000000000E+00 0. -1.
          1    1    1    2  503    0 -0.10090025726E+03 -0.16039835916E+02  0.31821246931E+03  0.33421148077E+03  0.00000000000E+00 0. -1.
<mgrwt>
<rscale>  0 0.11906113E+03</rscale>
<asrwt>0</asrwt>
<pdfrwt beam="1">  1        2 0.54322074E-01 0.10216721E+03</pdfrwt>
<pdfrwt beam="2">  1        1 0.28830631E+00 0.13874855E+03</pdfrwt>
<totfact> 0.54984163E+01</totfact>
</mgrwt>
</event>
<event>
 7    1  0.5277388E-004  0.1034397E+03  0.7546771E-02  0.1453697E+00
         -2   -1    0    0    0  501 -0.00000000000E+00  0.00000000000E+00  0.68233999805E+02  0.68233999805E+02  0.00000000000E+00 0.  1.
          2   -1    0    0  503    0  0.00000000000E+00 -0.00000000000E+00 -0.25031247132E+04  0.25031247132E+04  0.00000000000E+00 0. -1.
         25    2    1    2    0    0 -0.63704522104E+02  0.73856195926E+02 -0.14849459644E+03  0.21722966805E+03  0.12500031877E+03 0.  0.
          4    1    3    3  502    0 -0.44024730505E+02 -0.50511253378E+01 -0.12491196303E+03  0.13254547209E+03  0.12700000000E+01 0. -1.
         -4    1    3    3    0  502 -0.19679791599E+02  0.78907321264E+02 -0.23582633414E+02  0.84684195958E+02  0.12700000000E+01 0. -1.
          1    1    1    2  503    0  0.49165075321E+02 -0.91321078773E+02 -0.23151541204E+04  0.23174760722E+04  0.00000000000E+00 0. -1.
         -1    1    1    2    0  501  0.14539446783E+02  0.17464882847E+02  0.28758003475E+02  0.36652972723E+02  0.00000000000E+00 0.  1.
<mgrwt>
<rscale>  0 0.48483500E+02</rscale>
<asrwt>0</asrwt>
<pdfrwt beam="2">  1        2 0.38509611E+00 0.10343973E+03</pdfrwt>
<pdfrwt beam="1">  1       -2 0.10497538E-01 0.22724824E+02</pdfrwt>
<totfact> 0.23275506E+02</totfact>
</mgrwt>
</event>
<event>
 7    1  0.5277388E-004  0.2286923E+03  0.7546771E-02  0.1262345E+00
          2   -1    0    0  503    0  0.00000000000E+00  0.00000000000E+00  0.29511590374E+04  0.29511590374E+04  0.00000000000E+00 0. -1.
          1   -1    0    0  502    0 -0.00000000000E+00 -0.00000000000E+00 -0.55754997204E+03  0.55754997204E+03  0.00000000000E+00 0. -1.
         25    2    1    2    0    0 -0.87236686125E+02  0.16331319114E+03  0.31882207957E+03  0.38930003257E+03  0.12500223653E+03 0.  0.
          4    1    3    3  501    0 -0.36031886739E+02 -0.59713751793E+00  0.12616513804E+03  0.13121702782E+03  0.12700000000E+01 0.  1.
         -4    1    3    3    0  501 -0.51204799386E+02  0.16391032866E+03  0.19265694153E+03  0.25808300475E+03  0.12700000000E+01 0.  1.
          2    1    1    2  502    0  0.13099185061E+03 -0.19140461057E+03 -0.49628681494E+03  0.54780944913E+03  0.00000000000E+00 0. -1.
          1    1    1    2  503    0 -0.43755164480E+02  0.28091419427E+02  0.25710738007E+04  0.25715995277E+04  0.00000000000E+00 0. -1.
<mgrwt>
<rscale>  0 0.10904684E+03</rscale>
<asrwt>0</asrwt>
<pdfrwt beam="1">  1        2 0.45402446E+00 0.51996560E+02</pdfrwt>
<pdfrwt beam="2">  1        1 0.85776920E-01 0.22869233E+03</pdfrwt>
<totfact> 0.15508868E+01</totfact>
</mgrwt>
</event>
<event>
 7    1  0.5277388E-004  0.5818773E+02  0.7546771E-02  0.1501855E+00
          1   -1    0    0  502    0 -0.00000000000E+00  0.00000000000E+00  0.19892269997E+04  0.19892269997E+04  0.00000000000E+00 0. -1.
          2   -1    0    0  503    0  0.00000000000E+00 -0.00000000000E+00 -0.10125126641E+02  0.10125126641E+02  0.00000000000E+00 0. -1.
         25    2    1    2    0    0 -0.24911417081E+02 -0.31463156640E+02  0.85422153230E+03  0.86425161611E+03  0.12500368301E+03 0.  0.
          4    1    3    3  501    0  0.20775867064E+02  0.34759704153E+02  0.14746409105E+03  0.15292856088E+03  0.12700000000E+01 0. -1.
         -4    1    3    3    0  501 -0.45687284146E+02 -0.66222860793E+02  0.70675744126E+03  0.71132305523E+03  0.12700000000E+01 0. -1.
          2    1    1    2  502    0  0.53619334153E+02  0.30776291038E+02  0.10803278453E+04  0.10820954054E+04  0.00000000000E+00 0. -1.
          1    1    1    2  503    0 -0.28707917072E+02  0.68686560211E+00  0.44552495531E+02  0.53005104896E+02  0.00000000000E+00 0. -1.
<mgrwt>
<rscale>  0 0.40876970E+02</rscale>
<asrwt>0</asrwt>
<pdfrwt beam="2">  1        2 0.15577134E-02 0.28716133E+02</pdfrwt>
<pdfrwt beam="1">  1        1 0.30603461E+00 0.58187732E+02</pdfrwt>
<totfact> 0.31416408E+03</totfact>
</mgrwt>
</event>
<event>
 7    1  0.5277388E-004  0.1669410E+03  0.7546771E-02  0.1266812E+00
          1   -1    0    0  502    0 -0.00000000000E+00  0.00000000000E+00  0.92252880218E+03  0.92252880218E+03  0.00000000000E+00 0. -1.
          2   -1    0    0  503    0  0.00000000000E+00 -0.00000000000E+00 -0.32476534645E+04  0.32476534645E+04  0.00000000000E+00 0. -1.
         25    2    1    2    0    0 -0.11449332858E+03 -0.38493434570E+02 -0.25868754632E+02  0.17573843304E+03  0.12499735032E+03 0.  0.
          4    1    3    3  501    0 -0.11937225794E+03 -0.62652079268E+02 -0.47477415204E+02  0.14293612859E+03  0.12700000000E+01 0.  1.
         -4    1    3    3    0  501  0.48789293590E+01  0.24158644698E+02  0.21608660572E+02  0.32802304447E+02  0.12700000000E+01 0.  1.
          2    1    1    2  502    0  0.13714501333E+03  0.10281459484E+03  0.83855412487E+03  0.85589287644E+03  0.00000000000E+00 0. -1.
          1    1    1    2  503    0 -0.22651684754E+02 -0.64321160267E+02 -0.31378100326E+04  0.31385509572E+04  0.00000000000E+00 0. -1.
<mgrwt>
<rscale>  0 0.10669696E+03</rscale>
<asrwt>0</asrwt>
<pdfrwt beam="2">  1        2 0.49963899E+00 0.68193185E+02</pdfrwt>
<pdfrwt beam="1">  1        1 0.14192751E+00 0.16694105E+03</pdfrwt>
<totfact> 0.48320067E+00</totfact>
</mgrwt>
</event>
<event>
 7    1  0.5277388E-004  0.2749495E+02  0.7546771E-02  0.1672844E+00
         -2   -1    0    0    0  501 -0.00000000000E+00  0.00000000000E+00  0.50029178057E+02  0.50029178057E+02  0.00000000000E+00 0.  1.
          2   -1    0    0  503    0  0.00000000000E+00 -0.00000000000E+00 -0.52564643878E+03  0.52564643878E+03  0.00000000000E+00 0. -1.
         25    2    1    2    0    0 -0.31787754791E+02  0.14305647957E+02 -0.18418148997E+03  0.22530628799E+03  0.12499995696E+03 0.  0.
          4    1    3    3  502    0 -0.75605692856E+02  0.52002879310E+01 -0.72086826959E+02  0.10460108655E+03  0.12700000000E+01 0. -1.
         -4    1    3    3    0  502  0.43817938065E+02  0.91053600263E+01 -0.11209466301E+03  0.12070520144E+03  0.12700000000E+01 0. -1.
          1    1    1    2  503    0  0.50541427941E+01 -0.20682163066E+02 -0.31405431063E+03  0.31477516779E+03  0.00000000000E+00 0. -1.
         -1    1    1    2    0  501  0.26733611997E+02  0.63765151087E+01  0.22618539882E+02  0.35594161062E+02  0.00000000000E+00 0.  1.
<mgrwt>
<rscale>  0 0.24194798E+02</rscale>
<asrwt>0</asrwt>
<pdfrwt beam="2">  1        2 0.80868684E-01 0.21290755E+02</pdfrwt>
<pdfrwt beam="1">  1       -2 0.76967965E-02 0.27494951E+02</pdfrwt>
<totfact> 0.50576583E+03</totfact>
</mgrwt>
</event>
<event>
 7    1  0.5277388E-004  0.1039617E+03  0.7546771E-02  0.1305585E+00
          1   -1    0    0  502    0 -0.00000000000E+00  0.00000000000E+00  0.53731535643E+03  0.53731535643E+03  0.00000000000E+00 0. -1.
          2   -1    0    0  503    0  0.00000000000E+00 -0.00000000000E+00 -0.52353916841E+03  0.52353916841E+03  0.00000000000E+00 0. -1.
         25    2    1    2    0    0 -0.78612462016E+02  0.12342318441E+03  0.22145570248E+03  0.29339476842E+03  0.12499864134E+03 0.  0.
          4    1    3    3  501    0  0.23493842280E+02  0.60764117655E+02  0.11935966997E+03  0.13598743447E+03  0.12700000000E+01 0.  1.
         -4    1    3    3    0  501 -0.10210630430E+03  0.62659066756E+02  0.10209603252E+03  0.15740733394E+03  0.12700000000E+01 0.  1.
          2    1    1    2  502    0  0.84469889745E+02 -0.47661691669E+02  0.26838330645E+03  0.28537063322E+03  0.00000000000E+00 0. -1.
          1    1    1    2  503    0 -0.58574277290E+01 -0.75761492742E+02 -0.47606282092E+03  0.48208912320E+03  0.00000000000E+00 0. -1.
<mgrwt>
<rscale>  0 0.88880818E+02</rscale>
<asrwt>0</asrwt>
<pdfrwt beam="2">  1        2 0.80544487E-01 0.75987586E+02</pdfrwt>
<pdfrwt beam="1">  1        1 0.82663902E-01 0.10396171E+03</pdfrwt>
<totfact> 0.34674178E+02</totfact>
</mgrwt>
</event>
<event>
 7    1  0.5277388E-004  0.8848106E+02  0.7546771E-02  0.1356998E+00
          1   -1    0    0  502    0 -0.00000000000E+00  0.00000000000E+00  0.57901788906E+03  0.57901788906E+03  0.00000000000E+00 0. -1.
          2   -1    0    0  503    0  0.00000000000E+00 -0.00000000000E+00 -0.18826756961E+04  0.18826756961E+04  0.00000000000E+00 0. -1.
         25    2    1    2    0    0  0.23699052197E+02  0.33038042992E+02 -0.27407307619E+03  0.30397041549E+03  0.12501521923E+03 0.  0.
          4    1    3    3  501    0  0.45601672459E+02  0.72532910583E+02 -0.16532808885E+03  0.18621365555E+03  0.12700000000E+01 0. -1.
         -4    1    3    3    0  501 -0.21902620262E+02 -0.39494867590E+02 -0.10874498734E+03  0.11775675994E+03  0.12700000000E+01 0. -1.
          2    1    1    2  502    0 -0.10999081285E+02 -0.88442787283E+02  0.56003762448E+03  0.56708486776E+03  0.00000000000E+00 0. -1.
          1    1    1    2  503    0 -0.12699970912E+02  0.55404744291E+02 -0.15896223553E+04  0.15906383019E+04  0.00000000000E+00 0. -1.
<mgrwt>
<rscale>  0 0.70918340E+02</rscale>
<asrwt>0</asrwt>
<pdfrwt beam="2">  1        2 0.28964241E+00 0.56841666E+02</pdfrwt>
<pdfrwt beam="1">  1        1 0.89079676E-01 0.88481063E+02</pdfrwt>
<totfact> 0.52706651E+01</totfact>
</mgrwt>
</event>
<event>
 7    1  0.5277388E-004  0.1953198E+03  0.7546771E-02  0.1178314E+00
          1   -1    0    0  502    0 -0.00000000000E+00  0.00000000000E+00  0.22444240186E+04  0.22444240186E+04  0.00000000000E+00 0. -1.
          2   -1    0    0  503    0  0.00000000000E+00 -0.00000000000E+00 -0.60420025989E+03  0.60420025989E+03  0.00000000000E+00 0. -1.
         25    2    1    2    0    0  0.17300665333E+03 -0.29383740121E+03 -0.35031378975E+03  0.50459456530E+03  0.12499681434E+03 0.  0.
          4    1    3    3  501    0  0.11074495807E+03 -0.27740333207E+03 -0.28425841766E+03  0.41233665286E+03  0.12700000000E+01 0. -1.
         -4    1    3    3    0  501  0.62261695262E+02 -0.16434069135E+02 -0.66055372091E+02  0.92257912437E+02  0.12700000000E+01 0. -1.
          2    1    1    2  502    0 -0.96695683042E+02  0.16797839865E+03  0.21314620694E+04  0.21402563751E+04  0.00000000000E+00 0. -1.
          1    1    1    2  503    0 -0.76310970290E+02  0.12585900256E+03 -0.14092452099E+03  0.20377333812E+03  0.00000000000E+00 0. -1.
<mgrwt>
<rscale>  0 0.16955364E+03</rscale>
<asrwt>0</asrwt>
<pdfrwt beam="2">  1        2 0.92953887E-01 0.14718646E+03</pdfrwt>
<pdfrwt beam="1">  1        1 0.34529600E+00 0.19531984E+03</pdfrwt>
<totfact> 0.16978314E+01</totfact>
</mgrwt>
</event>
<event>
 7    1  0.5277388E-004  0.2176856E+03  0.7546771E-02  0.1312695E+00
          1   -1    0    0  503    0  0.00000000000E+00  0.00000000000E+00  0.84858568940E+03  0.84858568940E+03  0.00000000000E+00 0. -1.
         -1   -1    0    0    0  501 -0.00000000000E+00 -0.00000000000E+00 -0.19266873842E+04  0.19266873842E+04  0.00000000000E+00 0.  1.
         25    2    1    2    0    0 -0.22569327317E+03  0.92961595792E+02 -0.93298834650E+02  0.28967268512E+03  0.12500512035E+03 0.  0.
          4    1    3    3  502    0 -0.27747464286E+02  0.27045858940E+02 -0.69633829152E+02  0.79698703393E+02  0.12700000000E+01 0. -1.
         -4    1    3    3    0  502 -0.19794580888E+03  0.65915736853E+02 -0.23665005499E+02  0.20997398173E+03  0.12700000000E+01 0. -1.
          2    1    1    2  503    0  0.20535927621E+03 -0.65687776491E+02  0.73473950810E+03  0.76572152971E+03  0.00000000000E+00 0. -1.
         -2    1    1    2    0  501  0.20333996954E+02 -0.27273819301E+02 -0.17195423683E+04  0.17198788588E+04  0.00000000000E+00 0.  1.
<mgrwt>
<rscale>  0 0.86055661E+02</rscale>
<asrwt>0</asrwt>
<pdfrwt beam="1">  1        1 0.13055165E+00 0.21768564E+03</pdfrwt>
<pdfrwt beam="2">  1       -1 0.29641344E+00 0.34019592E+02</pdfrwt>
<totfact> 0.11430098E+00</totfact>
</mgrwt>
</event>
<event>
 7    1  0.5277388E-004  0.3180355E+02  0.7546771E-02  0.1634961E+00
          3   -1    0    0  503    0  0.00000000000E+00  0.00000000000E+00  0.32048631389E+03  0.32048631389E+03  0.00000000000E+00 0. -1.
         -3   -1    0    0    0  501 -0.00000000000E+00 -0.00000000000E+00 -0.36453306798E+02  0.36453306798E+02  0.00000000000E+00 0.  1.
         25    2    1    2    0    0 -0.67141156616E+00  0.11597906585E+02  0.16957252975E+03  0.21098476766E+03  0.12499906843E+03 0.  0.
          4    1    3    3  502    0  0.46630561137E+02 -0.10697628168E+02  0.18839324352E+02  0.51433272523E+02  0.12700000000E+01 0.  1.
         -4    1    3    3    0  502 -0.47301972703E+02  0.22295534753E+02  0.15073320540E+03  0.15955149514E+03  0.12700000000E+01 0.  1.
          2    1    1    2  503    0  0.71939389186E+01 -0.33417334871E+02  0.11805070648E+03  0.12290012338E+03  0.00000000000E+00 0. -1.
         -2    1    1    2    0  501 -0.65225273524E+01  0.21819428286E+02 -0.35902291351E+01  0.23054729646E+02  0.00000000000E+00 0.  1.
<mgrwt>
<rscale>  0 0.26912396E+02</rscale>
<asrwt>0</asrwt>
<pdfrwt beam="1">  1        3 0.49305585E-01 0.31803548E+02</pdfrwt>
<pdfrwt beam="2">  1       -3 0.56082013E-02 0.22773467E+02</pdfrwt>
<totfact> 0.11919129E+03</totfact>
</mgrwt>
</event>
<event>
 7    1  0.5277388E-004  0.7646645E+02  0.7546771E-02  0.1349105E+00
          1   -1    0    0  502    0 -0.00000000000E+00  0.00000000000E+00  0.14604949578E+04  0.14604949578E+04  0.00000000000E+00 0. -1.
          2   -1    0    0  503    0  0.00000000000E+00 -0.00000000000E+00 -0.28219407053E+03  0.28219407053E+03  0.00000000000E+00 0. -1.
         25    2    1    2    0    0 -0.84068969383E+01  0.20096239509E+02  0.16797752370E+02  0.12798885346E+03  0.12499778945E+03 0.  0.
          4    1    3    3  501    0 -0.44201755361E+02  0.33273774506E+02 -0.33622302881E+02  0.64753466300E+02  0.12700000000E+01 0. -1.
         -4    1    3    3    0  501  0.35794858422E+02 -0.13177534998E+02  0.50420055252E+02  0.63235387163E+02  0.12700000000E+01 0. -1.
          2    1    1    2  502    0  0.77471987178E+02 -0.68059331674E+01  0.13815240983E+04  0.13837113369E+04  0.00000000000E+00 0. -1.
          1    1    1    2  503    0 -0.69065090239E+02 -0.13290306341E+02 -0.22002096342E+03  0.23098883799E+03  0.00000000000E+00 0. -1.
<mgrwt>
<rscale>  0 0.73335216E+02</rscale>
<asrwt>0</asrwt>
<pdfrwt beam="2">  1        2 0.43414473E-01 0.70332204E+02</pdfrwt>
<pdfrwt beam="1">  1        1 0.22469153E+00 0.76466449E+02</pdfrwt>
<totfact> 0.13488223E+02</totfact>
</mgrwt>
</event>
<event>
 7    1  0.5277388E-004  0.5152054E+02  0.7546771E-02  0.1520247E+00
          2   -1    0    0  503    0  0.00000000000E+00  0.00000000000E+00  0.92142382349E+03  0.92142382349E+03  0.00000000000E+00 0. -1.
          1   -1    0    0  502    0 -0.00000000000E+00 -0.00000000000E+00 -0.17951778941E+03  0.17951778941E+03  0.00000000000E+00 0. -1.
         25    2    1    2    0    0  0.30507826276E+02 -0.14744881746E+02  0.60282102163E+03  0.61657434410E+03  0.12499039436E+03 0.  0.
          4    1    3    3  501    0 -0.26236505424E+02 -0.53864977324E+02  0.25002922143E+03  0.25711089916E+03  0.12700000000E+01 0.  1.
         -4    1    3    3    0  501  0.56744331700E+02  0.39120095578E+02  0.35279180021E+03  0.35946344494E+03  0.12700000000E+01 0.  1.
          2    1    1    2  502    0  0.12978301718E+02 -0.25526201489E+02 -0.16860571124E+03  0.17102020097E+03  0.00000000000E+00 0. -1.
          1    1    1    2  503    0 -0.43486127994E+02  0.40271083235E+02  0.30769072369E+03  0.31334706783E+03  0.00000000000E+00 0. -1.
<mgrwt>
<rscale>  0 0.38410215E+02</rscale>
<asrwt>0</asrwt>
<pdfrwt beam="1">  1        2 0.14175751E+00 0.51520536E+02</pdfrwt>
<pdfrwt beam="2">  1        1 0.27618122E-01 0.28636049E+02</pdfrwt>
<totfact> 0.68948191E+02</totfact>
</mgrwt>
</event>
<event>
 7    1  0.5277388E-004  0.3983724E+02  0.7546771E-02  0.1516170E+00
          2   -1    0    0  503    0  0.00000000000E+00  0.00000000000E+00  0.14771401234E+04  0.14771401234E+04  0.00000000000E+00 0. -1.
         -2   -1    0    0    0  501 -0.00000000000E+00 -0.00000000000E+00 -0.20403248443E+03  0.20403248443E+03  0.00000000000E+00 0.  1.
         25    2    1    2    0    0 -0.22182760793E+02 -0.27704792956E+02  0.84628344341E+02  0.15507438972E+03  0.12500591687E+03 0.  0.
          4    1    3    3  502    0 -0.21456273985E+02 -0.28531393142E+01 -0.30423925234E+02  0.37359606848E+02  0.12700000000E+01 0.  1.
         -4    1    3    3    0  502 -0.72648680858E+00 -0.24851653642E+02  0.11505226957E+03  0.11771478287E+03  0.12700000000E+01 0.  1.
          1    1    1    2  503    0  0.36767335756E+02 -0.98368805587E+01  0.13546154084E+04  0.13551499939E+04  0.00000000000E+00 0. -1.
         -1    1    1    2    0  501 -0.14584574963E+02  0.37541673514E+02 -0.16613611377E+03  0.17094822425E+03  0.00000000000E+00 0.  1.
<mgrwt>
<rscale>  0 0.38938737E+02</rscale>
<asrwt>0</asrwt>
<pdfrwt beam="1">  1        2 0.22725232E+00 0.38060494E+02</pdfrwt>
<pdfrwt beam="2">  1       -2 0.31389614E-01 0.39837245E+02</pdfrwt>
<totfact> 0.15030767E+02</totfact>
</mgrwt>
</event>
<event>
 7    1  0.5277388E-004  0.2083047E+03  0.7546771E-02  0.1323371E+00
          1   -1    0    0  502    0 -0.00000000000E+00  0.00000000000E+00  0.60831019955E+03  0.60831019955E+03  0.00000000000E+00 0. -1.
          2   -1    0    0  503    0  0.00000000000E+00 -0.00000000000E+00 -0.39304897818E+03  0.39304897818E+03  0.00000000000E+00 0. -1.
         25    2    1    2    0    0  0.16908596893E+03 -0.64513972759E+02  0.16572923268E+03  0.27539680599E+03  0.12500041846E+03 0.  0.
          4    1    3    3  501    0  0.17131093312E+03 -0.88431093635E+02  0.16032008863E+03  0.25074217405E+03  0.12700000000E+01 0. -1.
         -4    1    3    3    0  501 -0.22249641977E+01  0.23917120876E+02  0.54091440542E+01  0.24654631940E+02  0.12700000000E+01 0. -1.
          2    1    1    2  502    0  0.32076600259E+02 -0.38587909073E+01  0.35357062505E+03  0.35504363880E+03  0.00000000000E+00 0. -1.
          1    1    1    2  503    0 -0.20116256919E+03  0.68372763666E+02 -0.30403863636E+03  0.37091873295E+03  0.00000000000E+00 0. -1.
<mgrwt>
<rscale>  0 0.82035849E+02</rscale>
<asrwt>0</asrwt>
<pdfrwt beam="2">  1        2 0.60469074E-01 0.20830467E+03</pdfrwt>
<pdfrwt beam="1">  1        1 0.93586184E-01 0.32307871E+02</pdfrwt>
<totfact> 0.41220360E+02</totfact>
</mgrwt>
</event>
<event>
 7    1  0.5277388E-004  0.8211487E+02  0.7546771E-02  0.1474347E+00
          2   -1    0    0  503    0  0.00000000000E+00  0.00000000000E+00  0.94949469337E+03  0.94949469337E+03  0.00000000000E+00 0. -1.
         -2   -1    0    0    0  501 -0.00000000000E+00 -0.00000000000E+00 -0.31197012203E+02  0.31197012203E+02  0.00000000000E+00 0.  1.
         25    2    1    2    0    0 -0.93378598563E+02 -0.40622989887E+02  0.47019993709E+03  0.49707516662E+03  0.12500380175E+03 0.  0.
          4    1    3    3  502    0 -0.50333395766E+02 -0.85205232443E+02  0.30313079148E+03  0.31887814602E+03  0.12700000000E+01 0.  1.
         -4    1    3    3    0  502 -0.43045202798E+02  0.44582242557E+02  0.16706914561E+03  0.17819702060E+03  0.12700000000E+01 0.  1.
          1    1    1    2  503    0  0.18795916007E+02  0.15962908001E+02  0.37657028146E+03  0.37737683788E+03  0.00000000000E+00 0. -1.
         -1    1    1    2    0  501  0.74582682556E+02  0.24660081886E+02  0.71527462616E+02  0.10623970107E+03  0.00000000000E+00 0.  1.
<mgrwt>
<rscale>  0 0.44999203E+02</rscale>
<asrwt>0</asrwt>
<pdfrwt beam="1">  1        2 0.14607608E+00 0.24659702E+02</pdfrwt>
<pdfrwt beam="2">  1       -2 0.47995411E-02 0.82114874E+02</pdfrwt>
<totfact> 0.59332931E+03</totfact>
</mgrwt>
</event>
<event>
 7    1  0.5277388E-004  0.1105643E+03  0.7546771E-02  0.1432605E+00
         -2   -1    0    0    0  501 -0.00000000000E+00  0.00000000000E+00  0.29749514560E+03  0.29749514560E+03  0.00000000000E+00 0.  1.
          2   -1    0    0  503    0  0.00000000000E+00 -0.00000000000E+00 -0.74643765834E+03  0.74643765834E+03  0.00000000000E+00 0. -1.
         25    2    1    2    0    0  0.30583401785E+02  0.81575475470E+02 -0.16994314433E+03  0.22824412721E+03  0.12499922655E+03 0.  0.
          4    1    3    3  502    0 -0.22991293201E+02  0.13794372268E+01  0.91605271856E+01  0.24819963103E+02  0.12700000000E+01 0. -1.
         -4    1    3    3    0  502  0.53574694986E+02  0.80196038243E+02 -0.17910367151E+03  0.20342416411E+03  0.12700000000E+01 0. -1.
          1    1    1    2  503    0  0.70116868294E+01  0.23863733685E+02 -0.53536853571E+03  0.53594599594E+03  0.00000000000E+00 0. -1.
         -1    1    1    2    0  501 -0.37595088614E+02 -0.10543920916E+03  0.25636916730E+03  0.27974268079E+03  0.00000000000E+00 0.  1.
<mgrwt>
<rscale>  0 0.52440554E+02</rscale>
<asrwt>0</asrwt>
<pdfrwt beam="2">  1        2 0.11483656E+00 0.24872506E+02</pdfrwt>
<pdfrwt beam="1">  1       -2 0.45768485E-01 0.11056432E+03</pdfrwt>
<totfact> 0.19413979E+02</totfact>
</mgrwt>
</event>
<event>
 7    1  0.5277388E-004  0.6256359E+02  0.7546771E-02  0.1541058E+00
          1   -1    0    0  502    0 -0.00000000000E+00  0.00000000000E+00  0.30133363639E+02  0.30133363639E+02  0.00000000000E+00 0. -1.
          2   -1    0    0  503    0  0.00000000000E+00 -0.00000000000E+00 -0.11879072276E+04  0.11879072276E+04  0.00000000000E+00 0. -1.
         25    2    1    2    0    0  0.43891298871E+02  0.40874719937E+02 -0.41186197215E+03  0.43457718817E+03  0.12501943658E+03 0.  0.
          4    1    3    3  501    0 -0.24637338148E+02 -0.28219254021E+02 -0.73626632260E+02  0.82618512493E+02  0.12700000000E+01 0.  1.
         -4    1    3    3    0  501  0.68528637020E+02  0.69093973958E+02 -0.33823533989E+03  0.35195867567E+03  0.12700000000E+01 0.  1.
          2    1    1    2  502    0 -0.57793349794E+02 -0.25728718029E+02 -0.35085349910E+02  0.72339615634E+02  0.00000000000E+00 0. -1.
          1    1    1    2  503    0  0.13902050923E+02 -0.15146001907E+02 -0.71082654187E+03  0.71112378741E+03  0.00000000000E+00 0. -1.
<mgrwt>
<rscale>  0 0.35864170E+02</rscale>
<asrwt>0</asrwt>
<pdfrwt beam="2">  1        2 0.18275494E+00 0.20558901E+02</pdfrwt>
<pdfrwt beam="1">  1        1 0.46359026E-02 0.62563595E+02</pdfrwt>
<totfact> 0.52664143E+03</totfact>
</mgrwt>
</event>
<event>
 7    1  0.5277388E-004  0.6789671E+02  0.7546771E-02  0.1368260E+00
          1   -1    0    0  502    0 -0.00000000000E+00  0.00000000000E+00  0.21687613162E+03  0.21687613162E+03  0.00000000000E+00 0. -1.
          2   -1    0    0  503    0  0.00000000000E+00 -0.00000000000E+00 -0.80555064909E+03  0.80555064909E+03  0.00000000000E+00 0. -1.
         25    2    1    2    0    0 -0.31328497333E+01 -0.28718135587E+02  0.61381331149E+02  0.14222189796E+03  0.12499941755E+03 0.  0.
          4    1    3    3  501    0  0.35962921685E+02  0.27603332668E+02  0.57917727622E+02  0.73561890836E+02  0.12700000000E+01 0.  1.
         -4    1    3    3    0  501 -0.39095771418E+02 -0.56321468255E+02  0.34636035269E+01  0.68660007126E+02  0.12700000000E+01 0.  1.
          2    1    1    2  502    0 -0.64711240598E+02  0.20552823691E+02  0.10337670966E+03  0.12367985819E+03  0.00000000000E+00 0. -1.
          1    1    1    2  503    0  0.67844090331E+02  0.81653118959E+01 -0.75343255828E+03  0.75652502456E+03  0.00000000000E+00 0. -1.
<mgrwt>
<rscale>  0 0.67653173E+02</rscale>
<asrwt>0</asrwt>
<pdfrwt beam="2">  1        2 0.12393087E+00 0.67410509E+02</pdfrwt>
<pdfrwt beam="1">  1        1 0.33365559E-01 0.67896710E+02</pdfrwt>
<totfact> 0.65636385E+02</totfact>
</mgrwt>
</event>
<event>
 7    1  0.5277388E-004  0.1945629E+03  0.7546771E-02  0.1233200E+00
          2   -1    0    0  503    0  0.00000000000E+00  0.00000000000E+00  0.23205429286E+03  0.23205429286E+03  0.00000000000E+00 0. -1.
          1   -1    0    0  502    0 -0.00000000000E+00 -0.00000000000E+00 -0.10650653750E+04  0.10650653750E+04  0.00000000000E+00 0. -1.
         25    2    1    2    0    0  0.91661680342E+02  0.16536822847E+03 -0.15089198855E+01  0.22665317178E+03  0.12498347415E+03 0.  0.
          4    1    3    3  501    0 -0.12102124164E+02  0.25585200130E+02  0.38715978189E+02  0.47975032486E+02  0.12700000000E+01 0.  1.
         -4    1    3    3    0  501  0.10376380451E+03  0.13978302834E+03 -0.40224898075E+02  0.17867813929E+03  0.12700000000E+01 0.  1.
          2    1    1    2  502    0 -0.15778533862E+03 -0.11710738160E+03 -0.92532075824E+03  0.94595394050E+03  0.00000000000E+00 0. -1.
          1    1    1    2  503    0  0.66123658282E+02 -0.48260846865E+02  0.93818596031E+02  0.12451255554E+03  0.00000000000E+00 0. -1.
<mgrwt>
<rscale>  0 0.12620374E+03</rscale>
<asrwt>0</asrwt>
<pdfrwt beam="1">  1        2 0.35700660E-01 0.81862369E+02</pdfrwt>
<pdfrwt beam="2">  1        1 0.16385621E+00 0.19456294E+03</pdfrwt>
<totfact> 0.28421165E+02</totfact>
</mgrwt>
</event>
<event>
 7    1  0.5277388E-004  0.9212448E+02  0.7546771E-02  0.1354766E+00
          2   -1    0    0  503    0  0.00000000000E+00  0.00000000000E+00  0.68240895129E+03  0.68240895129E+03  0.00000000000E+00 0. -1.
          1   -1    0    0  502    0 -0.00000000000E+00 -0.00000000000E+00 -0.85740603848E+03  0.85740603848E+03  0.00000000000E+00 0. -1.
         25    2    1    2    0    0 -0.13190816042E+03 -0.26156387137E+02 -0.58755419653E+03  0.61557190105E+03  0.12499964851E+03 0.  0.
          4    1    3    3  501    0 -0.13004968145E+02 -0.57466492942E+02 -0.23147530275E+03  0.23885969875E+03  0.12700000000E+01 0. -1.
         -4    1    3    3    0  501 -0.11890319228E+03  0.31310105805E+02 -0.35607889378E+03  0.37671220229E+03  0.12700000000E+01 0. -1.
          2    1    1    2  502    0  0.52106021006E+02 -0.19495823175E+02 -0.24960451386E+03  0.25572942319E+03  0.00000000000E+00 0. -1.
          1    1    1    2  503    0  0.79802139417E+02  0.45652210313E+02  0.66216162320E+03  0.66851366553E+03  0.00000000000E+00 0. -1.
<mgrwt>
<rscale>  0 0.71590772E+02</rscale>
<asrwt>0</asrwt>
<pdfrwt beam="1">  1        2 0.10498599E+00 0.92124475E+02</pdfrwt>
<pdfrwt beam="2">  1        1 0.13190862E+00 0.55633844E+02</pdfrwt>
<totfact> 0.13769645E+02</totfact>
</mgrwt>
</event>
<event>
 7    1  0.5277388E-004  0.8186442E+02  0.7546771E-02  0.1365661E+00
         -2   -1    0    0    0  501 -0.00000000000E+00  0.00000000000E+00  0.25620701543E+02  0.25620701543E+02  0.00000000000E+00 0.  1.
          2   -1    0    0  503    0  0.00000000000E+00 -0.00000000000E+00 -0.18808797745E+04  0.18808797745E+04  0.00000000000E+00 0. -1.
         25    2    1    2    0    0  0.54930173333E+02 -0.72380468570E+02 -0.16887388851E+04  0.16957950203E+04  0.12500189090E+03 0.  0.
          4    1    3    3  502    0  0.83172379628E+02 -0.50856046564E+02 -0.74051822972E+03  0.74690885900E+03  0.12700000000E+01 0. -1.
         -4    1    3    3    0  502 -0.28242206295E+02 -0.21524422006E+02 -0.94822065539E+03  0.94888616133E+03  0.12700000000E+01 0. -1.
          1    1    1    2  503    0 -0.67181836974E+02  0.16578789427E+02 -0.11250851314E+03  0.13208490076E+03  0.00000000000E+00 0. -1.
         -1    1    1    2    0  501  0.12251663641E+02  0.55801679144E+02 -0.54011674706E+02  0.78620554957E+02  0.00000000000E+00 0.  1.
<mgrwt>
<rscale>  0 0.68388458E+02</rscale>
<asrwt>0</asrwt>
<pdfrwt beam="2">  1        2 0.28936618E+00 0.81864415E+02</pdfrwt>
<pdfrwt beam="1">  1       -2 0.39416455E-02 0.57130821E+02</pdfrwt>
<totfact> 0.23220407E+03</totfact>
</mgrwt>
</event>
<event>
 7    1  0.5277388E-004  0.8396433E+02  0.7546771E-02  0.1361042E+00
          2   -1    0    0  503    0  0.00000000000E+00  0.00000000000E+00  0.73412484906E+03  0.73412484906E+03  0.00000000000E+00 0. -1.
         -2   -1    0    0    0  501 -0.00000000000E+00 -0.00000000000E+00 -0.86771240998E+02  0.86771240998E+02  0.00000000000E+00 0.  1.
         25    2    1    2    0    0 -0.22782498417E+02  0.28171835597E+02  0.84646338198E+01  0.13043392959E+03  0.12501466077E+03 0.  0.
          4    1    3    3  502    0 -0.20233011959E+02 -0.47131699054E+02  0.18224012729E+02  0.54447216353E+02  0.12700000000E+01 0.  1.
         -4    1    3    3    0  502 -0.25494864580E+01  0.75303534651E+02 -0.97593789089E+01  0.75986713239E+02  0.12700000000E+01 0.  1.
          1    1    1    2  503    0 -0.83733555957E+02 -0.62209969381E+01  0.52984036680E+03  0.53645207007E+03  0.00000000000E+00 0. -1.
         -1    1    1    2    0  501  0.10651605437E+03 -0.21950838659E+02  0.10904860744E+03  0.15401009039E+03  0.00000000000E+00 0.  1.
<mgrwt>
<rscale>  0 0.69721584E+02</rscale>
<asrwt>0</asrwt>
<pdfrwt beam="1">  1        2 0.11294228E+00 0.83964333E+02</pdfrwt>
<pdfrwt beam="2">  1       -2 0.13349422E-01 0.57894812E+02</pdfrwt>
<totfact> 0.15748714E+03</totfact>
</mgrwt>
</event>
<event>
 7    1  0.5277388E-004  0.7407743E+02  0.7546771E-02  0.1469280E+00
          1   -1    0    0  502    0 -0.00000000000E+00  0.00000000000E+00  0.16857649366E+04  0.16857649366E+04  0.00000000000E+00 0. -1.
          2   -1    0    0  503    0  0.00000000000E+00 -0.00000000000E+00 -0.59965139702E+03  0.59965139702E+03  0.00000000000E+00 0. -1.
         25    2    1    2    0    0 -0.49884647838E+02 -0.80963604553E+02 -0.37433429804E+03  0.40592958189E+03  0.12493628543E+03 0.  0.
          4    1    3    3  501    0 -0.51646489215E+01 -0.91851666620E+02 -0.14288298954E+03  0.16994282527E+03  0.12700000000E+01 0. -1.
         -4    1    3    3    0  501 -0.44719998917E+02  0.10888062067E+02 -0.23145130849E+03  0.23598675662E+03  0.12700000000E+01 0. -1.
          2    1    1    2  502    0  0.17294534714E+02  0.22454876785E+02  0.16644915709E+04  0.16647328651E+04  0.00000000000E+00 0. -1.
          1    1    1    2  503    0  0.32590113125E+02  0.58508727768E+02 -0.20404373334E+03  0.21475388661E+03  0.00000000000E+00 0. -1.
<mgrwt>
<rscale>  0 0.45821092E+02</rscale>
<asrwt>0</asrwt>
<pdfrwt beam="2">  1        2 0.92254062E-01 0.74077434E+02</pdfrwt>
<pdfrwt beam="1">  1        1 0.25934845E+00 0.28342943E+02</pdfrwt>
<totfact> 0.49331236E+01</totfact>
</mgrwt>
</event>
<event>
 7    1  0.5277388E-004  0.7607060E+02  0.7546771E-02  0.1366062E+00
          1   -1    0    0  503    0  0.00000000000E+00  0.00000000000E+00  0.13110849805E+04  0.13110849805E+04  0.00000000000E+00 0. -1.
         -1   -1    0    0    0  501 -0.00000000000E+00 -0.00000000000E+00 -0.15043195825E+04  0.15043195825E+04  0.00000000000E+00 0.  1.
         25    2    1    2    0    0 -0.15441502500E+02  0.33648334114E+01  0.28199539866E+01  0.12602466851E+03  0.12499801130E+03 0.  0.
          4    1    3    3  502    0 -0.62515050406E+02 -0.28675338347E+02  0.54636199903E+01  0.69006308407E+02  0.12700000000E+01 0. -1.
         -4    1    3    3    0  502  0.47073547906E+02  0.32040171759E+02 -0.26436660037E+01  0.57018360102E+02  0.12700000000E+01 0. -1.
          2    1    1    2  503    0 -0.58522127605E+02  0.18165759657E+02  0.12448802326E+04  0.12463874308E+04  0.00000000000E+00 0. -1.
         -2    1    1    2    0  501  0.73963630105E+02 -0.21530593068E+02 -0.14409347886E+04  0.14429924636E+04  0.00000000000E+00 0.  1.
<mgrwt>
<rscale>  0 0.68274118E+02</rscale>
<asrwt>0</asrwt>
<pdfrwt beam="1">  1        1 0.20170538E+00 0.61276702E+02</pdfrwt>
<pdfrwt beam="2">  1       -1 0.23143378E+00 0.76070596E+02</pdfrwt>
<totfact> 0.13025449E+00</totfact>
</mgrwt>
</event>
<event>
 7    1  0.5277388E-004  0.1377700E+03  0.7546771E-02  0.1321471E+00
          1   -1    0    0  502    0 -0.00000000000E+00  0.00000000000E+00  0.14248857893E+04  0.14248857893E+04  0.00000000000E+00 0. -1.
          2   -1    0    0  503    0  0.00000000000E+00 -0.00000000000E+00 -0.70392180527E+02  0.70392180527E+02  0.00000000000E+00 0. -1.
         25    2    1    2    0    0 -0.49549550308E+02 -0.15700850889E+03  0.57350406219E+03  0.60962104986E+03  0.12499634106E+03 0.  0.
          4    1    3    3  501    0 -0.59203015203E+02 -0.96711590685E+02  0.18988187883E+03  0.22116706263E+03  0.12700000000E+01 0.  1.
         -4    1    3    3    0  501  0.96534648947E+01 -0.60296918200E+02  0.38362218336E+03  0.38845398723E+03  0.12700000000E+01 0.  1.
          2    1    1    2  502    0 -0.23254893919E+02  0.43903433327E+02  0.74467437021E+03  0.74632983272E+03  0.00000000000E+00 0. -1.
          1    1    1    2  503    0  0.72804444227E+02  0.11310507556E+03  0.36315176405E+02  0.13932708729E+03  0.00000000000E+00 0. -1.
<mgrwt>
<rscale>  0 0.82732639E+02</rscale>
<asrwt>0</asrwt>
<pdfrwt beam="2">  1        2 0.10829567E-01 0.13776999E+03</pdfrwt>
<pdfrwt beam="1">  1        1 0.21921318E+00 0.49682004E+02</pdfrwt>
<totfact> 0.71231835E+02</totfact>
</mgrwt>
</event>
<event>
 7    1  0.5277388E-004  0.8559133E+02  0.7546771E-02  0.1401857E+00
          2   -1    0    0  503    0  0.00000000000E+00  0.00000000000E+00  0.23885655608E+03  0.23885655608E+03  0.00000000000E+00 0. -1.
          1   -1    0    0  502    0 -0.00000000000E+00 -0.00000000000E+00 -0.24223213499E+04  0.24223213499E+04  0.00000000000E+00 0. -1.
         25    2    1    2    0    0 -0.29329849712E+02 -0.42365284989E+02 -0.57838605804E+03  0.59397868786E+03  0.12500076814E+03 0.  0.
          4    1    3    3  501    0 -0.37996463785E+02 -0.18056150286E+02 -0.56158013935E+03  0.56315506003E+03  0.12700000000E+01 0. -1.
         -4    1    3    3    0  501  0.86666140734E+01 -0.24309134703E+02 -0.16805918694E+02  0.30823627831E+02  0.12700000000E+01 0. -1.
          2    1    1    2  502    0  0.55050891207E+01 -0.40367092863E+02 -0.18278842659E+04  0.18283382339E+04  0.00000000000E+00 0. -1.
          1    1    1    2  503    0  0.23824760591E+02  0.82732377852E+02  0.22280553006E+03  0.23886098423E+03  0.00000000000E+00 0. -1.
<mgrwt>
<rscale>  0 0.59051285E+02</rscale>
<asrwt>0</asrwt>
<pdfrwt beam="1">  1        2 0.36747163E-01 0.85591326E+02</pdfrwt>
<pdfrwt beam="2">  1        1 0.37266482E+00 0.40740744E+02</pdfrwt>
<totfact> 0.44328841E+01</totfact>
</mgrwt>
</event>
<event>
 7    1  0.5277388E-004  0.7861428E+02  0.7546771E-02  0.1384154E+00
         -2   -1    0    0    0  501  0.00000000000E+00  0.00000000000E+00  0.30864097755E+03  0.30864097755E+03  0.00000000000E+00 0.  1.
         -3   -1    0    0    0  502 -0.00000000000E+00 -0.00000000000E+00 -0.15484327115E+03  0.15484327115E+03  0.00000000000E+00 0.  1.
         25    2    1    2    0    0  0.75237044567E+01  0.36905455664E+02  0.13380608766E+03  0.18690757057E+03  0.12494699699E+03 0.  0.
          4    1    3    3  503    0 -0.12090496266E+02  0.57849984970E+02  0.10173867056E+02  0.59982675264E+02  0.12700000000E+01 0. -1.
         -4    1    3    3    0  503  0.19614200722E+02 -0.20944529305E+02  0.12363222060E+03  0.12692489531E+03  0.12700000000E+01 0. -1.
         -2    1    1    2    0  502 -0.49698084182E+02 -0.65767739321E+02 -0.10967635841E+03  0.13720130721E+03  0.00000000000E+00 0.  1.
         -1    1    1    2    0  501  0.42174379725E+02  0.28862283657E+02  0.12966797715E+03  0.13937537093E+03  0.00000000000E+00 0.  1.
<mgrwt>
<rscale>  0 0.63384338E+02</rscale>
<asrwt>0</asrwt>
<pdfrwt beam="1">  1       -2 0.47483227E-01 0.51104889E+02</pdfrwt>
<pdfrwt beam="2">  1       -3 0.23822042E-01 0.78614284E+02</pdfrwt>
<totfact> 0.25919260E+02</totfact>
</mgrwt>
</event>
<event>
 7    1  0.5277388E-004  0.9326709E+02  0.7546771E-02  0.1389133E+00
          1   -1    0    0  502    0 -0.00000000000E+00  0.00000000000E+00  0.15027646001E+04  0.15027646001E+04  0.00000000000E+00 0. -1.
          2   -1    0    0  503    0  0.00000000000E+00 -0.00000000000E+00 -0.32361467854E+03  0.32361467854E+03  0.00000000000E+00 0. -1.
         25    2    1    2    0    0 -0.12504176213E+03 -0.84358352435E+01  0.11530060935E+02  0.17738451240E+03  0.12500286934E+03 0.  0.
          4    1    3    3  501    0 -0.30420420235E+02  0.55133766135E+02  0.26016939810E+01  0.63035829867E+02  0.12700000000E+01 0.  1.
         -4    1    3    3    0  501 -0.94621341896E+02 -0.63569601378E+02  0.89283669541E+01  0.11434868254E+03  0.12700000000E+01 0.  1.
          2    1    1    2  502    0  0.37946472046E+02 -0.16499789695E+02  0.13994657425E+04  0.14000773344E+04  0.00000000000E+00 0. -1.
          1    1    1    2  503    0  0.87095290085E+02  0.24935624938E+02 -0.23184588187E+03  0.24891743186E+03  0.00000000000E+00 0. -1.
<mgrwt>
<rscale>  0 0.62122858E+02</rscale>
<asrwt>0</asrwt>
<pdfrwt beam="2">  1        2 0.49786874E-01 0.93267089E+02</pdfrwt>
<pdfrwt beam="1">  1        1 0.23119455E+00 0.41378470E+02</pdfrwt>
<totfact> 0.11735702E+02</totfact>
</mgrwt>
</event>
<event>
 7    1  0.5277388E-004  0.1072061E+03  0.7546771E-02  0.1436246E+00
          1   -1    0    0  502    0 -0.00000000000E+00  0.00000000000E+00  0.21187235093E+03  0.21187235093E+03  0.00000000000E+00 0. -1.
          2   -1    0    0  503    0  0.00000000000E+00 -0.00000000000E+00 -0.78016238187E+03  0.78016238187E+03  0.00000000000E+00 0. -1.
         25    2    1    2    0    0 -0.93222794712E+02 -0.75620803627E+02 -0.40215390267E+03  0.43790548300E+03  0.12499782085E+03 0.  0.
          4    1    3    3  501    0 -0.37039096345E+01  0.12125231747E+02  0.35898626563E+01  0.13237832352E+02  0.12700000000E+01 0. -1.
         -4    1    3    3    0  501 -0.89518885078E+02 -0.87746035374E+02 -0.40574376532E+03  0.42466765065E+03  0.12700000000E+01 0. -1.
          2    1    1    2  502    0  0.44767121773E+01  0.24553023339E+02  0.18586786964E+03  0.18753601487E+03  0.00000000000E+00 0. -1.
          1    1    1    2  503    0  0.88746082535E+02  0.51067780288E+02 -0.35200399792E+03  0.36659323493E+03  0.00000000000E+00 0. -1.
<mgrwt>
<rscale>  0 0.51726475E+02</rscale>
<asrwt>0</asrwt>
<pdfrwt beam="2">  1        2 0.12002498E+00 0.10720608E+03</pdfrwt>
<pdfrwt beam="1">  1        1 0.32595746E-01 0.24957803E+02</pdfrwt>
<totfact> 0.67390460E+02</totfact>
</mgrwt>
</event>
<event>
 7    1  0.5277388E-004  0.1339266E+03  0.7546771E-02  0.1332085E+00
          1   -1    0    0  502    0 -0.00000000000E+00  0.00000000000E+00  0.11177627317E+03  0.11177627317E+03  0.00000000000E+00 0. -1.
          2   -1    0    0  503    0  0.00000000000E+00 -0.00000000000E+00 -0.13617625283E+04  0.13617625283E+04  0.00000000000E+00 0. -1.
         25    2    1    2    0    0  0.11051993275E+03  0.32830350923E+02 -0.20599646748E+03  0.26711710196E+03  0.12499805625E+03 0.  0.
          4    1    3    3  501    0 -0.26972529073E+01 -0.16350120345E+00  0.15712258539E+02  0.15993432223E+02  0.12700000000E+01 0.  1.
         -4    1    3    3    0  501  0.11321718566E+03  0.32993852126E+02 -0.22170872602E+03  0.25112366973E+03  0.12700000000E+01 0.  1.
          2    1    1    2  502    0  0.26630568704E+02 -0.38155822127E+02  0.69975023742E+02  0.84033076222E+02  0.00000000000E+00 0. -1.
          1    1    1    2  503    0 -0.13715050146E+03  0.53254712041E+01 -0.11139648114E+04  0.11223886233E+04  0.00000000000E+00 0. -1.
<mgrwt>
<rscale>  0 0.78940642E+02</rscale>
<asrwt>0</asrwt>
<pdfrwt beam="2">  1        2 0.20950193E+00 0.13392663E+03</pdfrwt>
<pdfrwt beam="1">  1        1 0.17196350E-01 0.46530140E+02</pdfrwt>
<totfact> 0.67208582E+02</totfact>
</mgrwt>
</event>
<event>
 7    1  0.5277388E-004  0.6682473E+02  0.7546771E-02  0.1530886E+00
          2   -1    0    0  503    0  0.00000000000E+00  0.00000000000E+00  0.30067583487E+03  0.30067583487E+03  0.00000000000E+00 0. -1.
         -2   -1    0    0    0  501 -0.00000000000E+00 -0.00000000000E+00 -0.61839918675E+02  0.61839918675E+02  0.00000000000E+00 0.  1.
         25    2    1    2    0    0  0.57363373724E+02  0.38358787126E+02  0.20212820717E+03  0.24747231276E+03  0.12499912102E+03 0.  0.
          4    1    3    3  502    0  0.43665041033E+02  0.66656385976E+02  0.54548392113E+02  0.96575615876E+02  0.12700000000E+01 0.  1.
         -4    1    3    3    0  502  0.13698332692E+02 -0.28297598849E+02  0.14757981505E+03  0.15089669688E+03  0.12700000000E+01 0.  1.
          3    1    1    2  503    0 -0.63871312759E+02 -0.18842467610E+02  0.55872497611E+02  0.86927091108E+02  0.00000000000E+00 0. -1.
         -3    1    1    2    0  501  0.65079390344E+01 -0.19516319516E+02 -0.19164788581E+02  0.28116349679E+02  0.00000000000E+00 0.  1.
<mgrwt>
<rscale>  0 0.37077913E+02</rscale>
<asrwt>0</asrwt>
<pdfrwt beam="1">  1        2 0.46257820E-01 0.66824729E+02</pdfrwt>
<pdfrwt beam="2">  1       -2 0.95138338E-02 0.20572798E+02</pdfrwt>
<totfact> 0.63284126E+03</totfact>
</mgrwt>
</event>
<event>
 7    1  0.5277388E-004  0.4327870E+02  0.7546771E-02  0.1532697E+00
         -1   -1    0    0    0  502 -0.00000000000E+00  0.00000000000E+00  0.12031118960E+02  0.12031118960E+02  0.00000000000E+00 0.  1.
         -2   -1    0    0    0  501  0.00000000000E+00 -0.00000000000E+00 -0.11153919269E+04  0.11153919269E+04  0.00000000000E+00 0.  1.
         25    2    1    2    0    0 -0.13619212872E+02  0.70614017348E+01 -0.75374117814E+03  0.76419075320E+03  0.12500558908E+03 0.  0.
          4    1    3    3  503    0  0.42481310871E+02  0.18436346575E+01 -0.57956131452E+03  0.58112046165E+03  0.12700000000E+01 0. -1.
         -4    1    3    3    0  503 -0.56100523743E+02  0.52177670773E+01 -0.17417986361E+03  0.18307029155E+03  0.12700000000E+01 0. -1.
         -2    1    1    2    0  502  0.40277772420E+02 -0.23632577607E+02 -0.86978748675E+02  0.98722339906E+02  0.00000000000E+00 0.  1.
         -1    1    1    2    0  501 -0.26658559549E+02  0.16571175873E+02 -0.26264088114E+03  0.26450995276E+03  0.00000000000E+00 0.  1.
<mgrwt>
<rscale>  0 0.36857621E+02</rscale>
<asrwt>0</asrwt>
<pdfrwt beam="2">  1       -2 0.17159875E+00 0.31389213E+02</pdfrwt>
<pdfrwt beam="1">  1       -1 0.18509415E-02 0.43278698E+02</pdfrwt>
<totfact> 0.11101043E+03</totfact>
</mgrwt>
</event>
<event>
 7    1  0.5277388E-004  0.1006382E+03  0.7546771E-02  0.1333877E+00
          1   -1    0    0  502    0 -0.00000000000E+00  0.00000000000E+00  0.30612078875E+03  0.30612078875E+03  0.00000000000E+00 0. -1.
          2   -1    0    0  503    0  0.00000000000E+00 -0.00000000000E+00 -0.17532991497E+04  0.17532991497E+04  0.00000000000E+00 0. -1.
         25    2    1    2    0    0  0.77348769254E+02  0.13631155401E+03 -0.42008451994E+03  0.46547216737E+03  0.12501864998E+03 0.  0.
          4    1    3    3  501    0  0.23044774668E+02 -0.20856428784E+02 -0.40556045427E+02  0.51112209714E+02  0.12700000000E+01 0.  1.
         -4    1    3    3    0  501  0.54303994586E+02  0.15716798279E+03 -0.37952847451E+03  0.41435995766E+03  0.12700000000E+01 0.  1.
          2    1    1    2  502    0 -0.35281071097E+02 -0.49709402469E+02  0.27835601989E+03  0.28495236879E+03  0.00000000000E+00 0. -1.
          1    1    1    2  503    0 -0.42067698156E+02 -0.86602151538E+02 -0.13054498609E+04  0.13089954023E+04  0.00000000000E+00 0. -1.
<mgrwt>
<rscale>  0 0.78323842E+02</rscale>
<asrwt>0</asrwt>
<pdfrwt beam="2">  1        2 0.26973833E+00 0.10063824E+03</pdfrwt>
<pdfrwt beam="1">  1        1 0.47095506E-01 0.60957187E+02</pdfrwt>
<totfact> 0.12843519E+02</totfact>
</mgrwt>
</event>
<event>
 7    1  0.5277388E-004  0.4271118E+02  0.7546771E-02  0.1595006E+00
          2   -1    0    0  503    0  0.00000000000E+00  0.00000000000E+00  0.60850158077E+03  0.60850158077E+03  0.00000000000E+00 0. -1.
          1   -1    0    0  502    0 -0.00000000000E+00 -0.00000000000E+00 -0.14412057381E+03  0.14412057381E+03  0.00000000000E+00 0. -1.
         25    2    1    2    0    0  0.30220022042E+02 -0.89692201251E+01  0.10729555951E+03  0.16772761464E+03  0.12500607578E+03 0.  0.
          4    1    3    3  501    0 -0.42679783541E+02  0.66227697783E+01  0.86364980566E+01  0.44063896801E+02  0.12700000000E+01 0. -1.
         -4    1    3    3    0  501  0.72899805583E+02 -0.15591989903E+02  0.98659061453E+02  0.12366371784E+03  0.12700000000E+01 0. -1.
          2    1    1    2  502    0  0.12077991140E+02  0.17748157225E+02 -0.11189139573E+03  0.11393225791E+03  0.00000000000E+00 0. -1.
          1    1    1    2  503    0 -0.42298013182E+02 -0.87789370999E+01  0.46897684318E+03  0.47096228203E+03  0.00000000000E+00 0. -1.
<mgrwt>
<rscale>  0 0.30280745E+02</rscale>
<asrwt>0</asrwt>
<pdfrwt beam="1">  1        2 0.93615626E-01 0.42711179E+02</pdfrwt>
<pdfrwt beam="2">  1        1 0.22172396E-01 0.21467998E+02</pdfrwt>
<totfact> 0.14359306E+03</totfact>
</mgrwt>
</event>
<event>
 7    1  0.5277388E-004  0.1180512E+03  0.7546771E-02  0.1364829E+00
          1   -1    0    0  502    0 -0.00000000000E+00  0.00000000000E+00  0.31241036269E+03  0.31241036269E+03  0.00000000000E+00 0. -1.
          2   -1    0    0  503    0  0.00000000000E+00 -0.00000000000E+00 -0.35966568013E+03  0.35966568013E+03  0.00000000000E+00 0. -1.
         25    2    1    2    0    0 -0.99591107013E+02 -0.10628603973E+03  0.50554858562E+02  0.19848083344E+03  0.12499494663E+03 0.  0.
          4    1    3    3  501    0 -0.51977413651E+02 -0.62388499574E+02  0.91115223573E+02  0.12205561550E+03  0.12700000000E+01 0. -1.
         -4    1    3    3    0  501 -0.47613693362E+02 -0.43897540152E+02 -0.40560365011E+02  0.76425217938E+02  0.12700000000E+01 0. -1.
          2    1    1    2  502    0  0.50780629810E+01  0.39569314454E+02  0.17382827328E+03  0.17834737442E+03  0.00000000000E+00 0. -1.
          1    1    1    2  503    0  0.94513044032E+02  0.66716725272E+02 -0.27163844928E+03  0.29524783497E+03  0.00000000000E+00 0. -1.
<mgrwt>
<rscale>  0 0.68625911E+02</rscale>
<asrwt>0</asrwt>
<pdfrwt beam="2">  1        2 0.55333181E-01 0.11805124E+03</pdfrwt>
<pdfrwt beam="1">  1        1 0.48063133E-01 0.39893826E+02</pdfrwt>
<totfact> 0.10186525E+03</totfact>
</mgrwt>
</event>
<event>
 7    1  0.5277388E-004  0.5589601E+02  0.7546771E-02  0.1539753E+00
          2   -1    0    0  503    0  0.00000000000E+00  0.00000000000E+00  0.11313429702E+04  0.11313429702E+04  0.00000000000E+00 0. -1.
          1   -1    0    0  502    0 -0.00000000000E+00 -0.00000000000E+00 -0.27019691012E+04  0.27019691012E+04  0.00000000000E+00 0. -1.
         25    2    1    2    0    0 -0.49012422457E+02  0.47117080261E+02 -0.96427434351E+02  0.17188880395E+03  0.12500109608E+03 0.  0.
          4    1    3    3  501    0 -0.84809987998E+02  0.41267856216E+02 -0.97390766045E+02  0.13558150402E+03  0.12700000000E+01 0.  1.
         -4    1    3    3    0  501  0.35797565541E+02  0.58492240448E+01  0.96333169399E+00  0.36307299935E+02  0.12700000000E+01 0.  1.
          2    1    1    2  502    0  0.25921860435E+02 -0.49443616224E+02 -0.25673843813E+04  0.25679912724E+04  0.00000000000E+00 0. -1.
          1    1    1    2  503    0  0.23090562022E+02  0.23265359629E+01  0.10931856846E+04  0.10934319950E+04  0.00000000000E+00 0. -1.
<mgrwt>
<rscale>  0 0.36016733E+02</rscale>
<asrwt>0</asrwt>
<pdfrwt beam="1">  1        2 0.17405276E+00 0.23207473E+02</pdfrwt>
<pdfrwt beam="2">  1        1 0.41568755E+00 0.55896007E+02</pdfrwt>
<totfact> 0.51874081E+00</totfact>
</mgrwt>
</event>
<event>
 7    1  0.5277388E-004  0.6635615E+02  0.7546771E-02  0.1399843E+00
          2   -1    0    0  503    0  0.00000000000E+00  0.00000000000E+00  0.54440372698E+03  0.54440372698E+03  0.00000000000E+00 0. -1.
          1   -1    0    0  502    0 -0.00000000000E+00 -0.00000000000E+00 -0.37345314949E+03  0.37345314949E+03  0.00000000000E+00 0. -1.
         25    2    1    2    0    0 -0.69168932020E+02 -0.95003425200E+02  0.15194946357E+03  0.22918451778E+03  0.12500764678E+03 0.  0.
          4    1    3    3  501    0 -0.78913294251E+02 -0.23087818205E+02  0.12914497619E+03  0.15310255757E+03  0.12700000000E+01 0. -1.
         -4    1    3    3    0  501  0.97443622305E+01 -0.71915606995E+02  0.22804487378E+02  0.76081960209E+02  0.12700000000E+01 0. -1.
          2    1    1    2  502    0  0.45473414366E+02  0.47155088685E+02 -0.32957909034E+03  0.33602650281E+03  0.00000000000E+00 0. -1.
          1    1    1    2  503    0  0.23695517654E+02  0.47848336516E+02  0.34858020426E+03  0.35264585588E+03  0.00000000000E+00 0. -1.
<mgrwt>
<rscale>  0 0.59523387E+02</rscale>
<asrwt>0</asrwt>
<pdfrwt beam="1">  1        2 0.83754419E-01 0.53394203E+02</pdfrwt>
<pdfrwt beam="2">  1        1 0.57454331E-01 0.66356149E+02</pdfrwt>
<totfact> 0.53276698E+02</totfact>
</mgrwt>
</event>
<event>
 7    1  0.5277388E-004  0.1059737E+03  0.7546771E-02  0.1291780E+00
          2   -1    0    0  503    0  0.00000000000E+00  0.00000000000E+00  0.10649338468E+04  0.10649338468E+04  0.00000000000E+00 0. -1.
         -2   -1    0    0    0  501 -0.00000000000E+00 -0.00000000000E+00 -0.21259624940E+03  0.21259624940E+03  0.00000000000E+00 0.  1.
         25    2    1    2    0    0  0.18254461569E+02 -0.96513147086E+02 -0.41589387636E+02  0.16433024769E+03  0.12500696067E+03 0.  0.
          4    1    3    3  502    0  0.39199463808E+02 -0.11626073451E+03 -0.52581939815E+02  0.13349018558E+03  0.12700000000E+01 0.  1.
         -4    1    3    3    0  502 -0.20945002239E+02  0.19747587422E+02  0.10992552179E+02  0.30840062114E+02  0.12700000000E+01 0.  1.
          1    1    1    2  503    0 -0.91988482180E+02  0.54864279858E+02  0.98385911464E+03  0.98967203028E+03  0.00000000000E+00 0. -1.
         -1    1    1    2    0  501  0.73734020610E+02  0.41648867227E+02 -0.89932129615E+02  0.12352781822E+03  0.00000000000E+00 0.  1.
<mgrwt>
<rscale>  0 0.94732493E+02</rscale>
<asrwt>0</asrwt>
<pdfrwt beam="1">  1        2 0.16383597E+00 0.10597367E+03</pdfrwt>
<pdfrwt beam="2">  1       -2 0.32707116E-01 0.84683729E+02</pdfrwt>
<totfact> 0.21817693E+02</totfact>
</mgrwt>
</event>
<event>
 7    1  0.5277388E-004  0.1003285E+03  0.7546771E-02  0.1402604E+00
          1   -1    0    0  502    0 -0.00000000000E+00  0.00000000000E+00  0.67265510121E+03  0.67265510121E+03  0.00000000000E+00 0. -1.
          2   -1    0    0  503    0  0.00000000000E+00 -0.00000000000E+00 -0.19577063075E+03  0.19577063075E+03  0.00000000000E+00 0. -1.
         25    2    1    2    0    0  0.84040864836E+02  0.15375827796E+02 -0.12615243414E+03  0.19707468510E+03  0.12499884729E+03 0.  0.
          4    1    3    3  501    0  0.84679245693E+02  0.57927112567E+02 -0.11273241009E+03  0.15243468833E+03  0.12700000000E+01 0.  1.
         -4    1    3    3    0  501 -0.63838085697E+00 -0.42551284771E+02 -0.13420024044E+02  0.44639996764E+02  0.12700000000E+01 0.  1.
          2    1    1    2  502    0 -0.99625678298E+02  0.15461868592E+02  0.62322933369E+03  0.63133125024E+03  0.00000000000E+00 0. -1.
          1    1    1    2  503    0  0.15584813462E+02 -0.30837696387E+02 -0.20192429091E+02  0.40019796623E+02  0.00000000000E+00 0. -1.
<mgrwt>
<rscale>  0 0.58877531E+02</rscale>
<asrwt>0</asrwt>
<pdfrwt beam="2">  1        2 0.30118559E-01 0.34552133E+02</pdfrwt>
<pdfrwt beam="1">  1        1 0.10348540E+00 0.10032850E+03</pdfrwt>
<totfact> 0.70316263E+02</totfact>
</mgrwt>
</event>
<event>
 7    1  0.5277388E-004  0.1117646E+03  0.7546771E-02  0.1368872E+00
         -1   -1    0    0    0  502 -0.00000000000E+00  0.00000000000E+00  0.12113671631E+03  0.12113671631E+03  0.00000000000E+00 0.  1.
         -2   -1    0    0    0  501  0.00000000000E+00 -0.00000000000E+00 -0.42134830692E+03  0.42134830692E+03  0.00000000000E+00 0.  1.
         25    2    1    2    0    0 -0.44348278732E+01 -0.10632194125E+03 -0.32407787716E+02  0.16732457346E+03  0.12499290096E+03 0.  0.
          4    1    3    3  503    0 -0.14243086287E+01 -0.98766393463E+02 -0.74945895323E+02  0.12399729537E+03  0.12700000000E+01 0. -1.
         -4    1    3    3    0  503 -0.30105192445E+01 -0.75555477857E+01  0.42538107607E+02  0.43327278096E+02  0.12700000000E+01 0. -1.
         -2    1    1    2    0  502  0.40724914102E+02 -0.12588914949E+01  0.33771581412E+02  0.52920914084E+02  0.00000000000E+00 0.  1.
         -1    1    1    2    0  501 -0.36290086229E+02  0.10758083274E+03 -0.30157538431E+03  0.32223953568E+03  0.00000000000E+00 0.  1.
<mgrwt>
<rscale>  0 0.67481685E+02</rscale>
<asrwt>0</asrwt>
<pdfrwt beam="2">  1       -2 0.64822817E-01 0.11176460E+03</pdfrwt>
<pdfrwt beam="1">  1       -1 0.18636418E-01 0.40744367E+02</pdfrwt>
<totfact> 0.35410090E+02</totfact>
</mgrwt>
</event>
<event>
 7    1  0.5277388E-004  0.1989234E+03  0.7546771E-02  0.1233994E+00
          1   -1    0    0  502    0 -0.00000000000E+00  0.00000000000E+00  0.69327621343E+03  0.69327621343E+03  0.00000000000E+00 0. -1.
          2   -1    0    0  503    0  0.00000000000E+00 -0.00000000000E+00 -0.10736398375E+04  0.10736398375E+04  0.00000000000E+00 0. -1.
         25    2    1    2    0    0  0.12090520678E+03 -0.65734108560E+02 -0.26839088619E+03  0.32649232175E+03  0.12499810526E+03 0.  0.
          4    1    3    3  501    0  0.69549033442E+02 -0.64132218826E+01 -0.30922487605E+02  0.76393786445E+02  0.12700000000E+01 0. -1.
         -4    1    3    3    0  501  0.51356173338E+02 -0.59320886678E+02 -0.23746839859E+03  0.25009853531E+03  0.12700000000E+01 0. -1.
          2    1    1    2  502    0 -0.19742516441E+03  0.44475511212E+02  0.64669002061E+03  0.67761548787E+03  0.00000000000E+00 0. -1.
          1    1    1    2  503    0  0.76519957633E+02  0.21258597349E+02 -0.75866275848E+03  0.76280824129E+03  0.00000000000E+00 0. -1.
<mgrwt>
<rscale>  0 0.12569057E+03</rscale>
<asrwt>0</asrwt>
<pdfrwt beam="2">  1        2 0.16517536E+00 0.79418083E+02</pdfrwt>
<pdfrwt beam="1">  1        1 0.10665788E+00 0.19892345E+03</pdfrwt>
<totfact> 0.10073340E+02</totfact>
</mgrwt>
</event>
<event>
 7    1  0.5277388E-004  0.5375353E+02  0.7546771E-02  0.1455477E+00
          2   -1    0    0  503    0  0.00000000000E+00  0.00000000000E+00  0.22365709973E+04  0.22365709973E+04  0.00000000000E+00 0. -1.
         -2   -1    0    0    0  501 -0.00000000000E+00 -0.00000000000E+00 -0.17906327956E+03  0.17906327956E+03  0.00000000000E+00 0.  1.
         25    2    1    2    0    0  0.40550886195E+01 -0.21279729675E+02  0.62194558480E+03  0.63475261066E+03  0.12500118258E+03 0.  0.
          4    1    3    3  502    0  0.62812951417E+02 -0.31122224556E+01  0.25228942161E+03  0.26001291881E+03  0.12700000000E+01 0. -1.
         -4    1    3    3    0  502 -0.58757862797E+02 -0.18167507220E+02  0.36965616320E+03  0.37473969185E+03  0.12700000000E+01 0. -1.
          1    1    1    2  503    0 -0.45261448826E+02  0.34132231877E+02  0.16050159371E+04  0.16060167391E+04  0.00000000000E+00 0. -1.
         -1    1    1    2    0  501  0.41206360206E+02 -0.12852502202E+02 -0.16945380423E+03  0.17486492702E+03  0.00000000000E+00 0.  1.
<mgrwt>
<rscale>  0 0.48168763E+02</rscale>
<asrwt>0</asrwt>
<pdfrwt beam="1">  1        2 0.34408783E+00 0.53753527E+02</pdfrwt>
<pdfrwt beam="2">  1       -2 0.27548198E-01 0.43164232E+02</pdfrwt>
<totfact> 0.77786617E+01</totfact>
</mgrwt>
</event>
<event>
 7    1  0.5277388E-004  0.1286708E+03  0.7546771E-02  0.1325659E+00
         -2   -1    0    0    0  501 -0.00000000000E+00  0.00000000000E+00  0.82382009135E+03  0.82382009135E+03  0.00000000000E+00 0.  1.
          2   -1    0    0  503    0  0.00000000000E+00 -0.00000000000E+00 -0.16253340844E+03  0.16253340844E+03  0.00000000000E+00 0. -1.
         25    2    1    2    0    0 -0.14391377112E+03 -0.12749103621E+02  0.22642200448E+02  0.19235871398E+03  0.12496196399E+03 0.  0.
          4    1    3    3  502    0 -0.89729864019E+02  0.45753495006E+02  0.43814603138E+02  0.10984608846E+03  0.12700000000E+01 0. -1.
         -4    1    3    3    0  502 -0.54183907100E+02 -0.58502598627E+02 -0.21172402690E+02  0.82512625521E+02  0.12700000000E+01 0. -1.
          1    1    1    2  503    0  0.20403723575E+02  0.47015961435E+02 -0.62729534364E+02  0.81004981618E+02  0.00000000000E+00 0. -1.
         -1    1    1    2    0  501  0.12351004754E+03 -0.34266857814E+02  0.70137401683E+03  0.71298980418E+03  0.00000000000E+00 0.  1.
<mgrwt>
<rscale>  0 0.81207721E+02</rscale>
<asrwt>0</asrwt>
<pdfrwt beam="2">  1        2 0.25005140E-01 0.51252440E+02</pdfrwt>
<pdfrwt beam="1">  1       -2 0.12674155E+00 0.12867083E+03</pdfrwt>
<totfact> 0.10337796E+02</totfact>
</mgrwt>
</event>
<event>
 7    1  0.5277388E-004  0.3992765E+02  0.7546771E-02  0.1530020E+00
          2   -1    0    0  503    0  0.00000000000E+00  0.00000000000E+00  0.11520117677E+04  0.11520117677E+04  0.00000000000E+00 0. -1.
         -2   -1    0    0    0  501 -0.00000000000E+00 -0.00000000000E+00 -0.14707387272E+03  0.14707387272E+03  0.00000000000E+00 0.  1.
         25    2    1    2    0    0  0.18278170688E+02 -0.14540430922E+01  0.97354513090E+02  0.15949460764E+03  0.12499769150E+03 0.  0.
          4    1    3    3  502    0  0.44128305391E+02 -0.18820019521E+02  0.11433724936E+03  0.12400048372E+03  0.12700000000E+01 0.  1.
         -4    1    3    3    0  502 -0.25850134703E+02  0.17365976428E+02 -0.16982736270E+02  0.35494123918E+02  0.12700000000E+01 0.  1.
          1    1    1    2  503    0 -0.17989245199E+02  0.36081669846E+02  0.10205959882E+04  0.10213920261E+04  0.00000000000E+00 0. -1.
         -3    1    1    2    0  501 -0.28892548859E+00 -0.34627626754E+02 -0.11301260628E+03  0.11819900672E+03  0.00000000000E+00 0.  1.
<mgrwt>
<rscale>  0 0.37183972E+02</rscale>
<asrwt>0</asrwt>
<pdfrwt beam="1">  1        2 0.17723257E+00 0.39927646E+02</pdfrwt>
<pdfrwt beam="2">  1       -2 0.22626750E-01 0.34628832E+02</pdfrwt>
<totfact> 0.38008524E+02</totfact>
</mgrwt>
</event>
<event>
 7    1  0.5277388E-004  0.1460642E+03  0.7546771E-02  0.1269798E+00
          1   -1    0    0  502    0 -0.00000000000E+00  0.00000000000E+00  0.40700985500E+03  0.40700985500E+03  0.00000000000E+00 0. -1.
          2   -1    0    0  503    0  0.00000000000E+00 -0.00000000000E+00 -0.49641498601E+03  0.49641498601E+03  0.00000000000E+00 0. -1.
         25    2    1    2    0    0 -0.32838567408E+02  0.14240229915E+03 -0.89656530160E+02  0.21218013344E+03  0.12500131724E+03 0.  0.
          4    1    3    3  501    0 -0.23204585066E+02  0.14040808563E+03 -0.22249380490E+02  0.14404697536E+03  0.12700000000E+01 0.  1.
         -4    1    3    3    0  501 -0.96339823424E+01  0.19942135248E+01 -0.67407149671E+02  0.68133158081E+02  0.12700000000E+01 0.  1.
          2    1    1    2  502    0 -0.42872535082E+02 -0.14157908606E+03  0.32537370553E+03  0.35742235538E+03  0.00000000000E+00 0. -1.
          1    1    1    2  503    0  0.75711102490E+02 -0.82321309143E+00 -0.32512230637E+03  0.33382235219E+03  0.00000000000E+00 0. -1.
<mgrwt>
<rscale>  0 0.10516338E+03</rscale>
<asrwt>0</asrwt>
<pdfrwt beam="2">  1        2 0.76371537E-01 0.75715578E+02</pdfrwt>
<pdfrwt beam="1">  1        1 0.62616901E-01 0.14606421E+03</pdfrwt>
<totfact> 0.52108722E+02</totfact>
</mgrwt>
</event>
<event>
 7    1  0.5277388E-004  0.3277525E+03  0.7546771E-02  0.1289836E+00
          1   -1    0    0  502    0 -0.00000000000E+00  0.00000000000E+00  0.64050281669E+03  0.64050281669E+03  0.00000000000E+00 0. -1.
          2   -1    0    0  503    0  0.00000000000E+00 -0.00000000000E+00 -0.65803561129E+03  0.65803561129E+03  0.00000000000E+00 0. -1.
         25    2    1    2    0    0 -0.29789533143E+03 -0.10338914373E+03  0.57734919507E+02  0.34407751080E+03  0.12500027593E+03 0.  0.
          4    1    3    3  501    0 -0.21490675325E+03 -0.49584337431E+02 -0.15355309765E+02  0.22109029276E+03  0.12700000000E+01 0. -1.
         -4    1    3    3    0  501 -0.82988578171E+02 -0.53804806303E+02  0.73090229272E+02  0.12298721805E+03  0.12700000000E+01 0. -1.
          2    1    1    2  502    0 -0.21921079889E+02  0.17232473520E+02  0.38577215465E+03  0.38677855058E+03  0.00000000000E+00 0. -1.
          1    1    1    2  503    0  0.31981641131E+03  0.86156670214E+02 -0.46103986875E+03  0.56768236660E+03  0.00000000000E+00 0. -1.
<mgrwt>
<rscale>  0 0.95597590E+02</rscale>
<asrwt>0</asrwt>
<pdfrwt beam="2">  1        2 0.10123625E+00 0.32775245E+03</pdfrwt>
<pdfrwt beam="1">  1        1 0.98538895E-01 0.27883542E+02</pdfrwt>
<totfact> 0.21464067E+02</totfact>
</mgrwt>
</event>
<event>
 7    1  0.5277388E-004  0.6924421E+02  0.7546771E-02  0.1423317E+00
          2   -1    0    0  503    0  0.00000000000E+00  0.00000000000E+00  0.71785802941E+03  0.71785802941E+03  0.00000000000E+00 0. -1.
          1   -1    0    0  502    0 -0.00000000000E+00 -0.00000000000E+00 -0.34796565290E+02  0.34796565290E+02  0.00000000000E+00 0. -1.
         25    2    1    2    0    0 -0.74827174366E+02 -0.27455916055E+02  0.24391695569E+03  0.28543431938E+03  0.12499734421E+03 0.  0.
          4    1    3    3  501    0 -0.51101227166E+02  0.19442184926E+02  0.24713061560E+02  0.60014017398E+02  0.12700000000E+01 0.  1.
         -4    1    3    3    0  501 -0.23725947200E+02 -0.46898100981E+02  0.21920389413E+03  0.22542030198E+03  0.12700000000E+01 0.  1.
          2    1    1    2  502    0  0.67168000670E+02 -0.14470749292E+02  0.79575878537E+02  0.10513450121E+03  0.00000000000E+00 0. -1.
          1    1    1    2  503    0  0.76591736960E+01  0.41926665347E+02  0.35956862989E+03  0.36208577411E+03  0.00000000000E+00 0. -1.
<mgrwt>
<rscale>  0 0.54325168E+02</rscale>
<asrwt>0</asrwt>
<pdfrwt beam="1">  1        2 0.11043969E+00 0.42620514E+02</pdfrwt>
<pdfrwt beam="2">  1        1 0.53533182E-02 0.69244212E+02</pdfrwt>
<totfact> 0.78673411E+03</totfact>
</mgrwt>
</event>
<event>
 7    1  0.5277388E-004  0.9343799E+02  0.7546771E-02  0.1342139E+00
          1   -1    0    0  502    0 -0.00000000000E+00  0.00000000000E+00  0.11898545547E+04  0.11898545547E+04  0.00000000000E+00 0. -1.
          2   -1    0    0  503    0  0.00000000000E+00 -0.00000000000E+00 -0.30587059205E+03  0.30587059205E+03  0.00000000000E+00 0. -1.
         25    2    1    2    0    0  0.77348343831E+02  0.11852934769E+03  0.76409045767E+03  0.78707741275E+03  0.12499861440E+03 0.  0.
          4    1    3    3  501    0  0.16101648016E+02  0.41535345396E+02  0.53152159148E+02  0.69362907293E+02  0.12700000000E+01 0.  1.
         -4    1    3    3    0  501  0.61246695815E+02  0.76994002289E+02  0.71093829852E+03  0.71771450545E+03  0.12700000000E+01 0.  1.
          2    1    1    2  502    0 -0.54086734567E+02 -0.28435437996E+02  0.40456566584E+03  0.40915440480E+03  0.00000000000E+00 0. -1.
          1    1    1    2  503    0 -0.23261609264E+02 -0.90093909690E+02 -0.28467216089E+03  0.29949332916E+03  0.00000000000E+00 0. -1.
<mgrwt>
<rscale>  0 0.75562068E+02</rscale>
<asrwt>0</asrwt>
<pdfrwt beam="2">  1        2 0.47057015E-01 0.93437989E+02</pdfrwt>
<pdfrwt beam="1">  1        1 0.18305454E+00 0.61106047E+02</pdfrwt>
<totfact> 0.18991347E+02</totfact>
</mgrwt>
</event>
<event>
 7    1  0.5277388E-004  0.2802408E+03  0.7546771E-02  0.1205514E+00
          1   -1    0    0  502    0 -0.00000000000E+00  0.00000000000E+00  0.18609379299E+03  0.18609379299E+03  0.00000000000E+00 0. -1.
          2   -1    0    0  503    0  0.00000000000E+00 -0.00000000000E+00 -0.14020465167E+04  0.14020465167E+04  0.00000000000E+00 0. -1.
         25    2    1    2    0    0  0.29009908595E+03  0.10605099619E+03 -0.79351783083E+03  0.86064127783E+03  0.12501427040E+03 0.  0.
          4    1    3    3  501    0  0.69132374736E+01 -0.40625616692E+01  0.25897035444E+01  0.85215447033E+01  0.12700000000E+01 0. -1.
         -4    1    3    3    0  501  0.28318584848E+03  0.11011355786E+03 -0.79610753437E+03  0.85211973313E+03  0.12700000000E+01 0. -1.
          2    1    1    2  502    0 -0.23058644893E+03 -0.15337014746E+03  0.20871704168E+02  0.27771953586E+03  0.00000000000E+00 0. -1.
          1    1    1    2  503    0 -0.59512637023E+02  0.47319151267E+02 -0.44330659706E+03  0.44977949602E+03  0.00000000000E+00 0. -1.
<mgrwt>
<rscale>  0 0.14597004E+03</rscale>
<asrwt>0</asrwt>
<pdfrwt beam="2">  1        2 0.21569946E+00 0.76031941E+02</pdfrwt>
<pdfrwt beam="1">  1        1 0.28629815E-01 0.28024082E+03</pdfrwt>
<totfact> 0.37097550E+02</totfact>
</mgrwt>
</event>
<event>
 7    1  0.5277388E-004  0.7145103E+02  0.7546771E-02  0.1375980E+00
         -2   -1    0    0    0  501 -0.00000000000E+00  0.00000000000E+00  0.48126851041E+02  0.48126851041E+02  0.00000000000E+00 0.  1.
          2   -1    0    0  503    0  0.00000000000E+00 -0.00000000000E+00 -0.32115051916E+04  0.32115051916E+04  0.00000000000E+00 0. -1.
         25    2    1    2    0    0 -0.38690374484E+02 -0.59669050210E+02 -0.31100118489E+03  0.34264517723E+03  0.12500655921E+03 0.  0.
          4    1    3    3  502    0  0.10664698130E+02  0.15097828661E+02  0.47945801557E+00  0.18534373377E+02  0.12700000000E+01 0. -1.
         -4    1    3    3    0  502 -0.49355072614E+02 -0.74766878871E+02 -0.31148064290E+03  0.32411080385E+03  0.12700000000E+01 0. -1.
          1    1    1    2  503    0 -0.34918327751E+02  0.48920250604E+02 -0.28411139821E+04  0.28417496617E+04  0.00000000000E+00 0. -1.
         -1    1    1    2    0  501  0.73608702235E+02  0.10748799607E+02 -0.11263173532E+02  0.75237203668E+02  0.00000000000E+00 0.  1.
<mgrwt>
<rscale>  0 0.65532333E+02</rscale>
<asrwt>0</asrwt>
<pdfrwt beam="2">  1        2 0.49407788E+00 0.60103914E+02</pdfrwt>
<pdfrwt beam="1">  1       -2 0.74041286E-02 0.71451031E+02</pdfrwt>
<totfact> 0.19385750E+02</totfact>
</mgrwt>
</event>
<event>
 7    1  0.5277388E-004  0.1500023E+03  0.7546771E-02  0.1245390E+00
          1   -1    0    0  502    0 -0.00000000000E+00  0.00000000000E+00  0.10068496853E+04  0.10068496853E+04  0.00000000000E+00 0. -1.
          2   -1    0    0  503    0  0.00000000000E+00 -0.00000000000E+00 -0.15585118409E+04  0.15585118409E+04  0.00000000000E+00 0. -1.
         25    2    1    2    0    0  0.46892241974E+02  0.13318260092E+03 -0.34074429626E+03  0.38944659861E+03  0.12500196074E+03 0.  0.
          4    1    3    3  501    0  0.31557130594E+02  0.15672938226E+03 -0.27821748097E+03  0.32088398429E+03  0.12700000000E+01 0. -1.
         -4    1    3    3    0  501  0.15335111380E+02 -0.23546781337E+02 -0.62526815287E+02  0.68562614320E+02  0.12700000000E+01 0. -1.
          2    1    1    2  502    0 -0.12590450395E+03 -0.82622677680E+02  0.97486476583E+03  0.98642777872E+03  0.00000000000E+00 0. -1.
          1    1    1    2  503    0  0.79012261980E+02 -0.50559923243E+02 -0.11857826251E+04  0.11894871489E+04  0.00000000000E+00 0. -1.
<mgrwt>
<rscale>  0 0.11862063E+03</rscale>
<asrwt>0</asrwt>
<pdfrwt beam="2">  1        2 0.23977105E+00 0.93804282E+02</pdfrwt>
<pdfrwt beam="1">  1        1 0.15489995E+00 0.15000225E+03</pdfrwt>
<totfact> 0.31281288E+01</totfact>
</mgrwt>
</event>
<event>
 7    1  0.5277388E-004  0.7429662E+02  0.7546771E-02  0.1415698E+00
          1   -1    0    0  502    0 -0.00000000000E+00  0.00000000000E+00  0.28102038832E+02  0.28102038832E+02  0.00000000000E+00 0. -1.
          2   -1    0    0  503    0  0.00000000000E+00 -0.00000000000E+00 -0.24992539357E+04  0.24992539357E+04  0.00000000000E+00 0. -1.
         25    2    1    2    0    0 -0.45375249101E+02 -0.88803442205E+02 -0.36535356936E+03  0.39880607989E+03  0.12497237347E+03 0.  0.
          4    1    3    3  501    0 -0.23967301882E+02 -0.25978375253E+02 -0.31101084388E+03  0.31301543964E+03  0.12700000000E+01 0. -1.
         -4    1    3    3    0  501 -0.21407947219E+02 -0.62825066952E+02 -0.54342725479E+02  0.85790640248E+02  0.12700000000E+01 0. -1.
          2    1    1    2  502    0 -0.10403644390E+02  0.40816232511E+02 -0.30637763919E+02  0.52085249648E+02  0.00000000000E+00 0. -1.
          1    1    1    2  503    0  0.55778893491E+02  0.47987209695E+02 -0.20751605636E+04  0.20764646450E+04  0.00000000000E+00 0. -1.
<mgrwt>
<rscale>  0 0.55941642E+02</rscale>
<asrwt>0</asrwt>
<pdfrwt beam="2">  1        2 0.38450057E+00 0.74296620E+02</pdfrwt>
<pdfrwt beam="1">  1        1 0.43233910E-02 0.42121261E+02</pdfrwt>
<totfact> 0.10960721E+03</totfact>
</mgrwt>
</event>
<event>
 7    1  0.5277388E-004  0.3523307E+02  0.7546771E-02  0.1578352E+00
          1   -1    0    0  502    0 -0.00000000000E+00  0.00000000000E+00  0.84821191933E+03  0.84821191933E+03  0.00000000000E+00 0. -1.
          2   -1    0    0  503    0  0.00000000000E+00 -0.00000000000E+00 -0.23008620794E+03  0.23008620794E+03  0.00000000000E+00 0. -1.
         25    2    1    2    0    0  0.68280978074E+00 -0.24105383822E+02  0.37485278170E+03  0.39587934046E+03  0.12499723394E+03 0.  0.
          4    1    3    3  501    0  0.51171557244E+01  0.51267650491E+02  0.16437525147E+03  0.17226547381E+03  0.12700000000E+01 0. -1.
         -4    1    3    3    0  501 -0.44343459436E+01 -0.75373034314E+02  0.21047753023E+03  0.22361386665E+03  0.12700000000E+01 0. -1.
          2    1    1    2  502    0  0.28126924039E+02  0.23439145690E+02  0.46117165132E+03  0.46262275062E+03  0.00000000000E+00 0. -1.
          1    1    1    2  503    0 -0.28809733819E+02  0.66623813260E+00 -0.21789872164E+03  0.21979603620E+03  0.00000000000E+00 0. -1.
<mgrwt>
<rscale>  0 0.31864192E+02</rscale>
<asrwt>0</asrwt>
<pdfrwt beam="2">  1        2 0.35397879E-01 0.28817436E+02</pdfrwt>
<pdfrwt beam="1">  1        1 0.13049414E+00 0.35233069E+02</pdfrwt>
<totfact> 0.44809067E+02</totfact>
</mgrwt>
</event>
<event>
 7    1  0.5277388E-004  0.8812237E+02  0.7546771E-02  0.1405285E+00
         -2   -1    0    0    0  501  0.00000000000E+00  0.00000000000E+00  0.50246488848E+03  0.50246488848E+03  0.00000000000E+00 0.  1.
         -3   -1    0    0    0  502 -0.00000000000E+00 -0.00000000000E+00 -0.99744108157E+02  0.99744108157E+02  0.00000000000E+00 0.  1.
         25    2    1    2    0    0 -0.95559192817E+02  0.24555183886E+01  0.80357707649E+02  0.17669207776E+03  0.12500056105E+03 0.  0.
          4    1    3    3  503    0 -0.61791394620E+02 -0.49470025242E+02  0.52619008031E+01  0.79339525752E+02  0.12700000000E+01 0. -1.
         -4    1    3    3    0  503 -0.33767798197E+02  0.51925543630E+02  0.75095806846E+02  0.97352552007E+02  0.12700000000E+01 0. -1.
         -2    1    1    2    0  502  0.79366070666E+02 -0.37402639416E+02 -0.12343155710E+02  0.88601828994E+02  0.00000000000E+00 0.  1.
         -1    1    1    2    0  501  0.16193122151E+02  0.34947121027E+02  0.33470622839E+03  0.33691508989E+03  0.00000000000E+00 0.  1.
<mgrwt>
<rscale>  0 0.58259443E+02</rscale>
<asrwt>0</asrwt>
<pdfrwt beam="1">  1       -2 0.77302289E-01 0.38516470E+02</pdfrwt>
<pdfrwt beam="2">  1       -3 0.15345248E-01 0.88122372E+02</pdfrwt>
<totfact> 0.21045829E+02</totfact>
</mgrwt>
</event>
<event>
 7    1  0.5277388E-004  0.5918724E+02  0.7546771E-02  0.1486148E+00
          2   -1    0    0  503    0  0.00000000000E+00  0.00000000000E+00  0.45418278882E+03  0.45418278882E+03  0.00000000000E+00 0. -1.
         -2   -1    0    0    0  501 -0.00000000000E+00 -0.00000000000E+00 -0.45657135084E+03  0.45657135084E+03  0.00000000000E+00 0.  1.
         25    2    1    2    0    0  0.54234319368E+02  0.20555285234E+02 -0.27640973783E+02  0.14054494742E+03  0.12499991066E+03 0.  0.
          4    1    3    3  502    0  0.66399729454E+02  0.26484677170E+02  0.32750918556E+02  0.78642213617E+02  0.12700000000E+01 0. -1.
         -4    1    3    3    0  502 -0.12165410086E+02 -0.59293919352E+01 -0.60391892340E+02  0.61902733798E+02  0.12700000000E+01 0. -1.
          1    1    1    2  503    0 -0.17373998093E+02  0.26247640860E+02  0.39471810011E+03  0.39597117700E+03  0.00000000000E+00 0. -1.
         -3    1    1    2    0  501 -0.36860321275E+02 -0.46802926094E+02 -0.36946568836E+03  0.37423801524E+03  0.00000000000E+00 0.  1.
<mgrwt>
<rscale>  0 0.43162834E+02</rscale>
<asrwt>0</asrwt>
<pdfrwt beam="1">  1        2 0.69874275E-01 0.31476888E+02</pdfrwt>
<pdfrwt beam="2">  1       -2 0.70241746E-01 0.59187245E+02</pdfrwt>
<totfact> 0.13810924E+02</totfact>
</mgrwt>
</event>
<event>
 7    1  0.5277388E-004  0.7821737E+02  0.7546771E-02  0.1369173E+00
         -2   -1    0    0    0  501 -0.00000000000E+00  0.00000000000E+00  0.24113256656E+03  0.24113256656E+03  0.00000000000E+00 0.  1.
          2   -1    0    0  503    0  0.00000000000E+00 -0.00000000000E+00 -0.13011121491E+04  0.13011121491E+04  0.00000000000E+00 0. -1.
         25    2    1    2    0    0  0.89414143914E+02 -0.81595821607E+02 -0.24241337829E+03  0.29840010619E+03  0.12500244064E+03 0.  0.
          4    1    3    3  502    0 -0.19616270897E+02 -0.49219175010E+02 -0.12063727381E+03  0.13176604269E+03  0.12700000000E+01 0.  1.
         -4    1    3    3    0  502  0.10903041481E+03 -0.32376646597E+02 -0.12177610448E+03  0.16663406350E+03  0.12700000000E+01 0.  1.
          1    1    1    2  503    0 -0.16551878546E+02  0.55665805595E+02 -0.10228388268E+04  0.10244861699E+04  0.00000000000E+00 0. -1.
         -1    1    1    2    0  501 -0.72862265368E+02  0.25930016012E+02  0.20527262257E+03  0.21935843959E+03  0.00000000000E+00 0.  1.
<mgrwt>
<rscale>  0 0.67397582E+02</rscale>
<asrwt>0</asrwt>
<pdfrwt beam="2">  1        2 0.20017110E+00 0.58074492E+02</pdfrwt>
<pdfrwt beam="1">  1       -2 0.37097318E-01 0.78217370E+02</pdfrwt>
<totfact> 0.13390880E+02</totfact>
</mgrwt>
</event>
<event>
 7    1  0.5277388E-004  0.6704391E+02  0.7546771E-02  0.1525115E+00
          2   -1    0    0  503    0  0.00000000000E+00  0.00000000000E+00  0.19294851797E+03  0.19294851797E+03  0.00000000000E+00 0. -1.
          1   -1    0    0  502    0 -0.00000000000E+00 -0.00000000000E+00 -0.67590594211E+03  0.67590594211E+03  0.00000000000E+00 0. -1.
         25    2    1    2    0    0 -0.49530152122E+02  0.20310964985E+02 -0.10978823396E+03  0.17476970196E+03  0.12500088456E+03 0.  0.
          4    1    3    3  501    0 -0.64778394638E+02  0.38722978254E+02 -0.14937562624E+02  0.76944480854E+02  0.12700000000E+01 0. -1.
         -4    1    3    3    0  501  0.15248242515E+02 -0.18412013269E+02 -0.94850671333E+02  0.97825221107E+02  0.12700000000E+01 0. -1.
          2    1    1    2  502    0  0.67483978837E+02 -0.88437355748E+01 -0.53073705431E+03  0.53508328312E+03  0.00000000000E+00 0. -1.
          1    1    1    2  503    0 -0.17953826714E+02 -0.11467229410E+02  0.15756786413E+03  0.15900147499E+03  0.00000000000E+00 0. -1.
<mgrwt>
<rscale>  0 0.37792419E+02</rscale>
<asrwt>0</asrwt>
<pdfrwt beam="1">  1        2 0.29684387E-01 0.21303456E+02</pdfrwt>
<pdfrwt beam="2">  1        1 0.10398553E+00 0.67043908E+02</pdfrwt>
<totfact> 0.70693134E+02</totfact>
</mgrwt>
</event>
<event>
 7    1  0.5277388E-004  0.7030292E+02  0.7546771E-02  0.1500791E+00
          2   -1    0    0  503    0  0.00000000000E+00  0.00000000000E+00  0.16895629913E+04  0.16895629913E+04  0.00000000000E+00 0. -1.
         -2   -1    0    0    0  501 -0.00000000000E+00 -0.00000000000E+00 -0.12289774773E+04  0.12289774773E+04  0.00000000000E+00 0.  1.
         25    2    1    2    0    0 -0.27944807285E+02 -0.55051484321E+02 -0.65104055439E+02  0.15386749072E+03  0.12500035394E+03 0.  0.
          4    1    3    3  502    0 -0.54460137019E+02 -0.60047246563E+02  0.24510351187E+01  0.81112260584E+02  0.12700000000E+01 0.  1.
         -4    1    3    3    0  502  0.26515329734E+02  0.49957622422E+01 -0.67555090558E+02  0.72755230132E+02  0.12700000000E+01 0.  1.
          1    1    1    2  503    0  0.18704264040E+02 -0.14944998002E+02  0.16439808197E+04  0.16441551442E+04  0.00000000000E+00 0. -1.
         -3    1    1    2    0  501  0.92405432455E+01  0.69996482323E+02 -0.11182912503E+04  0.11205178337E+04  0.00000000000E+00 0.  1.
<mgrwt>
<rscale>  0 0.41026426E+02</rscale>
<asrwt>0</asrwt>
<pdfrwt beam="1">  1        2 0.25993277E+00 0.23941647E+02</pdfrwt>
<pdfrwt beam="2">  1       -2 0.18907346E+00 0.70302916E+02</pdfrwt>
<totfact> 0.25609356E+00</totfact>
</mgrwt>
</event>
<event>
 7    1  0.5277388E-004  0.4472025E+02  0.7546771E-02  0.1580905E+00
          1   -1    0    0  502    0 -0.00000000000E+00  0.00000000000E+00  0.18075998888E+03  0.18075998888E+03  0.00000000000E+00 0. -1.
          2   -1    0    0  503    0  0.00000000000E+00 -0.00000000000E+00 -0.27803591568E+04  0.27803591568E+04  0.00000000000E+00 0. -1.
         25    2    1    2    0    0  0.45501142760E+02  0.29928131972E+02 -0.80888039585E+03  0.82029175043E+03  0.12500005579E+03 0.  0.
          4    1    3    3  501    0  0.29705137424E+02  0.73191646314E+02 -0.33555484399E+03  0.34472899284E+03  0.12700000000E+01 0. -1.
         -4    1    3    3    0  501  0.15796005336E+02 -0.43263514342E+02 -0.47332555186E+03  0.47556275759E+03  0.12700000000E+01 0. -1.
          2    1    1    2  502    0 -0.16837102661E+01 -0.22285127246E+02  0.17408829395E+03  0.17551693897E+03  0.00000000000E+00 0. -1.
          1    1    1    2  503    0 -0.43817432494E+02 -0.76430047259E+01 -0.19648070660E+04  0.19653104563E+04  0.00000000000E+00 0. -1.
<mgrwt>
<rscale>  0 0.31613871E+02</rscale>
<asrwt>0</asrwt>
<pdfrwt beam="2">  1        2 0.42774754E+00 0.44720249E+02</pdfrwt>
<pdfrwt beam="1">  1        1 0.27809231E-01 0.22348641E+02</pdfrwt>
<totfact> 0.78278639E+01</totfact>
</mgrwt>
</event>
<event>
 7    1  0.5277388E-004  0.9350115E+02  0.7546771E-02  0.1316417E+00
         -2   -1    0    0    0  501 -0.00000000000E+00  0.00000000000E+00  0.47688409229E+03  0.47688409229E+03  0.00000000000E+00 0.  1.
          2   -1    0    0  503    0  0.00000000000E+00 -0.00000000000E+00 -0.11261198161E+04  0.11261198161E+04  0.00000000000E+00 0. -1.
         25    2    1    2    0    0  0.12020219247E+03 -0.10169785585E+03  0.17150467571E+03  0.26425246712E+03  0.12499796650E+03 0.  0.
          4    1    3    3  502    0  0.12691439603E+03 -0.68529620491E+02  0.17868236694E+03  0.22963574190E+03  0.12700000000E+01 0.  1.
         -4    1    3    3    0  502 -0.67122035599E+01 -0.33168235360E+02 -0.71776912297E+01  0.34616725219E+02  0.12700000000E+01 0.  1.
          3    1    1    2  503    0 -0.46337490396E+02  0.60983240124E+02 -0.10714761989E+04  0.10742101113E+04  0.00000000000E+00 0. -1.
         -1    1    1    2    0  501 -0.73864702070E+02  0.40714615727E+02  0.25073579936E+03  0.26454132991E+03  0.00000000000E+00 0.  1.
<mgrwt>
<rscale>  0 0.84624513E+02</rscale>
<asrwt>0</asrwt>
<pdfrwt beam="2">  1        2 0.17324920E+00 0.76590591E+02</pdfrwt>
<pdfrwt beam="1">  1       -2 0.73366784E-01 0.93501148E+02</pdfrwt>
<totfact> 0.42234817E+01</totfact>
</mgrwt>
</event>
<event>
 7    1  0.5277388E-004  0.8796918E+02  0.7546771E-02  0.1350153E+00
          1   -1    0    0  502    0 -0.00000000000E+00  0.00000000000E+00  0.15886331014E+03  0.15886331014E+03  0.00000000000E+00 0. -1.
          2   -1    0    0  503    0  0.00000000000E+00 -0.00000000000E+00 -0.74347212229E+03  0.74347212229E+03  0.00000000000E+00 0. -1.
         25    2    1    2    0    0  0.50023216082E+02  0.16129471353E+02 -0.11998026792E+03  0.18105948949E+03  0.12499916820E+03 0.  0.
          4    1    3    3  501    0  0.26616145312E+02 -0.53814384773E+02 -0.39447726704E+02  0.71848056632E+02  0.12700000000E+01 0.  1.
         -4    1    3    3    0  501  0.23407070770E+02  0.69943856125E+02 -0.80532541218E+02  0.10921143286E+03  0.12700000000E+01 0.  1.
          2    1    1    2  502    0  0.38268853906E+02 -0.46976887078E+02  0.11722251329E+03  0.13195624548E+03  0.00000000000E+00 0. -1.
          1    1    1    2  503    0 -0.88292069988E+02  0.30847415725E+02 -0.58185105752E+03  0.58931969746E+03  0.00000000000E+00 0. -1.
<mgrwt>
<rscale>  0 0.73008127E+02</rscale>
<asrwt>0</asrwt>
<pdfrwt beam="2">  1        2 0.11438033E+00 0.87969175E+02</pdfrwt>
<pdfrwt beam="1">  1        1 0.24440509E-01 0.60591527E+02</pdfrwt>
<totfact> 0.10423250E+03</totfact>
</mgrwt>
</event>
<event>
 7    1  0.5277388E-004  0.1106830E+03  0.7546771E-02  0.1347411E+00
          2   -1    0    0  503    0  0.00000000000E+00  0.00000000000E+00  0.12558547454E+04  0.12558547454E+04  0.00000000000E+00 0. -1.
         -2   -1    0    0    0  501 -0.00000000000E+00 -0.00000000000E+00 -0.63703889274E+03  0.63703889274E+03  0.00000000000E+00 0.  1.
         25    2    1    2    0    0  0.72399052371E+01  0.71689929089E+02  0.31473575599E+02  0.14767404072E+03  0.12500069672E+03 0.  0.
          4    1    3    3  502    0 -0.51911804537E+02  0.66965896979E+02  0.22205427887E+02  0.87601145747E+02  0.12700000000E+01 0.  1.
         -4    1    3    3    0  502  0.59151709775E+02  0.47240321093E+01  0.92681477120E+01  0.60072894975E+02  0.12700000000E+01 0.  1.
          1    1    1    2  503    0  0.36998907723E+02  0.32580431687E+02  0.11602124186E+04  0.11612593422E+04  0.00000000000E+00 0. -1.
         -1    1    1    2    0  501 -0.44238812960E+02 -0.10427036078E+03 -0.57287014147E+03  0.58396025524E+03  0.00000000000E+00 0.  1.
<mgrwt>
<rscale>  0 0.73868624E+02</rscale>
<asrwt>0</asrwt>
<pdfrwt beam="1">  1        2 0.19320842E+00 0.49299125E+02</pdfrwt>
<pdfrwt beam="2">  1       -2 0.98005984E-01 0.11068297E+03</pdfrwt>
<totfact> 0.19508748E+01</totfact>
</mgrwt>
</event>
<event>
 7    1  0.5277388E-004  0.5209123E+02  0.7546771E-02  0.1466102E+00
         -2   -1    0    0    0  501 -0.00000000000E+00  0.00000000000E+00  0.31605123078E+02  0.31605123078E+02  0.00000000000E+00 0.  1.
          2   -1    0    0  503    0  0.00000000000E+00 -0.00000000000E+00 -0.72344816669E+03  0.72344816669E+03  0.00000000000E+00 0. -1.
         25    2    1    2    0    0 -0.48824242764E+02 -0.61823082049E+02 -0.37486443584E+03  0.40293282750E+03  0.12500247221E+03 0.  0.
          4    1    3    3  502    0  0.20152873199E+01 -0.14407956410E+02  0.59894593456E+01  0.15784077868E+02  0.12700000000E+01 0. -1.
         -4    1    3    3    0  502 -0.50839530084E+02 -0.47415125639E+02 -0.38085389519E+03  0.38714874963E+03  0.12700000000E+01 0. -1.
          1    1    1    2  503    0  0.98638124379E+01  0.48311776562E+02 -0.30530787390E+03  0.30926399793E+03  0.00000000000E+00 0. -1.
         -1    1    1    2    0  501  0.38960430326E+02  0.13511305487E+02 -0.11670733875E+02  0.42856464347E+02  0.00000000000E+00 0.  1.
<mgrwt>
<rscale>  0 0.46347315E+02</rscale>
<asrwt>0</asrwt>
<pdfrwt beam="2">  1        2 0.11129972E+00 0.52091229E+02</pdfrwt>
<pdfrwt beam="1">  1       -2 0.48623263E-02 0.41236762E+02</pdfrwt>
<totfact> 0.72113997E+03</totfact>
</mgrwt>
</event>
<event>
 7    1  0.5277388E-004  0.3475638E+02  0.7546771E-02  0.1553309E+00
          2   -1    0    0  503    0  0.00000000000E+00  0.00000000000E+00  0.92938883337E+02  0.92938883337E+02  0.00000000000E+00 0. -1.
         -2   -1    0    0    0  501 -0.00000000000E+00 -0.00000000000E+00 -0.18602887054E+03  0.18602887054E+03  0.00000000000E+00 0.  1.
         25    2    1    2    0    0 -0.15842036772E+02 -0.36167947500E+01 -0.12552330348E+03  0.17789069994E+03  0.12499980029E+03 0.  0.
          4    1    3    3  502    0 -0.46744744717E+02 -0.19022622569E+01 -0.13706444460E+03  0.14483426609E+03  0.12700000000E+01 0. -1.
         -4    1    3    3    0  502  0.30902707945E+02 -0.17145324930E+01  0.11541141122E+02  0.33056433843E+02  0.12700000000E+01 0. -1.
          3    1    1    2  503    0 -0.34520908911E+02  0.40389008184E+01  0.36682668056E+02  0.50533394974E+02  0.00000000000E+00 0. -1.
         -3    1    1    2    0  501  0.50362945683E+02 -0.42210606841E+00 -0.42493517803E+01  0.50543658969E+02  0.00000000000E+00 0.  1.
<mgrwt>
<rscale>  0 0.34475400E+02</rscale>
<asrwt>0</asrwt>
<pdfrwt beam="1">  1        2 0.14298290E-01 0.34756379E+02</pdfrwt>
<pdfrwt beam="2">  1       -2 0.28619826E-01 0.34196694E+02</pdfrwt>
<totfact> 0.39183586E+03</totfact>
</mgrwt>
</event>
<event>
 7    1  0.5277388E-004  0.6765336E+02  0.7546771E-02  0.1448116E+00
         -1   -1    0    0    0  501 -0.00000000000E+00  0.00000000000E+00  0.31866383112E+03  0.31866383112E+03  0.00000000000E+00 0.  1.
          1   -1    0    0  503    0  0.00000000000E+00 -0.00000000000E+00 -0.32253440648E+03  0.32253440648E+03  0.00000000000E+00 0. -1.
         25    2    1    2    0    0  0.83213867604E+02  0.60578097258E+02 -0.13869663422E+03  0.21320170515E+03  0.12499582835E+03 0.  0.
          4    1    3    3  502    0  0.10199933008E+03  0.11730409058E+02 -0.60744306209E+02  0.11930192567E+03  0.12700000000E+01 0.  1.
         -4    1    3    3    0  502 -0.18785462471E+02  0.48847688200E+02 -0.77952328012E+02  0.93899779474E+02  0.12700000000E+01 0.  1.
          2    1    1    2  503    0 -0.27770983511E+02 -0.23224140266E+02 -0.14028422290E+03  0.14488012773E+03  0.00000000000E+00 0. -1.
         -2    1    1    2    0  501 -0.55442884093E+02 -0.37353956993E+02  0.27511028176E+03  0.28311640473E+03  0.00000000000E+00 0.  1.
<mgrwt>
<rscale>  0 0.49489295E+02</rscale>
<asrwt>0</asrwt>
<pdfrwt beam="2">  1        1 0.49620678E-01 0.36202047E+02</pdfrwt>
<pdfrwt beam="1">  1       -1 0.49025205E-01 0.67653365E+02</pdfrwt>
<totfact> 0.34773680E+02</totfact>
</mgrwt>
</event>
<event>
 7    1  0.5277388E-004  0.1073473E+03  0.7546771E-02  0.1304077E+00
          1   -1    0    0  503    0  0.00000000000E+00  0.00000000000E+00  0.47725395999E+02  0.47725395999E+02  0.00000000000E+00 0. -1.
         -1   -1    0    0    0  501 -0.00000000000E+00 -0.00000000000E+00 -0.75139327341E+03  0.75139327341E+03  0.00000000000E+00 0.  1.
         25    2    1    2    0    0  0.20267047544E+01  0.15056463504E+03 -0.31212394836E+03  0.36840429654E+03  0.12500619870E+03 0.  0.
          4    1    3    3  502    0 -0.50771547542E+02  0.11246831410E+03 -0.15363679149E+03  0.19706026570E+03  0.12700000000E+01 0. -1.
         -4    1    3    3    0  502  0.52798252296E+02  0.38096320940E+02 -0.15848715687E+03  0.17134403084E+03  0.12700000000E+01 0. -1.
          2    1    1    2  503    0  0.33861655732E+02 -0.85149496886E+02 -0.13222083860E+03  0.16087075157E+03  0.00000000000E+00 0. -1.
         -2    1    1    2    0  501 -0.35888360487E+02 -0.65415138150E+02 -0.25932309045E+03  0.26984362130E+03  0.00000000000E+00 0.  1.
<mgrwt>
<rscale>  0 0.89495882E+02</rscale>
<asrwt>0</asrwt>
<pdfrwt beam="1">  1        1 0.73423685E-02 0.10734727E+03</pdfrwt>
<pdfrwt beam="2">  1       -1 0.11559897E+00 0.74613100E+02</pdfrwt>
<totfact> 0.70935052E+02</totfact>
</mgrwt>
</event>
<event>
 7    1  0.5277388E-004  0.1031037E+03  0.7546771E-02  0.1338482E+00
          2   -1    0    0  503    0  0.00000000000E+00  0.00000000000E+00  0.16898283189E+04  0.16898283189E+04  0.00000000000E+00 0. -1.
         -2   -1    0    0    0  501 -0.00000000000E+00 -0.00000000000E+00 -0.14143102295E+03  0.14143102295E+03  0.00000000000E+00 0.  1.
         25    2    1    2    0    0 -0.44341528829E+02  0.56401126833E+02  0.11368031952E+03  0.18356623935E+03  0.12500436350E+03 0.  0.
          4    1    3    3  502    0  0.26612398200E+02  0.64230284899E+02  0.75345969645E+02  0.10252988480E+03  0.12700000000E+01 0. -1.
         -4    1    3    3    0  502 -0.70953927029E+02 -0.78291580657E+01  0.38334349877E+02  0.81036354541E+02  0.12700000000E+01 0. -1.
          1    1    1    2  503    0  0.98304465428E+02 -0.37555789260E+02  0.15315970384E+04  0.15352080294E+04  0.00000000000E+00 0. -1.
         -1    1    1    2    0  501 -0.53962936599E+02 -0.18845337573E+02 -0.96880061998E+02  0.11248507318E+03  0.00000000000E+00 0.  1.
<mgrwt>
<rscale>  0 0.76767829E+02</rscale>
<asrwt>0</asrwt>
<pdfrwt beam="1">  1        2 0.25997357E+00 0.10310371E+03</pdfrwt>
<pdfrwt beam="2">  1       -2 0.21758620E-01 0.57158947E+02</pdfrwt>
<totfact> 0.20475278E+02</totfact>
</mgrwt>
</event>
<event>
 7    1  0.5277388E-004  0.6253227E+02  0.7546771E-02  0.1435011E+00
          1   -1    0    0  502    0 -0.00000000000E+00  0.00000000000E+00  0.61308989010E+03  0.61308989010E+03  0.00000000000E+00 0. -1.
          2   -1    0    0  503    0  0.00000000000E+00 -0.00000000000E+00 -0.83538444037E+03  0.83538444037E+03  0.00000000000E+00 0. -1.
         25    2    1    2    0    0  0.12741957324E+02 -0.64205224380E+02 -0.24824155013E+02  0.14326788851E+03  0.12499912357E+03 0.  0.
          4    1    3    3  501    0 -0.33436477652E+02 -0.73617343647E+02 -0.44362922789E+02  0.92234446612E+02  0.12700000000E+01 0.  1.
         -4    1    3    3    0  501  0.46178434977E+02  0.94121192662E+01  0.19538767776E+02  0.51033441901E+02  0.12700000000E+01 0.  1.
          2    1    1    2  502    0 -0.42281151764E+02  0.87987185712E+01  0.55171088202E+03  0.55339860009E+03  0.00000000000E+00 0. -1.
          1    1    1    2  503    0  0.29539194440E+02  0.55406505809E+02 -0.74918127727E+03  0.75180784188E+03  0.00000000000E+00 0. -1.
<mgrwt>
<rscale>  0 0.51967088E+02</rscale>
<asrwt>0</asrwt>
<pdfrwt beam="2">  1        2 0.12852068E+00 0.62532266E+02</pdfrwt>
<pdfrwt beam="1">  1        1 0.94321522E-01 0.43186957E+02</pdfrwt>
<totfact> 0.17697619E+02</totfact>
</mgrwt>
</event>
<event>
 7    1  0.5277388E-004  0.3439067E+02  0.7546771E-02  0.1587498E+00
         -2   -1    0    0    0  501 -0.00000000000E+00  0.00000000000E+00  0.10727204421E+02  0.10727204421E+02  0.00000000000E+00 0.  1.
          2   -1    0    0  503    0  0.00000000000E+00 -0.00000000000E+00 -0.20836110271E+04  0.20836110271E+04  0.00000000000E+00 0. -1.
         25    2    1    2    0    0  0.49857833188E+01 -0.43525076050E+02 -0.46987263262E+03  0.48817807650E+03  0.12497300992E+03 0.  0.
          4    1    3    3  502    0  0.56368894825E+02 -0.51972682810E+02 -0.22137710998E+03  0.23428198776E+03  0.12700000000E+01 0. -1.
         -4    1    3    3    0  502 -0.51383111506E+02  0.84476067602E+01 -0.24849552263E+03  0.25389608874E+03  0.12700000000E+01 0. -1.
          3    1    1    2  503    0  0.19015563465E+02  0.20427401095E+02 -0.14113492605E+04  0.14116251646E+04  0.00000000000E+00 0. -1.
         -3    1    1    2    0  501 -0.24001346784E+02  0.23097674955E+02 -0.19166192960E+03  0.19453499041E+03  0.00000000000E+00 0.  1.
<mgrwt>
<rscale>  0 0.30980371E+02</rscale>
<asrwt>0</asrwt>
<pdfrwt beam="2">  1        2 0.32055571E+00 0.27908249E+02</pdfrwt>
<pdfrwt beam="1">  1       -2 0.16503383E-02 0.34390671E+02</pdfrwt>
<totfact> 0.66794746E+03</totfact>
</mgrwt>
</event>
<event>
 7    1  0.5277388E-004  0.1100146E+03  0.7546771E-02  0.1373622E+00
         -1   -1    0    0    0  501 -0.00000000000E+00  0.00000000000E+00  0.81290603940E+02  0.81290603940E+02  0.00000000000E+00 0.  1.
          1   -1    0    0  503    0  0.00000000000E+00 -0.00000000000E+00 -0.40017494699E+03  0.40017494699E+03  0.00000000000E+00 0. -1.
         25    2    1    2    0    0  0.36932171584E+01  0.12215905457E+03 -0.27082049961E+03  0.32234381631E+03  0.12500127375E+03 0.  0.
          4    1    3    3  502    0  0.96265464779E+01  0.37864359866E+01  0.11878458272E+02  0.15802473398E+02  0.12700000000E+01 0. -1.
         -4    1    3    3    0  502 -0.59333293195E+01  0.11837261858E+03 -0.28269895789E+03  0.30654134291E+03  0.12700000000E+01 0. -1.
          2    1    1    2  503    0  0.26211599537E+02 -0.95896943836E+02 -0.61754095198E+02  0.11703349974E+03  0.00000000000E+00 0. -1.
         -2    1    1    2    0  501 -0.29904816696E+02 -0.26262110730E+02  0.13690251765E+02  0.42088234876E+02  0.00000000000E+00 0.  1.
<mgrwt>
<rscale>  0 0.66170405E+02</rscale>
<asrwt>0</asrwt>
<pdfrwt beam="2">  1        1 0.61565374E-01 0.11001464E+03</pdfrwt>
<pdfrwt beam="1">  1       -1 0.12506247E-01 0.39799454E+02</pdfrwt>
<totfact> 0.23553260E+03</totfact>
</mgrwt>
</event>
<event>
 7    1  0.5277388E-004  0.1007940E+03  0.7546771E-02  0.1355225E+00
          2   -1    0    0  503    0  0.00000000000E+00  0.00000000000E+00  0.54216806256E+03  0.54216806256E+03  0.00000000000E+00 0. -1.
          1   -1    0    0  502    0 -0.00000000000E+00 -0.00000000000E+00 -0.15370328136E+04  0.15370328136E+04  0.00000000000E+00 0. -1.
         25    2    1    2    0    0  0.12531313617E+03  0.44336063606E+02 -0.12831688998E+03  0.22306822079E+03  0.12500055297E+03 0.  0.
          4    1    3    3  501    0  0.11981626142E+03  0.80292424363E+02 -0.88974362668E+02  0.16947229869E+03  0.12700000000E+01 0. -1.
         -4    1    3    3    0  501  0.54968747438E+01 -0.35956360757E+02 -0.39342527311E+02  0.53595922102E+02  0.12700000000E+01 0. -1.
          2    1    1    2  502    0 -0.99821163421E+02 -0.56723003741E+00 -0.13582074922E+04  0.13618708376E+04  0.00000000000E+00 0. -1.
          1    1    1    2  503    0 -0.25491972747E+02 -0.43768833569E+02  0.49165963121E+03  0.49426181770E+03  0.00000000000E+00 0. -1.
<mgrwt>
<rscale>  0 0.71451693E+02</rscale>
<asrwt>0</asrwt>
<pdfrwt beam="1">  1        2 0.83410472E-01 0.50651273E+02</pdfrwt>
<pdfrwt beam="2">  1        1 0.23646658E+00 0.10079400E+03</pdfrwt>
<totfact> 0.59549024E+01</totfact>
</mgrwt>
</event>
<event>
 7    1  0.5277388E-004  0.7620344E+02  0.7546771E-02  0.1466209E+00
          2   -1    0    0  503    0  0.00000000000E+00  0.00000000000E+00  0.18753053701E+04  0.18753053701E+04  0.00000000000E+00 0. -1.
          1   -1    0    0  502    0 -0.00000000000E+00 -0.00000000000E+00 -0.65857032300E+03  0.65857032300E+03  0.00000000000E+00 0. -1.
         25    2    1    2    0    0  0.50751607355E+02 -0.11758453432E+02 -0.13518450228E+03  0.19134863157E+03  0.12500184907E+03 0.  0.
          4    1    3    3  501    0 -0.53841018857E+01  0.50533470449E+02 -0.41612479887E+02  0.65694988934E+02  0.12700000000E+01 0. -1.
         -4    1    3    3    0  501  0.56135709241E+02 -0.62291923881E+02 -0.93572022396E+02  0.12565364264E+03  0.12700000000E+01 0. -1.
          2    1    1    2  502    0 -0.73887310434E+02  0.27824286323E+02 -0.49204920140E+03  0.49834319716E+03  0.00000000000E+00 0. -1.
          1    1    1    2  503    0  0.23135703079E+02 -0.16065832891E+02  0.18439687508E+04  0.18441838644E+04  0.00000000000E+00 0. -1.
<mgrwt>
<rscale>  0 0.46329377E+02</rscale>
<asrwt>0</asrwt>
<pdfrwt beam="1">  1        2 0.28850852E+00 0.28166855E+02</pdfrwt>
<pdfrwt beam="2">  1        1 0.10131851E+00 0.76203438E+02</pdfrwt>
<totfact> 0.48660138E+01</totfact>
</mgrwt>
</event>
<event>
 7    1  0.5277388E-004  0.6990782E+02  0.7546771E-02  0.1362752E+00
          2   -1    0    0  503    0  0.00000000000E+00  0.00000000000E+00  0.18863652140E+03  0.18863652140E+03  0.00000000000E+00 0. -1.
          1   -1    0    0  502    0 -0.00000000000E+00 -0.00000000000E+00 -0.13712795118E+04  0.13712795118E+04  0.00000000000E+00 0. -1.
         25    2    1    2    0    0  0.21613826768E+02 -0.32183579359E+02 -0.18763499909E+03  0.22875641621E+03  0.12497865731E+03 0.  0.
          4    1    3    3  501    0  0.61594468774E+02  0.92719475913E+01 -0.51139080975E+02  0.80601898852E+02  0.12700000000E+01 0. -1.
         -4    1    3    3    0  501 -0.39980642006E+02 -0.41455526950E+02 -0.13649591812E+03  0.14815451736E+03  0.12700000000E+01 0. -1.
          2    1    1    2  502    0  0.40810020779E+02  0.60501737955E+02 -0.11548949374E+04  0.11571984421E+04  0.00000000000E+00 0. -1.
          1    1    1    2  503    0 -0.62423847547E+02 -0.28318158596E+02  0.15988694605E+03  0.17396117489E+03  0.00000000000E+00 0. -1.
<mgrwt>
<rscale>  0 0.69223933E+02</rscale>
<asrwt>0</asrwt>
<pdfrwt beam="1">  1        2 0.29021004E-01 0.68546735E+02</pdfrwt>
<pdfrwt beam="2">  1        1 0.21096607E+00 0.69907822E+02</pdfrwt>
<totfact> 0.23635109E+02</totfact>
</mgrwt>
</event>
<event>
 7    1  0.5277388E-004  0.6632272E+02  0.7546771E-02  0.1376716E+00
          1   -1    0    0  502    0 -0.00000000000E+00  0.00000000000E+00  0.50162503381E+03  0.50162503381E+03  0.00000000000E+00 0. -1.
          2   -1    0    0  503    0  0.00000000000E+00 -0.00000000000E+00 -0.15521864076E+04  0.15521864076E+04  0.00000000000E+00 0. -1.
         25    2    1    2    0    0 -0.76114171000E+02 -0.17104730667E+02 -0.62764434987E+02  0.16015743953E+03  0.12500036920E+03 0.  0.
          4    1    3    3  501    0 -0.54390896968E+02  0.35334759195E+02 -0.77923617446E+02  0.10139338211E+03  0.12700000000E+01 0. -1.
         -4    1    3    3    0  501 -0.21723274032E+02 -0.52439489862E+02  0.15159182459E+02  0.58764057420E+02  0.12700000000E+01 0. -1.
          2    1    1    2  502    0  0.47746133223E+02 -0.43159788347E+02  0.44986707178E+03  0.45444784391E+03  0.00000000000E+00 0. -1.
          1    1    1    2  503    0  0.28368037777E+02  0.60264519013E+02 -0.14376640106E+04  0.14392061580E+04  0.00000000000E+00 0. -1.
<mgrwt>
<rscale>  0 0.65334981E+02</rscale>
<asrwt>0</asrwt>
<pdfrwt beam="2">  1        2 0.23879790E+00 0.66322723E+02</pdfrwt>
<pdfrwt beam="1">  1        1 0.77173084E-01 0.64361950E+02</pdfrwt>
<totfact> 0.91770424E+01</totfact>
</mgrwt>
</event>
<event>
 7    1  0.5277388E-004  0.1776268E+03  0.7546771E-02  0.1288458E+00
          1   -1    0    0  502    0 -0.00000000000E+00  0.00000000000E+00  0.17399727614E+03  0.17399727614E+03  0.00000000000E+00 0. -1.
          2   -1    0    0  503    0  0.00000000000E+00 -0.00000000000E+00 -0.71292041787E+03  0.71292041787E+03  0.00000000000E+00 0. -1.
         25    2    1    2    0    0 -0.12312810724E+03 -0.61681217586E+02 -0.41758422174E+03  0.45712946304E+03  0.12500264134E+03 0.  0.
          4    1    3    3  501    0 -0.82787008365E+02 -0.73726055124E+02 -0.39304778018E+03  0.40838387623E+03  0.12700000000E+01 0. -1.
         -4    1    3    3    0  501 -0.40341098872E+02  0.12044837537E+02 -0.24536441557E+02  0.48745586814E+02  0.12700000000E+01 0. -1.
          2    1    1    2  502    0  0.17469677862E+03  0.54125293289E+02  0.95814517488E+02  0.20646775438E+03  0.00000000000E+00 0. -1.
          1    1    1    2  503    0 -0.51568671387E+02  0.75559242971E+01 -0.21715343748E+03  0.22332047660E+03  0.00000000000E+00 0. -1.
<mgrwt>
<rscale>  0 0.96217373E+02</rscale>
<asrwt>0</asrwt>
<pdfrwt beam="2">  1        2 0.10968006E+00 0.52119285E+02</pdfrwt>
<pdfrwt beam="1">  1        1 0.26768812E-01 0.17762682E+03</pdfrwt>
<totfact> 0.10199490E+03</totfact>
</mgrwt>
</event>
<event>
 7    1  0.5277388E-004  0.6204718E+02  0.7546771E-02  0.1438918E+00
          1   -1    0    0  503    0  0.00000000000E+00  0.00000000000E+00  0.44341614840E+02  0.44341614840E+02  0.00000000000E+00 0. -1.
         -1   -1    0    0    0  501 -0.00000000000E+00 -0.00000000000E+00 -0.56940795114E+03  0.56940795114E+03  0.00000000000E+00 0.  1.
         25    2    1    2    0    0  0.56160732165E+02 -0.39930980112E+02 -0.10483709440E+03  0.17709042661E+03  0.12498676660E+03 0.  0.
          4    1    3    3  502    0  0.94888085558E+02 -0.15916914846E+02 -0.80259986834E+02  0.12530113865E+03  0.12700000000E+01 0.  1.
         -4    1    3    3    0  502 -0.38727353393E+02 -0.24014065267E+02 -0.24577107568E+02  0.51789287964E+02  0.12700000000E+01 0.  1.
          2    1    1    2  503    0  0.63352898896E+01  0.41789397016E+02 -0.77528119384E+02  0.88301182870E+02  0.00000000000E+00 0. -1.
         -2    1    1    2    0  501 -0.62496022055E+02 -0.18584169030E+01 -0.34270112252E+03  0.34835795650E+03  0.00000000000E+00 0.  1.
<mgrwt>
<rscale>  0 0.51210750E+02</rscale>
<asrwt>0</asrwt>
<pdfrwt beam="1">  1        1 0.68217876E-02 0.42266885E+02</pdfrwt>
<pdfrwt beam="2">  1       -1 0.87601215E-01 0.62047176E+02</pdfrwt>
<totfact> 0.13273076E+03</totfact>
</mgrwt>
</event>
<event>
 7    1  0.5277388E-004  0.1959377E+03  0.7546771E-02  0.1197011E+00
          2   -1    0    0  503    0  0.00000000000E+00  0.00000000000E+00  0.51426428433E+03  0.51426428433E+03  0.00000000000E+00 0. -1.
          1   -1    0    0  502    0 -0.00000000000E+00 -0.00000000000E+00 -0.23034360366E+03  0.23034360366E+03  0.00000000000E+00 0. -1.
         25    2    1    2    0    0  0.69232431373E+02 -0.10137110618E+03  0.19603831963E+03  0.26291713204E+03  0.12500065933E+03 0.  0.
          4    1    3    3  501    0  0.25861466269E+02  0.23731920618E+02  0.77943451210E+02  0.85491601811E+02  0.12700000000E+01 0.  1.
         -4    1    3    3    0  501  0.43370965104E+02 -0.12510302680E+03  0.11809486842E+03  0.17742553023E+03  0.12700000000E+01 0.  1.
          2    1    1    2  502    0 -0.18771331981E+03  0.11481393867E+03 -0.11354842911E+03  0.24761214974E+03  0.00000000000E+00 0. -1.
          3    1    1    2  503    0  0.11848088843E+03 -0.13442832484E+02  0.20143079014E+03  0.23407860621E+03  0.00000000000E+00 0. -1.
<mgrwt>
<rscale>  0 0.15285227E+03</rscale>
<asrwt>0</asrwt>
<pdfrwt beam="1">  1        2 0.79117582E-01 0.11924106E+03</pdfrwt>
<pdfrwt beam="2">  1        1 0.35437478E-01 0.19593768E+03</pdfrwt>
<totfact> 0.10147187E+03</totfact>
</mgrwt>
</event>
<event>
 7    1  0.5277388E-004  0.3914314E+03  0.7546771E-02  0.1173524E+00
          1   -1    0    0  502    0 -0.00000000000E+00  0.00000000000E+00  0.79668513002E+03  0.79668513002E+03  0.00000000000E+00 0. -1.
          2   -1    0    0  503    0  0.00000000000E+00 -0.00000000000E+00 -0.82170858094E+03  0.82170858094E+03  0.00000000000E+00 0. -1.
         25    2    1    2    0    0  0.32302989104E+03  0.28988718952E+02  0.30933938889E+03  0.46530085051E+03  0.12500147054E+03 0.  0.
          4    1    3    3  501    0  0.15776265456E+03 -0.39174146379E+02  0.19144859048E+03  0.25115303027E+03  0.12700000000E+01 0.  1.
         -4    1    3    3    0  501  0.16526723648E+03  0.68162865331E+02  0.11789079841E+03  0.21414782024E+03  0.12700000000E+01 0.  1.
          2    1    1    2  502    0  0.77228743184E+02 -0.69019888595E+01  0.35080584484E+03  0.35927239943E+03  0.00000000000E+00 0. -1.
          1    1    1    2  503    0 -0.40025863422E+03 -0.22086730092E+02 -0.68516868464E+03  0.79382046102E+03  0.00000000000E+00 0. -1.
<mgrwt>
<rscale>  0 0.17421321E+03</rscale>
<asrwt>0</asrwt>
<pdfrwt beam="2">  1        2 0.12641670E+00 0.39143143E+03</pdfrwt>
<pdfrwt beam="1">  1        1 0.12256694E+00 0.77536548E+02</pdfrwt>
<totfact> 0.11439317E+02</totfact>
</mgrwt>
</event>
<event>
 7    1  0.5277388E-004  0.4753042E+02  0.7546771E-02  0.1547931E+00
         -2   -1    0    0    0  501 -0.00000000000E+00  0.00000000000E+00  0.13009695932E+03  0.13009695932E+03  0.00000000000E+00 0.  1.
          2   -1    0    0  503    0  0.00000000000E+00 -0.00000000000E+00 -0.80309611192E+03  0.80309611192E+03  0.00000000000E+00 0. -1.
         25    2    1    2    0    0  0.41739553123E+02  0.38023545237E+02 -0.45498216503E+03  0.47520212611E+03  0.12498123813E+03 0.  0.
          4    1    3    3  502    0  0.73940534578E+02  0.10858782453E+02 -0.39428031010E+03  0.40130249394E+03  0.12700000000E+01 0.  1.
         -4    1    3    3    0  502 -0.32200981455E+02  0.27164762784E+02 -0.60701854925E+02  0.73899632172E+02  0.12700000000E+01 0.  1.
          3    1    1    2  503    0 -0.45264704943E+02 -0.12380424068E+02 -0.33495304390E+03  0.33822434867E+03  0.00000000000E+00 0. -1.
         -1    1    1    2    0  501  0.35251518200E+01 -0.25643121169E+02  0.11693605633E+03  0.11976659646E+03  0.00000000000E+00 0.  1.
<mgrwt>
<rscale>  0 0.35075504E+02</rscale>
<asrwt>0</asrwt>
<pdfrwt beam="2">  1        2 0.12355325E+00 0.47530416E+02</pdfrwt>
<pdfrwt beam="1">  1       -2 0.20014916E-01 0.25884288E+02</pdfrwt>
<totfact> 0.71862022E+02</totfact>
</mgrwt>
</event>
<event>
 7    1  0.5277388E-004  0.8287683E+02  0.7546771E-02  0.1375194E+00
          1   -1    0    0  502    0 -0.00000000000E+00  0.00000000000E+00  0.27258492391E+02  0.27258492391E+02  0.00000000000E+00 0. -1.
          2   -1    0    0  503    0  0.00000000000E+00 -0.00000000000E+00 -0.11009563017E+04  0.11009563017E+04  0.00000000000E+00 0. -1.
         25    2    1    2    0    0  0.12390414252E+03 -0.10000528785E+02 -0.56762033750E+03  0.59436602471E+03  0.12500350667E+03 0.  0.
          4    1    3    3  501    0  0.79071994632E+02  0.53043329694E+02 -0.25172503915E+03  0.26913395066E+03  0.12700000000E+01 0. -1.
         -4    1    3    3    0  501  0.44832147889E+02 -0.63043858479E+02 -0.31589529835E+03  0.32523207406E+03  0.12700000000E+01 0. -1.
          2    1    1    2  502    0 -0.74621129009E+02 -0.70617730788E+01 -0.10286156732E+03  0.12727404907E+03  0.00000000000E+00 0. -1.
          1    1    1    2  503    0 -0.49283013511E+02  0.17062301864E+02 -0.40321590447E+03  0.40657472029E+03  0.00000000000E+00 0. -1.
<mgrwt>
<rscale>  0 0.65744028E+02</rscale>
<asrwt>0</asrwt>
<pdfrwt beam="2">  1        2 0.16937789E+00 0.52153021E+02</pdfrwt>
<pdfrwt beam="1">  1        1 0.41936144E-02 0.82876833E+02</pdfrwt>
<totfact> 0.64807054E+03</totfact>
</mgrwt>
</event>
<event>
 7    1  0.5277388E-004  0.1059307E+03  0.7546771E-02  0.1283778E+00
         -2   -1    0    0    0  501 -0.00000000000E+00  0.00000000000E+00  0.70516937683E+03  0.70516937683E+03  0.00000000000E+00 0.  1.
          2   -1    0    0  503    0  0.00000000000E+00 -0.00000000000E+00 -0.81383586908E+03  0.81383586908E+03  0.00000000000E+00 0. -1.
         25    2    1    2    0    0 -0.14123754633E+03  0.41322585145E+01 -0.45352643052E+03  0.49119845344E+03  0.12499830972E+03 0.  0.
          4    1    3    3  502    0 -0.15653230507E+03 -0.11231464403E+02 -0.32568490992E+03  0.36152563086E+03  0.12700000000E+01 0. -1.
         -4    1    3    3    0  502  0.15294758734E+02  0.15363722917E+02 -0.12784152060E+03  0.12967282258E+03  0.12700000000E+01 0. -1.
          1    1    1    2  503    0  0.62450863088E+02  0.66647935021E+02 -0.33116833994E+03  0.34353242485E+03  0.00000000000E+00 0. -1.
         -1    1    1    2    0  501  0.78786683244E+02 -0.70780193535E+02  0.67602827821E+03  0.68427436763E+03  0.00000000000E+00 0.  1.
<mgrwt>
<rscale>  0 0.98362424E+02</rscale>
<asrwt>0</asrwt>
<pdfrwt beam="2">  1        2 0.12520552E+00 0.91334865E+02</pdfrwt>
<pdfrwt beam="1">  1       -2 0.10848760E+00 0.10593070E+03</pdfrwt>
<totfact> 0.26791474E+01</totfact>
</mgrwt>
</event>
<event>
 7    1  0.5277388E-004  0.5769459E+02  0.7546771E-02  0.1445477E+00
          2   -1    0    0  503    0  0.00000000000E+00  0.00000000000E+00  0.37526514663E+03  0.37526514663E+03  0.00000000000E+00 0. -1.
          1   -1    0    0  502    0 -0.00000000000E+00 -0.00000000000E+00 -0.10012149125E+04  0.10012149125E+04  0.00000000000E+00 0. -1.
         25    2    1    2    0    0 -0.80449419592E+01 -0.55677074987E+02  0.96640491217E+02  0.16771100993E+03  0.12499176188E+03 0.  0.
          4    1    3    3  501    0  0.16525309232E+02 -0.88713786182E+02  0.42698080188E+02  0.99839674757E+02  0.12700000000E+01 0.  1.
         -4    1    3    3    0  501 -0.24570251191E+02  0.33036711194E+02  0.53942411029E+02  0.67871335170E+02  0.12700000000E+01 0.  1.
          2    1    1    2  502    0 -0.38772819561E+02  0.19248900853E+02 -0.96156649746E+03  0.96254037877E+03  0.00000000000E+00 0. -1.
          1    1    1    2  503    0  0.46817761520E+02  0.36428174134E+02  0.23897624039E+03  0.24622867041E+03  0.00000000000E+00 0. -1.
<mgrwt>
<rscale>  0 0.49974835E+02</rscale>
<asrwt>0</asrwt>
<pdfrwt beam="1">  1        2 0.57733100E-01 0.57694595E+02</pdfrwt>
<pdfrwt beam="2">  1        1 0.15403306E+00 0.43288009E+02</pdfrwt>
<totfact> 0.21117917E+02</totfact>
</mgrwt>
</event>
<event>
 7    1  0.5277388E-004  0.3258678E+02  0.7546771E-02  0.1625188E+00
         -2   -1    0    0    0  501 -0.00000000000E+00  0.00000000000E+00  0.73814445069E+02  0.73814445069E+02  0.00000000000E+00 0.  1.
          2   -1    0    0  503    0  0.00000000000E+00 -0.00000000000E+00 -0.22038638284E+04  0.22038638284E+04  0.00000000000E+00 0. -1.
         25    2    1    2    0    0  0.39246207780E+02 -0.27915584931E+01 -0.20943587048E+03  0.24704771481E+03  0.12498452676E+03 0.  0.
          4    1    3    3  502    0 -0.19043545461E+02 -0.45300458508E+02 -0.41739619456E+02  0.64487183976E+02  0.12700000000E+01 0.  1.
         -4    1    3    3    0  502  0.58289753240E+02  0.42508900015E+02 -0.16769625102E+03  0.18256053084E+03  0.12700000000E+01 0.  1.
          1    1    1    2  503    0 -0.24696079694E+02  0.21270955108E+02 -0.19729671346E+04  0.19732363427E+04  0.00000000000E+00 0. -1.
         -1    1    1    2    0  501 -0.14550128085E+02 -0.18479396614E+02  0.52353621702E+02  0.57394216014E+02  0.00000000000E+00 0.  1.
<mgrwt>
<rscale>  0 0.27684721E+02</rscale>
<asrwt>0</asrwt>
<pdfrwt beam="2">  1        2 0.33905595E+00 0.32586780E+02</pdfrwt>
<pdfrwt beam="1">  1       -2 0.11356069E-01 0.23520083E+02</pdfrwt>
<totfact> 0.34424812E+02</totfact>
</mgrwt>
</event>
<event>
 7    1  0.5277388E-004  0.2392901E+03  0.7546771E-02  0.1126926E+00
          2   -1    0    0  503    0  0.00000000000E+00  0.00000000000E+00  0.88773585694E+03  0.88773585694E+03  0.00000000000E+00 0. -1.
          1   -1    0    0  502    0 -0.00000000000E+00 -0.00000000000E+00 -0.83463405087E+03  0.83463405087E+03  0.00000000000E+00 0. -1.
         25    2    1    2    0    0 -0.11376230316E+02  0.30632039922E+02  0.39995468914E+02  0.13524491795E+03  0.12499523916E+03 0.  0.
          4    1    3    3  501    0 -0.31765001187E+02  0.28650677629E+02  0.79748740735E+02  0.90506083651E+02  0.12700000000E+01 0.  1.
         -4    1    3    3    0  501  0.20388770871E+02  0.19813622933E+01 -0.39753271821E+02  0.44738834301E+02  0.12700000000E+01 0.  1.
          2    1    1    2  502    0  0.68721459248E+02 -0.26294926573E+03 -0.74453741891E+03  0.79259127138E+03  0.00000000000E+00 0. -1.
          1    1    1    2  503    0 -0.57345228931E+02  0.23231722581E+03  0.75764375607E+03  0.79453371848E+03  0.00000000000E+00 0. -1.
<mgrwt>
<rscale>  0 0.22959399E+03</rscale>
<asrwt>0</asrwt>
<pdfrwt beam="1">  1        2 0.13657475E+00 0.23929013E+03</pdfrwt>
<pdfrwt beam="2">  1        1 0.12840524E+00 0.22029074E+03</pdfrwt>
<totfact> 0.93190155E+01</totfact>
</mgrwt>
</event>
<event>
 7    1  0.5277388E-004  0.1246923E+03  0.7546771E-02  0.1381516E+00
          2   -1    0    0  503    0  0.00000000000E+00  0.00000000000E+00  0.59860017007E+03  0.59860017007E+03  0.00000000000E+00 0. -1.
         -2   -1    0    0    0  501 -0.00000000000E+00 -0.00000000000E+00 -0.81214069561E+03  0.81214069561E+03  0.00000000000E+00 0.  1.
         25    2    1    2    0    0  0.67979649873E+01  0.13587822929E+03  0.37249084412E+03  0.41579361012E+03  0.12500316693E+03 0.  0.
          4    1    3    3  502    0 -0.59969424592E+01  0.15375818160E+03  0.35733428861E+03  0.38905905521E+03  0.12700000000E+01 0. -1.
         -4    1    3    3    0  502  0.12794907446E+02 -0.17879952310E+02  0.15156555510E+02  0.26734554907E+02  0.12700000000E+01 0. -1.
          1    1    1    2  503    0 -0.30553063334E+02 -0.11309094668E+03  0.18729922727E+03  0.22091639241E+03  0.00000000000E+00 0. -1.
         -1    1    1    2    0  501  0.23755098347E+02 -0.22787282608E+02 -0.77333059694E+03  0.77403086315E+03  0.00000000000E+00 0.  1.
<mgrwt>
<rscale>  0 0.64066864E+02</rscale>
<asrwt>0</asrwt>
<pdfrwt beam="1">  1        2 0.92092334E-01 0.12469225E+03</pdfrwt>
<pdfrwt beam="2">  1       -2 0.12494472E+00 0.32917548E+02</pdfrwt>
<totfact> 0.28373637E+01</totfact>
</mgrwt>
</event>
<event>
 7    1  0.5277388E-004  0.6638815E+02  0.7546771E-02  0.1392812E+00
          1   -1    0    0  502    0 -0.00000000000E+00  0.00000000000E+00  0.17236764214E+04  0.17236764214E+04  0.00000000000E+00 0. -1.
          2   -1    0    0  503    0  0.00000000000E+00 -0.00000000000E+00 -0.80047393189E+02  0.80047393189E+02  0.00000000000E+00 0. -1.
         25    2    1    2    0    0  0.47541030201E+01  0.30706550000E+02  0.77541530819E+03  0.78604001882E+03  0.12499806923E+03 0.  0.
          4    1    3    3  501    0  0.30599692651E+02  0.72383447883E+02  0.52682350411E+03  0.53265403603E+03  0.12700000000E+01 0.  1.
         -4    1    3    3    0  501 -0.25845589631E+02 -0.41676897883E+02  0.24859180408E+03  0.25338598280E+03  0.12700000000E+01 0.  1.
          2    1    1    2  502    0 -0.54489180399E+02  0.14712796370E+02  0.92673859384E+03  0.92845568471E+03  0.00000000000E+00 0. -1.
          1    1    1    2  503    0  0.49735077379E+02 -0.45419346370E+02 -0.58524873819E+02  0.89228111053E+02  0.00000000000E+00 0. -1.
<mgrwt>
<rscale>  0 0.61212617E+02</rscale>
<asrwt>0</asrwt>
<pdfrwt beam="2">  1        2 0.12314985E-01 0.66388148E+02</pdfrwt>
<pdfrwt beam="1">  1        1 0.26518096E+00 0.56440563E+02</pdfrwt>
<totfact> 0.37729293E+02</totfact>
</mgrwt>
</event>
<event>
 7    1  0.5277388E-004  0.1275660E+03  0.7546771E-02  0.1257405E+00
          2   -1    0    0  503    0  0.00000000000E+00  0.00000000000E+00  0.70553484941E+02  0.70553484941E+02  0.00000000000E+00 0. -1.
          1   -1    0    0  502    0 -0.00000000000E+00 -0.00000000000E+00 -0.20235904140E+04  0.20235904140E+04  0.00000000000E+00 0. -1.
         25    2    1    2    0    0 -0.88521847418E+02 -0.89637499686E+02 -0.15124373790E+04  0.15228140510E+04  0.12499923890E+03 0.  0.
          4    1    3    3  501    0  0.22548268083E+02 -0.50529645060E+02 -0.65387737903E+03  0.65621559653E+03  0.12700000000E+01 0.  1.
         -4    1    3    3    0  501 -0.11107011550E+03 -0.39107854626E+02 -0.85855999999E+03  0.86659845450E+03  0.12700000000E+01 0.  1.
          2    1    1    2  502    0  0.15383339000E+02  0.15464677256E+03 -0.44702086483E+03  0.47326517406E+03  0.00000000000E+00 0. -1.
          1    1    1    2  503    0  0.73138508418E+02 -0.65009272875E+02  0.64213147996E+01  0.98064673848E+02  0.00000000000E+00 0. -1.
<mgrwt>
<rscale>  0 0.11172678E+03</rscale>
<asrwt>0</asrwt>
<pdfrwt beam="1">  1        2 0.10854383E-01 0.97854213E+02</pdfrwt>
<pdfrwt beam="2">  1        1 0.31132159E+00 0.12756604E+03</pdfrwt>
<totfact> 0.26452313E+02</totfact>
</mgrwt>
</event>
<event>
 7    1  0.5277388E-004  0.1035568E+03  0.7546771E-02  0.1292617E+00
          1   -1    0    0  502    0 -0.00000000000E+00  0.00000000000E+00  0.67172686674E+03  0.67172686674E+03  0.00000000000E+00 0. -1.
          2   -1    0    0  503    0  0.00000000000E+00 -0.00000000000E+00 -0.67309130960E+03  0.67309130960E+03  0.00000000000E+00 0. -1.
         25    2    1    2    0    0  0.13583556322E+03  0.60461825602E+02  0.23151648640E+02  0.19562186472E+03  0.12499993012E+03 0.  0.
          4    1    3    3  501    0  0.44788184646E+02 -0.20289784452E+02 -0.35365034830E+02  0.60580157028E+02  0.12700000000E+01 0. -1.
         -4    1    3    3    0  501  0.91047378575E+02  0.80751610054E+02  0.58516683470E+02  0.13504170769E+03  0.12700000000E+01 0. -1.
          2    1    1    2  502    0 -0.81698942864E+02  0.26809713296E+02  0.55450799798E+03  0.56113509765E+03  0.00000000000E+00 0. -1.
          1    1    1    2  503    0 -0.54136620358E+02 -0.87271538898E+02 -0.57902408948E+03  0.58806121396E+03  0.00000000000E+00 0. -1.
<mgrwt>
<rscale>  0 0.94362942E+02</rscale>
<asrwt>0</asrwt>
<pdfrwt beam="2">  1        2 0.10355251E+00 0.10355678E+03</pdfrwt>
<pdfrwt beam="1">  1        1 0.10334260E+00 0.85985336E+02</pdfrwt>
<totfact> 0.19391050E+02</totfact>
</mgrwt>
</event>
<event>
 7    1  0.5277388E-004  0.1312410E+03  0.7546771E-02  0.1243614E+00
          2   -1    0    0  503    0  0.00000000000E+00  0.00000000000E+00  0.16463296293E+03  0.16463296293E+03  0.00000000000E+00 0. -1.
          1   -1    0    0  502    0 -0.00000000000E+00 -0.00000000000E+00 -0.12983313979E+04  0.12983313979E+04  0.00000000000E+00 0. -1.
         25    2    1    2    0    0  0.13010714981E+02 -0.35559977401E+02 -0.20589738549E+03  0.24381958499E+03  0.12498186259E+03 0.  0.
          4    1    3    3  501    0  0.25651124028E+02 -0.54478607350E+01  0.79952850899E+01  0.27444431752E+02  0.12700000000E+01 0. -1.
         -4    1    3    3    0  501 -0.12640409047E+02 -0.30112116666E+02 -0.21389267058E+03  0.21637515324E+03  0.12700000000E+01 0. -1.
          2    1    1    2  502    0  0.44518131137E+02 -0.99659231659E+02 -0.10327916917E+04  0.10385434536E+04  0.00000000000E+00 0. -1.
          1    1    1    2  503    0 -0.57528846118E+02  0.13521920906E+03  0.10499064226E+03  0.18060132225E+03  0.00000000000E+00 0. -1.
<mgrwt>
<rscale>  0 0.11968717E+03</rscale>
<asrwt>0</asrwt>
<pdfrwt beam="1">  1        2 0.25328148E-01 0.13124102E+03</pdfrwt>
<pdfrwt beam="2">  1        1 0.19974329E+00 0.10915048E+03</pdfrwt>
<totfact> 0.29894253E+02</totfact>
</mgrwt>
</event>
<event>
 7    1  0.5277388E-004  0.5079948E+02  0.7546771E-02  0.1450264E+00
          1   -1    0    0  502    0 -0.00000000000E+00  0.00000000000E+00  0.41436885400E+03  0.41436885400E+03  0.00000000000E+00 0. -1.
          2   -1    0    0  503    0  0.00000000000E+00 -0.00000000000E+00 -0.82276928062E+03  0.82276928062E+03  0.00000000000E+00 0. -1.
         25    2    1    2    0    0  0.70958046676E+02 -0.38241276844E+01 -0.51643006797E+03  0.53607360493E+03  0.12500090587E+03 0.  0.
          4    1    3    3  501    0 -0.76219766738E+01 -0.67381046501E+01 -0.36759741694E+03  0.36774035735E+03  0.12700000000E+01 0. -1.
         -4    1    3    3    0  501  0.78580023350E+02  0.29139769657E+01 -0.14883265103E+03  0.16833324759E+03  0.12700000000E+01 0. -1.
          2    1    1    2  502    0 -0.35851262232E+02 -0.31091272090E+02  0.40107146886E+03  0.40386916611E+03  0.00000000000E+00 0. -1.
          1    1    1    2  503    0 -0.35106784444E+02  0.34915399774E+02 -0.29304182751E+03  0.29719536357E+03  0.00000000000E+00 0. -1.
<mgrwt>
<rscale>  0 0.49098789E+02</rscale>
<asrwt>0</asrwt>
<pdfrwt beam="2">  1        2 0.12657989E+00 0.50799481E+02</pdfrwt>
<pdfrwt beam="1">  1        1 0.63749054E-01 0.47455033E+02</pdfrwt>
<totfact> 0.29627601E+02</totfact>
</mgrwt>
</event>
<event>
 7    1  0.5277388E-004  0.9785197E+02  0.7546771E-02  0.1288718E+00
          2   -1    0    0  503    0  0.00000000000E+00  0.00000000000E+00  0.10445846024E+04  0.10445846024E+04  0.00000000000E+00 0. -1.
         -2   -1    0    0    0  501 -0.00000000000E+00 -0.00000000000E+00 -0.19892707260E+03  0.19892707260E+03  0.00000000000E+00 0.  1.
         25    2    1    2    0    0  0.51572261083E+01  0.53323934135E+01  0.19462983085E+00  0.12523036166E+03  0.12501029638E+03 0.  0.
          4    1    3    3  502    0  0.41459510927E+02  0.47095881694E+02 -0.20676137251E+02  0.66075931098E+02  0.12700000000E+01 0. -1.
         -4    1    3    3    0  502 -0.36302284818E+02 -0.41763488281E+02  0.20870767082E+02  0.59154430561E+02  0.12700000000E+01 0. -1.
          1    1    1    2  503    0 -0.60824353600E+02 -0.81546399258E+02  0.96253950737E+03  0.96790067697E+03  0.00000000000E+00 0. -1.
         -1    1    1    2    0  501  0.55667127492E+02  0.76214005844E+02 -0.11707660745E+03  0.15038063633E+03  0.00000000000E+00 0.  1.
<mgrwt>
<rscale>  0 0.96099817E+02</rscale>
<asrwt>0</asrwt>
<pdfrwt beam="1">  1        2 0.16070532E+00 0.97851965E+02</pdfrwt>
<pdfrwt beam="2">  1       -2 0.30604166E-01 0.94379043E+02</pdfrwt>
<totfact> 0.25424669E+02</totfact>
</mgrwt>
</event>
<event>
 7    1  0.5277388E-004  0.6774056E+02  0.7546771E-02  0.1408958E+00
          2   -1    0    0  503    0  0.00000000000E+00  0.00000000000E+00  0.26690905936E+03  0.26690905936E+03  0.00000000000E+00 0. -1.
          1   -1    0    0  502    0 -0.00000000000E+00 -0.00000000000E+00 -0.25946438290E+03  0.25946438290E+03  0.00000000000E+00 0. -1.
         25    2    1    2    0    0 -0.18418824270E+01 -0.26946451012E+02 -0.32561231671E+02  0.13193594489E+03  0.12496942023E+03 0.  0.
          4    1    3    3  501    0 -0.13424739516E+02 -0.25571999617E+01 -0.77927924655E+02  0.79127348266E+02  0.12700000000E+01 0. -1.
         -4    1    3    3    0  501  0.11582857089E+02 -0.24389251050E+02  0.45366692984E+02  0.52808596624E+02  0.12700000000E+01 0. -1.
          2    1    1    2  502    0 -0.35563841792E+02 -0.33246427216E+02 -0.16788389055E+03  0.17480020730E+03  0.00000000000E+00 0. -1.
          1    1    1    2  503    0  0.37405724219E+02  0.60192878228E+02  0.20788979868E+03  0.21963729007E+03  0.00000000000E+00 0. -1.
<mgrwt>
<rscale>  0 0.57427062E+02</rscale>
<asrwt>0</asrwt>
<pdfrwt beam="1">  1        2 0.41062932E-01 0.67740561E+02</pdfrwt>
<pdfrwt beam="2">  1        1 0.39917597E-01 0.48683794E+02</pdfrwt>
<totfact> 0.17311938E+03</totfact>
</mgrwt>
</event>
<event>
 7    1  0.5277388E-004  0.7413242E+02  0.7546771E-02  0.1391235E+00
          2   -1    0    0  503    0  0.00000000000E+00  0.00000000000E+00  0.10112739686E+04  0.10112739686E+04  0.00000000000E+00 0. -1.
         -2   -1    0    0    0  501 -0.00000000000E+00 -0.00000000000E+00 -0.70627974635E+03  0.70627974635E+03  0.00000000000E+00 0.  1.
         25    2    1    2    0    0  0.72402213834E+02  0.74275864538E+02  0.16853597740E+03  0.23407376263E+03  0.12500866392E+03 0.  0.
          4    1    3    3  502    0  0.66180543084E+01  0.24948680531E+02 -0.17134852380E+02  0.31007279293E+02  0.12700000000E+01 0.  1.
         -4    1    3    3    0  502  0.65784159525E+02  0.49327184008E+02  0.18567082978E+03  0.20306648334E+03  0.12700000000E+01 0.  1.
          1    1    1    2  503    0 -0.21635595884E+01 -0.51141528287E+02  0.80712599257E+03  0.80874749137E+03  0.00000000000E+00 0. -1.
         -1    1    1    2    0  501 -0.70238654245E+02 -0.23134336251E+02 -0.67066774771E+03  0.67473246096E+03  0.00000000000E+00 0.  1.
<mgrwt>
<rscale>  0 0.61600622E+02</rscale>
<asrwt>0</asrwt>
<pdfrwt beam="1">  1        2 0.15558061E+00 0.51187273E+02</pdfrwt>
<pdfrwt beam="2">  1       -2 0.10865842E+00 0.74132424E+02</pdfrwt>
<totfact> 0.21022605E+01</totfact>
</mgrwt>
</event>
<event>
 7    1  0.5277388E-004  0.5752132E+02  0.7546771E-02  0.1435779E+00
          1   -1    0    0  502    0 -0.00000000000E+00  0.00000000000E+00  0.12322419008E+04  0.12322419008E+04  0.00000000000E+00 0. -1.
          2   -1    0    0  503    0  0.00000000000E+00 -0.00000000000E+00 -0.25479903316E+03  0.25479903316E+03  0.00000000000E+00 0. -1.
         25    2    1    2    0    0 -0.52351122317E+02  0.34495437103E+02 -0.11039809075E+02  0.14027599405E+03  0.12499960773E+03 0.  0.
          4    1    3    3  501    0 -0.35827172565E+02  0.55037352935E+02  0.44120695048E+02  0.79126134391E+02  0.12700000000E+01 0. -1.
         -4    1    3    3    0  501 -0.16523949752E+02 -0.20541915832E+02 -0.55160504122E+02  0.61149859660E+02  0.12700000000E+01 0. -1.
          2    1    1    2  502    0  0.40754200644E+02  0.22760080151E+02  0.11623803143E+04  0.11633172057E+04  0.00000000000E+00 0. -1.
          1    1    1    2  503    0  0.11596921673E+02 -0.57255517254E+02 -0.17389763753E+03  0.18344773421E+03  0.00000000000E+00 0. -1.
<mgrwt>
<rscale>  0 0.51817330E+02</rscale>
<asrwt>0</asrwt>
<pdfrwt beam="2">  1        2 0.39199852E-01 0.57521316E+02</pdfrwt>
<pdfrwt beam="1">  1        1 0.18957567E+00 0.46678969E+02</pdfrwt>
<totfact> 0.21900246E+02</totfact>
</mgrwt>
</event>
<event>
 7    1  0.5277388E-004  0.5076687E+02  0.7546771E-02  0.1500522E+00
          1   -1    0    0  503    0  0.00000000000E+00  0.00000000000E+00  0.20008127089E+04  0.20008127089E+04  0.00000000000E+00 0. -1.
         -1   -1    0    0    0  501 -0.00000000000E+00 -0.00000000000E+00 -0.30216355975E+03  0.30216355975E+03  0.00000000000E+00 0.  1.
         25    2    1    2    0    0  0.24777173621E+02 -0.37353121508E+01  0.52366229197E+03  0.53895731674E+03  0.12499972937E+03 0.  0.
          4    1    3    3  502    0 -0.55339091395E+01 -0.21787091040E+01  0.50105179244E+03  0.50108869727E+03  0.12700000000E+01 0.  1.
         -4    1    3    3    0  502  0.30311082761E+02 -0.15566030468E+01  0.22610499527E+02  0.37868619463E+02  0.12700000000E+01 0.  1.
          2    1    1    2  503    0  0.12701768695E+02 -0.30691773742E+02  0.14671150829E+04  0.14674910516E+04  0.00000000000E+00 0. -1.
         -2    1    1    2    0  501 -0.37478942317E+02  0.34427085892E+02 -0.29212822578E+03  0.29652790030E+03  0.00000000000E+00 0.  1.
<mgrwt>
<rscale>  0 0.41064405E+02</rscale>
<asrwt>0</asrwt>
<pdfrwt beam="1">  1        1 0.30781733E+00 0.33216260E+02</pdfrwt>
<pdfrwt beam="2">  1       -1 0.46486703E-01 0.50766866E+02</pdfrwt>
<totfact> 0.21003587E+01</totfact>
</mgrwt>
</event>
<event>
 7    1  0.5277388E-004  0.1276161E+03  0.7546771E-02  0.1253035E+00
          1   -1    0    0  502    0 -0.00000000000E+00  0.00000000000E+00  0.27764028968E+04  0.27764028968E+04  0.00000000000E+00 0. -1.
          2   -1    0    0  503    0  0.00000000000E+00 -0.00000000000E+00 -0.32943311650E+03  0.32943311650E+03  0.00000000000E+00 0. -1.
         25    2    1    2    0    0 -0.12647937220E+03  0.51000487580E+02 -0.34150263178E+02  0.18812025406E+03  0.12499963274E+03 0.  0.
          4    1    3    3  501    0 -0.14056082154E+03  0.28555923937E+02 -0.55771022705E+02  0.15389868491E+03  0.12700000000E+01 0.  1.
         -4    1    3    3    0  501  0.14081449335E+02  0.22444563643E+02  0.21620759527E+02  0.34221569149E+02  0.12700000000E+01 0.  1.
          2    1    1    2  502    0  0.72959502975E+02  0.71484874085E+02  0.26778908042E+04  0.26798381174E+04  0.00000000000E+00 0. -1.
          1    1    1    2  503    0  0.53519869228E+02 -0.12248536167E+03 -0.19677076071E+03  0.23787764185E+03  0.00000000000E+00 0. -1.
<mgrwt>
<rscale>  0 0.11417127E+03</rscale>
<asrwt>0</asrwt>
<pdfrwt beam="2">  1        2 0.50682020E-01 0.12761607E+03</pdfrwt>
<pdfrwt beam="1">  1        1 0.42713889E+00 0.10214292E+03</pdfrwt>
<totfact> 0.16181580E+01</totfact>
</mgrwt>
</event>
<event>
 7    1  0.5277388E-004  0.5832006E+02  0.7546771E-02  0.1493494E+00
          1   -1    0    0  502    0 -0.00000000000E+00  0.00000000000E+00  0.39581263643E+03  0.39581263643E+03  0.00000000000E+00 0. -1.
          2   -1    0    0  503    0  0.00000000000E+00 -0.00000000000E+00 -0.34296053236E+03  0.34296053236E+03  0.00000000000E+00 0. -1.
         25    2    1    2    0    0  0.78675246229E+02 -0.31937529852E+02  0.73311508723E+02  0.16795544829E+03  0.12499862046E+03 0.  0.
          4    1    3    3  501    0 -0.22002197689E+02 -0.29618912260E+02 -0.88685167560E+01  0.37968936726E+02  0.12700000000E+01 0.  1.
         -4    1    3    3    0  501  0.10067744392E+03 -0.23186175918E+01  0.82180025479E+02  0.12998651157E+03  0.12700000000E+01 0.  1.
          2    1    1    2  502    0 -0.22007089036E+02  0.20901261082E+02  0.27150695897E+03  0.27319810294E+03  0.00000000000E+00 0. -1.
          1    1    1    2  503    0 -0.56668157194E+02  0.11036268770E+02 -0.29196636362E+03  0.29761961755E+03  0.00000000000E+00 0. -1.
<mgrwt>
<rscale>  0 0.42072129E+02</rscale>
<asrwt>0</asrwt>
<pdfrwt beam="2">  1        2 0.52763159E-01 0.58320061E+02</pdfrwt>
<pdfrwt beam="1">  1        1 0.60894252E-01 0.30350860E+02</pdfrwt>
<totfact> 0.80834318E+02</totfact>
</mgrwt>
</event>
<event>
 7    1  0.5277388E-004  0.3451710E+02  0.7546771E-02  0.1588471E+00
          2   -1    0    0  503    0  0.00000000000E+00  0.00000000000E+00  0.16609934255E+02  0.16609934255E+02  0.00000000000E+00 0. -1.
          1   -1    0    0  502    0 -0.00000000000E+00 -0.00000000000E+00 -0.21216437431E+04  0.21216437431E+04  0.00000000000E+00 0. -1.
         25    2    1    2    0    0  0.18840837944E+02  0.16042473020E+02 -0.32564922136E+03  0.34969468531E+03  0.12500647763E+03 0.  0.
          4    1    3    3  501    0  0.86851501845E+01 -0.16153005129E+02 -0.31312585508E+03  0.31366505292E+03  0.12700000000E+01 0. -1.
         -4    1    3    3    0  501  0.10155687759E+02  0.32195478149E+02 -0.12523366284E+02  0.36029632390E+02  0.12700000000E+01 0. -1.
          2    1    1    2  502    0 -0.34079883495E+02  0.70184961640E+01 -0.17405177522E+04  0.17408655156E+04  0.00000000000E+00 0. -1.
          1    1    1    2  503    0  0.15239045551E+02 -0.23060969184E+02 -0.38866835335E+02  0.47693476471E+02  0.00000000000E+00 0. -1.
<mgrwt>
<rscale>  0 0.30888420E+02</rscale>
<asrwt>0</asrwt>
<pdfrwt beam="1">  1        2 0.25553737E-02 0.27641216E+02</pdfrwt>
<pdfrwt beam="2">  1        1 0.32640683E+00 0.34517097E+02</pdfrwt>
<totfact> 0.14707412E+03</totfact>
</mgrwt>
</event>
<event>
 7    1  0.5277388E-004  0.1434939E+03  0.7546771E-02  0.1217818E+00
          2   -1    0    0  503    0  0.00000000000E+00  0.00000000000E+00  0.34115403337E+03  0.34115403337E+03  0.00000000000E+00 0. -1.
         -2   -1    0    0    0  501 -0.00000000000E+00 -0.00000000000E+00 -0.47751300611E+03  0.47751300611E+03  0.00000000000E+00 0.  1.
         25    2    1    2    0    0  0.65643630594E+02  0.16799415926E+03 -0.18180482315E+02  0.22020431991E+03  0.12501315446E+03 0.  0.
          4    1    3    3  502    0  0.61552730669E+02  0.33863696797E+02  0.31635321991E+02  0.77057738814E+02  0.12700000000E+01 0. -1.
         -4    1    3    3    0  502  0.40908999245E+01  0.13413046246E+03 -0.49815804306E+02  0.14314658110E+03  0.12700000000E+01 0. -1.
          1    1    1    2  503    0 -0.13344486177E+03 -0.56773798791E+02  0.20437609734E+03  0.25060004893E+03  0.00000000000E+00 0. -1.
         -3    1    1    2    0  501  0.67801231179E+02 -0.11122036046E+03 -0.32255458776E+03  0.34786267063E+03  0.00000000000E+00 0.  1.
<mgrwt>
<rscale>  0 0.13671552E+03</rscale>
<asrwt>0</asrwt>
<pdfrwt beam="1">  1        2 0.52485236E-01 0.14349389E+03</pdfrwt>
<pdfrwt beam="2">  1       -2 0.73463540E-01 0.13025734E+03</pdfrwt>
<totfact> 0.16690994E+02</totfact>
</mgrwt>
</event>
<event>
 7    1  0.5277388E-004  0.8998346E+02  0.7546771E-02  0.1467088E+00
          1   -1    0    0  503    0  0.00000000000E+00  0.00000000000E+00  0.14642168602E+03  0.14642168602E+03  0.00000000000E+00 0. -1.
         -1   -1    0    0    0  501 -0.00000000000E+00 -0.00000000000E+00 -0.10990331917E+04  0.10990331917E+04  0.00000000000E+00 0.  1.
         25    2    1    2    0    0 -0.74165825023E+02 -0.73164037295E+02 -0.49157391912E+03  0.51780422470E+03  0.12499100448E+03 0.  0.
          4    1    3    3  502    0  0.14893926310E+02  0.22613059361E+02 -0.14199198452E+03  0.14455627300E+03  0.12700000000E+01 0. -1.
         -4    1    3    3    0  502 -0.89059751333E+02 -0.95777096656E+02 -0.34958193460E+03  0.37324795170E+03  0.12700000000E+01 0. -1.
          2    1    1    2  503    0  0.74725335273E+02  0.49467634936E+02  0.11797560021E+03  0.14815250549E+03  0.00000000000E+00 0. -1.
         -2    1    1    2    0  501 -0.55951025081E+00  0.23696402359E+02 -0.57901318680E+03  0.57949814756E+03  0.00000000000E+00 0.  1.
<mgrwt>
<rscale>  0 0.46183099E+02</rscale>
<asrwt>0</asrwt>
<pdfrwt beam="1">  1        1 0.22526414E-01 0.89983464E+02</pdfrwt>
<pdfrwt beam="2">  1       -1 0.16908202E+00 0.23703007E+02</pdfrwt>
<totfact> 0.70277311E+01</totfact>
</mgrwt>
</event>
<event>
 7    1  0.5277388E-004  0.5873149E+02  0.7546771E-02  0.1418968E+00
          1   -1    0    0  502    0 -0.00000000000E+00  0.00000000000E+00  0.12628657756E+03  0.12628657756E+03  0.00000000000E+00 0. -1.
          2   -1    0    0  503    0  0.00000000000E+00 -0.00000000000E+00 -0.11118633223E+04  0.11118633223E+04  0.00000000000E+00 0. -1.
         25    2    1    2    0    0 -0.19997782202E+01  0.53409637556E+02 -0.18543628713E+03  0.22993123221E+03  0.12500066584E+03 0.  0.
          4    1    3    3  501    0 -0.62764018102E+01  0.72132077648E+02 -0.39027733009E+02  0.82263033552E+02  0.12700000000E+01 0. -1.
         -4    1    3    3    0  501  0.42766235899E+01 -0.18722440091E+02 -0.14640855413E+03  0.14766819865E+03  0.12700000000E+01 0. -1.
          2    1    1    2  502    0  0.49839211569E+02 -0.33141747902E+02  0.94614589269E+02  0.11195643334E+03  0.00000000000E+00 0. -1.
          1    1    1    2  503    0 -0.47839433348E+02 -0.20267889655E+02 -0.89475504692E+03  0.89626223435E+03  0.00000000000E+00 0. -1.
<mgrwt>
<rscale>  0 0.55239822E+02</rscale>
<asrwt>0</asrwt>
<pdfrwt beam="2">  1        2 0.17105590E+00 0.51955738E+02</pdfrwt>
<pdfrwt beam="1">  1        1 0.19428704E-01 0.58731491E+02</pdfrwt>
<totfact> 0.84659916E+02</totfact>
</mgrwt>
</event>
<event>
 7    1  0.5277388E-004  0.6948078E+02  0.7546771E-02  0.1365756E+00
          1   -1    0    0  502    0 -0.00000000000E+00  0.00000000000E+00  0.28788944610E+03  0.28788944610E+03  0.00000000000E+00 0. -1.
          2   -1    0    0  503    0  0.00000000000E+00 -0.00000000000E+00 -0.19315205412E+03  0.19315205412E+03  0.00000000000E+00 0. -1.
         25    2    1    2    0    0 -0.15432741686E+02  0.88534381969E+01  0.10725891200E+03  0.16566723672E+03  0.12499842494E+03 0.  0.
          4    1    3    3  501    0 -0.57808952228E+02  0.33445124740E+02  0.93224823074E+02  0.11468623223E+03  0.12700000000E+01 0.  1.
         -4    1    3    3    0  501  0.42376210542E+02 -0.24591686543E+02  0.14034088923E+02  0.50981004490E+02  0.12700000000E+01 0.  1.
          2    1    1    2  502    0 -0.45791329437E+02 -0.49264885625E+02  0.13488403441E+03  0.15072351358E+03  0.00000000000E+00 0. -1.
          1    1    1    2  503    0  0.61224071123E+02  0.40411447428E+02 -0.14740555443E+03  0.16465074991E+03  0.00000000000E+00 0. -1.
<mgrwt>
<rscale>  0 0.68361247E+02</rscale>
<asrwt>0</asrwt>
<pdfrwt beam="2">  1        2 0.29715701E-01 0.69480776E+02</pdfrwt>
<pdfrwt beam="1">  1        1 0.44290684E-01 0.67259756E+02</pdfrwt>
<totfact> 0.21511360E+03</totfact>
</mgrwt>
</event>
<event>
 7    1  0.5277388E-004  0.1183708E+03  0.7546771E-02  0.1298266E+00
          2   -1    0    0  503    0  0.00000000000E+00  0.00000000000E+00  0.10926069874E+03  0.10926069874E+03  0.00000000000E+00 0. -1.
          1   -1    0    0  502    0 -0.00000000000E+00 -0.00000000000E+00 -0.17243284845E+04  0.17243284845E+04  0.00000000000E+00 0. -1.
         25    2    1    2    0    0 -0.64512260779E+01 -0.54042742928E+02 -0.60156566225E+03  0.61682059529E+03  0.12499665753E+03 0.  0.
          4    1    3    3  501    0 -0.21462228466E+02 -0.69976196869E+02 -0.17503331972E+03  0.18972498858E+03  0.12700000000E+01 0.  1.
         -4    1    3    3    0  501  0.15011002388E+02  0.15933453942E+02 -0.42653234253E+03  0.42709560671E+03  0.12700000000E+01 0.  1.
          2    1    1    2  502    0 -0.39696548237E+02 -0.59324738418E+02 -0.10766673601E+04  0.10790309749E+04  0.00000000000E+00 0. -1.
          1    1    1    2  503    0  0.46147774315E+02  0.11336748135E+03  0.63165236659E+02  0.13773761296E+03  0.00000000000E+00 0. -1.
<mgrwt>
<rscale>  0 0.91920724E+02</rscale>
<asrwt>0</asrwt>
<pdfrwt beam="1">  1        2 0.16809339E-01 0.11837078E+03</pdfrwt>
<pdfrwt beam="2">  1        1 0.26528129E+00 0.71380954E+02</pdfrwt>
<totfact> 0.26318749E+02</totfact>
</mgrwt>
</event>
<event>
 7    1  0.5277388E-004  0.7605785E+02  0.7546771E-02  0.1345134E+00
          2   -1    0    0  503    0  0.00000000000E+00  0.00000000000E+00  0.16833524576E+04  0.16833524576E+04  0.00000000000E+00 0. -1.
          1   -1    0    0  502    0 -0.00000000000E+00 -0.00000000000E+00 -0.11842490688E+03  0.11842490688E+03  0.00000000000E+00 0. -1.
         25    2    1    2    0    0  0.49469157365E+02  0.22399236478E+02  0.13584433618E+03  0.19242291604E+03  0.12499588641E+03 0.  0.
          4    1    3    3  501    0  0.34854610581E+02  0.60545478251E+02  0.13445832028E+03  0.15152970537E+03  0.12700000000E+01 0.  1.
         -4    1    3    3    0  501  0.14614546785E+02 -0.38146241774E+02  0.13860159005E+01  0.40893210674E+02  0.12700000000E+01 0.  1.
          2    1    1    2  502    0  0.19646254743E+01 -0.78429248845E+02 -0.71916891982E+02  0.10642859663E+03  0.00000000000E+00 0. -1.
          1    1    1    2  503    0 -0.51433782840E+02  0.56030012367E+02  0.15010001065E+04  0.15029258518E+04  0.00000000000E+00 0. -1.
<mgrwt>
<rscale>  0 0.74593661E+02</rscale>
<asrwt>0</asrwt>
<pdfrwt beam="1">  1        2 0.25897728E+00 0.76057848E+02</pdfrwt>
<pdfrwt beam="2">  1        1 0.18219218E-01 0.73157661E+02</pdfrwt>
<totfact> 0.45755878E+02</totfact>
</mgrwt>
</event>
<event>
 7    1  0.5277388E-004  0.1369624E+03  0.7546771E-02  0.1353853E+00
          1   -1    0    0  502    0 -0.00000000000E+00  0.00000000000E+00  0.21392190605E+03  0.21392190605E+03  0.00000000000E+00 0. -1.
          2   -1    0    0  503    0  0.00000000000E+00 -0.00000000000E+00 -0.10181104737E+04  0.10181104737E+04  0.00000000000E+00 0. -1.
         25    2    1    2    0    0  0.76750215066E+02  0.15142851673E+03 -0.22489767236E+03  0.30826062727E+03  0.12499784039E+03 0.  0.
          4    1    3    3  501    0  0.42390028405E+02  0.16361134295E+03 -0.15458922203E+03  0.22905245364E+03  0.12700000000E+01 0.  1.
         -4    1    3    3    0  501  0.34360186661E+02 -0.12182826224E+02 -0.70308450328E+02  0.79208173629E+02  0.12700000000E+01 0.  1.
          2    1    1    2  502    0 -0.20771858850E+02 -0.31474976697E+02  0.16425820037E+03  0.16853160139E+03  0.00000000000E+00 0. -1.
          1    1    1    2  503    0 -0.55978356216E+02 -0.11995354003E+03 -0.74354909566E+03  0.75524015107E+03  0.00000000000E+00 0. -1.
<mgrwt>
<rscale>  0 0.71868177E+02</rscale>
<asrwt>0</asrwt>
<pdfrwt beam="2">  1        2 0.15663238E+00 0.13696242E+03</pdfrwt>
<pdfrwt beam="1">  1        1 0.32911063E-01 0.37711328E+02</pdfrwt>
<totfact> 0.47198544E+02</totfact>
</mgrwt>
</event>
<event>
 7    1  0.5277388E-004  0.6306927E+02  0.7546771E-02  0.1492313E+00
         -2   -1    0    0    0  501 -0.00000000000E+00  0.00000000000E+00  0.12054980685E+04  0.12054980685E+04  0.00000000000E+00 0.  1.
          2   -1    0    0  503    0  0.00000000000E+00 -0.00000000000E+00 -0.27875930255E+04  0.27875930255E+04  0.00000000000E+00 0. -1.
         25    2    1    2    0    0 -0.17831635073E+02  0.76284108520E+02 -0.17778645046E+04  0.17839741548E+04  0.12499742295E+03 0.  0.
          4    1    3    3  502    0  0.50034375794E+02  0.40771320848E+02 -0.56128757159E+03  0.56498769039E+03  0.12700000000E+01 0.  1.
         -4    1    3    3    0  502 -0.67866010867E+02  0.35512787672E+02 -0.12165769330E+04  0.12189864644E+04  0.12700000000E+01 0.  1.
          1    1    1    2  503    0  0.30555782618E+02 -0.51010199263E+02 -0.10056288964E+04  0.10073853153E+04  0.00000000000E+00 0. -1.
         -1    1    1    2    0  501 -0.12724147545E+02 -0.25273909257E+02  0.12013984440E+04  0.12017316238E+04  0.00000000000E+00 0.  1.
<mgrwt>
<rscale>  0 0.42244763E+02</rscale>
<asrwt>0</asrwt>
<pdfrwt beam="2">  1        2 0.42886046E+00 0.63069266E+02</pdfrwt>
<pdfrwt beam="1">  1       -2 0.18546124E+00 0.28296191E+02</pdfrwt>
<totfact> 0.71730192E-01</totfact>
</mgrwt>
</event>
<event>
 7    1  0.5277388E-004  0.1015758E+03  0.7546771E-02  0.1419549E+00
          2   -1    0    0  503    0  0.00000000000E+00  0.00000000000E+00  0.55548900726E+02  0.55548900726E+02  0.00000000000E+00 0. -1.
          1   -1    0    0  502    0 -0.00000000000E+00 -0.00000000000E+00 -0.16376697522E+04  0.16376697522E+04  0.00000000000E+00 0. -1.
         25    2    1    2    0    0  0.19817957440E+02  0.78223835450E+02 -0.28395411352E+03  0.32057493067E+03  0.12500651071E+03 0.  0.
          4    1    3    3  501    0  0.18523584970E+02  0.10875787704E+03 -0.17061564888E+03  0.20318147446E+03  0.12700000000E+01 0. -1.
         -4    1    3    3    0  501  0.12943724702E+01 -0.30534041591E+02 -0.11333846464E+03  0.11739345622E+03  0.12700000000E+01 0. -1.
          2    1    1    2  502    0 -0.45459236999E+02 -0.93616911745E+02 -0.13270157274E+04  0.13310903084E+04  0.00000000000E+00 0. -1.
          1    1    1    2  503    0  0.25641279559E+02  0.15393076295E+02  0.28848989405E+02  0.41553413878E+02  0.00000000000E+00 0. -1.
<mgrwt>
<rscale>  0 0.55116399E+02</rscale>
<asrwt>0</asrwt>
<pdfrwt beam="1">  1        2 0.85459855E-02 0.29906889E+02</pdfrwt>
<pdfrwt beam="2">  1        1 0.25194917E+00 0.10157584E+03</pdfrwt>
<totfact> 0.57900515E+02</totfact>
</mgrwt>
</event>
<event>
 7    1  0.5277388E-004  0.5111131E+02  0.7546771E-02  0.1490454E+00
         -2   -1    0    0    0  501 -0.00000000000E+00  0.00000000000E+00  0.50059897982E+02  0.50059897982E+02  0.00000000000E+00 0.  1.
          2   -1    0    0  503    0  0.00000000000E+00 -0.00000000000E+00 -0.52400993178E+03  0.52400993178E+03  0.00000000000E+00 0. -1.
         25    2    1    2    0    0 -0.46534030865E+02 -0.66599492490E+02 -0.40693134446E+03  0.43338101906E+03  0.12500032058E+03 0.  0.
          4    1    3    3  502    0 -0.56749028541E+01  0.19847349958E+02 -0.64836812669E+01  0.21674243828E+02  0.12700000000E+01 0. -1.
         -4    1    3    3    0  502 -0.40859128011E+02 -0.86446842448E+02 -0.40044766320E+03  0.41170677523E+03  0.12700000000E+01 0. -1.
          1    1    1    2  503    0  0.29318072369E+02  0.19787232165E+02 -0.81422246012E+02  0.88773115693E+02  0.00000000000E+00 0. -1.
         -1    1    1    2    0  501  0.17215958496E+02  0.46812260326E+02  0.14403556675E+02  0.51915695012E+02  0.00000000000E+00 0.  1.
<mgrwt>
<rscale>  0 0.42518712E+02</rscale>
<asrwt>0</asrwt>
<pdfrwt beam="2">  1        2 0.80616910E-01 0.35370665E+02</pdfrwt>
<pdfrwt beam="1">  1       -2 0.77015230E-02 0.51111307E+02</pdfrwt>
<totfact> 0.53733462E+03</totfact>
</mgrwt>
</event>
<event>
 7    1  0.5277388E-004  0.1609893E+03  0.7546771E-02  0.1236413E+00
          2   -1    0    0  503    0  0.00000000000E+00  0.00000000000E+00  0.23041158275E+04  0.23041158275E+04  0.00000000000E+00 0. -1.
         -2   -1    0    0    0  501 -0.00000000000E+00 -0.00000000000E+00 -0.62549342572E+02  0.62549342572E+02  0.00000000000E+00 0.  1.
         25    2    1    2    0    0 -0.55041356331E+02  0.10851271310E+03  0.36157927841E+03  0.40145930961E+03  0.12500177152E+03 0.  0.
          4    1    3    3  502    0 -0.39018108287E+02  0.74829951542E+02  0.76387356302E+02  0.11383573923E+03  0.12700000000E+01 0.  1.
         -4    1    3    3    0  502 -0.16023248044E+02  0.33682761561E+02  0.28519192211E+03  0.28762357039E+03  0.12700000000E+01 0.  1.
          1    1    1    2  503    0 -0.95623438705E+02  0.45413398456E+01  0.17063098622E+04  0.17089932158E+04  0.00000000000E+00 0. -1.
         -1    1    1    2    0  501  0.15066479504E+03 -0.11305405295E+03  0.17367734428E+03  0.25621264463E+03  0.00000000000E+00 0.  1.
<mgrwt>
<rscale>  0 0.12414389E+03</rscale>
<asrwt>0</asrwt>
<pdfrwt beam="1">  1        2 0.35447929E+00 0.95731216E+02</pdfrwt>
<pdfrwt beam="2">  1       -2 0.96229775E-02 0.16098933E+03</pdfrwt>
<totfact> 0.39791882E+02</totfact>
</mgrwt>
</event>
<event>
 7    1  0.7457309E-004  0.6801146E+02  0.7546771E-02  0.1413395E+00
          2   -1    0    0  503    0  0.00000000000E+00  0.00000000000E+00  0.58116852732E+02  0.58116852732E+02  0.00000000000E+00 0. -1.
         -2   -1    0    0    0  501 -0.00000000000E+00 -0.00000000000E+00 -0.34336899809E+03  0.34336899809E+03  0.00000000000E+00 0.  1.
         25    2    1    2    0    0  0.43400389123E+02  0.78866430873E+02 -0.15702329467E+03  0.21996421832E+03  0.12499773828E+03 0.  0.
          4    1    3    3  502    0  0.41461259892E+00  0.58164184319E+02 -0.24949303188E+01  0.58232995960E+02  0.12700000000E+01 0. -1.
         -4    1    3    3    0  502  0.42985776524E+02  0.20702246553E+02 -0.15452836435E+03  0.16173122236E+03  0.12700000000E+01 0. -1.
          3    1    1    2  503    0  0.12256951362E+01 -0.64628554451E+02 -0.27138666357E+02  0.70106059586E+02  0.00000000000E+00 0. -1.
         -3    1    1    2    0  501 -0.44626084259E+02 -0.14237876421E+02 -0.10109018433E+03  0.11141557292E+03  0.00000000000E+00 0.  1.
<mgrwt>
<rscale>  0 0.56443032E+02</rscale>
<asrwt>0</asrwt>
<pdfrwt beam="1">  1        2 0.89410544E-02 0.68011463E+02</pdfrwt>
<pdfrwt beam="2">  1       -2 0.52825999E-01 0.46842337E+02</pdfrwt>
<totfact> 0.23285170E+03</totfact>
</mgrwt>
</event>
<event>
 7    1  0.5277388E-004  0.1186137E+03  0.7546771E-02  0.1255108E+00
          1   -1    0    0  503    0  0.00000000000E+00  0.00000000000E+00  0.27106981558E+04  0.27106981558E+04  0.00000000000E+00 0. -1.
         -1   -1    0    0    0  501 -0.00000000000E+00 -0.00000000000E+00 -0.37549174640E+02  0.37549174640E+02  0.00000000000E+00 0.  1.
         25    2    1    2    0    0 -0.71780096381E+02  0.11599384151E+03  0.22595962543E+04  0.22671582621E+04  0.12499759739E+03 0.  0.
          4    1    3    3  502    0  0.36932491558E+01 -0.24109107503E+02  0.41067536639E+03  0.41140097061E+03  0.12700000000E+01 0. -1.
         -4    1    3    3    0  502 -0.75473345537E+02  0.14010294901E+03  0.18489208879E+04  0.18557572915E+04  0.12700000000E+01 0. -1.
          2    1    1    2  503    0  0.10692325956E+03 -0.14234111188E+02  0.32259659483E+03  0.34015254865E+03  0.00000000000E+00 0. -1.
         -2    1    1    2    0  501 -0.35143163178E+02 -0.10175973032E+03  0.90956132000E+02  0.14093651969E+03  0.00000000000E+00 0.  1.
<mgrwt>
<rscale>  0 0.11300279E+03</rscale>
<asrwt>0</asrwt>
<pdfrwt beam="1">  1        1 0.41703033E+00 0.11861374E+03</pdfrwt>
<pdfrwt beam="2">  1       -1 0.57767982E-02 0.10765726E+03</pdfrwt>
<totfact> 0.17045833E+02</totfact>
</mgrwt>
</event>
<event>
 7    1  0.5277388E-004  0.3816399E+02  0.7546771E-02  0.1539500E+00
         -2   -1    0    0    0  501 -0.00000000000E+00  0.00000000000E+00  0.14914836974E+03  0.14914836974E+03  0.00000000000E+00 0.  1.
          2   -1    0    0  503    0  0.00000000000E+00 -0.00000000000E+00 -0.13053468524E+04  0.13053468524E+04  0.00000000000E+00 0. -1.
         25    2    1    2    0    0  0.67012936974E+02  0.18558751730E+02 -0.95765388913E+03  0.96827802640E+03  0.12500481609E+03 0.  0.
          4    1    3    3  502    0 -0.20278708557E+02 -0.30626129263E+02 -0.15024040785E+03  0.15467054944E+03  0.12700000000E+01 0. -1.
         -4    1    3    3    0  502  0.87291645531E+02  0.49184880992E+02 -0.80741348129E+03  0.81360747696E+03  0.12700000000E+01 0. -1.
          1    1    1    2  503    0 -0.28930594798E+02 -0.17949203525E+02 -0.33899181767E+03  0.34069723461E+03  0.00000000000E+00 0. -1.
         -1    1    1    2    0  501 -0.38082342176E+02 -0.60954820431E+00  0.14044722411E+03  0.14551996116E+03  0.00000000000E+00 0.  1.
<mgrwt>
<rscale>  0 0.36046418E+02</rscale>
<asrwt>0</asrwt>
<pdfrwt beam="2">  1        2 0.20082258E+00 0.34046339E+02</pdfrwt>
<pdfrwt beam="1">  1       -2 0.22945904E-01 0.38163993E+02</pdfrwt>
<totfact> 0.31485215E+02</totfact>
</mgrwt>
</event>
<event>
 7    1  0.5277388E-004  0.1375574E+03  0.7546771E-02  0.1368960E+00
          2   -1    0    0  503    0  0.00000000000E+00  0.00000000000E+00  0.25192473368E+03  0.25192473368E+03  0.00000000000E+00 0. -1.
          1   -1    0    0  502    0 -0.00000000000E+00 -0.00000000000E+00 -0.97106316764E+03  0.97106316764E+03  0.00000000000E+00 0. -1.
         25    2    1    2    0    0  0.32913740008E+02  0.10597403899E+03 -0.78034265705E+02  0.18450681158E+03  0.12505840904E+03 0.  0.
          4    1    3    3  501    0  0.78283348464E+02  0.59191173523E+02 -0.65856920783E+02  0.11819739669E+03  0.12700000000E+01 0. -1.
         -4    1    3    3    0  501 -0.45369608456E+02  0.46782865469E+02 -0.12177344922E+02  0.66309414884E+02  0.12700000000E+01 0. -1.
          2    1    1    2  502    0  0.19037565423E+02  0.27053629134E+02 -0.81375068078E+03  0.81442280065E+03  0.00000000000E+00 0. -1.
          1    1    1    2  503    0 -0.51951305431E+02 -0.13302766813E+03  0.17264651253E+03  0.22405828909E+03  0.00000000000E+00 0. -1.
<mgrwt>
<rscale>  0 0.67457288E+02</rscale>
<asrwt>0</asrwt>
<pdfrwt beam="1">  1        2 0.38757652E-01 0.13755743E+03</pdfrwt>
<pdfrwt beam="2">  1        1 0.14939433E+00 0.33080625E+02</pdfrwt>
<totfact> 0.34422222E+02</totfact>
</mgrwt>
</event>
<event>
 7    1  0.5277388E-004  0.3607421E+02  0.7546771E-02  0.1597457E+00
          1   -1    0    0  502    0 -0.00000000000E+00  0.00000000000E+00  0.12207008652E+04  0.12207008652E+04  0.00000000000E+00 0. -1.
          2   -1    0    0  503    0  0.00000000000E+00 -0.00000000000E+00 -0.31166331957E+03  0.31166331957E+03  0.00000000000E+00 0. -1.
         25    2    1    2    0    0 -0.12422963612E+02  0.16326581712E+02 -0.74590130580E+02  0.14700140849E+03  0.12499935689E+03 0.  0.
          4    1    3    3  501    0  0.31755846390E+02  0.56936491644E+02 -0.49863679796E+02  0.82086523398E+02  0.12700000000E+01 0.  1.
         -4    1    3    3    0  501 -0.44178810002E+02 -0.40609909932E+02 -0.24726450784E+02  0.64914885090E+02  0.12700000000E+01 0.  1.
          2    1    1    2  502    0  0.14152215510E+02  0.20661710340E+02  0.11826550302E+04  0.11829201629E+04  0.00000000000E+00 0. -1.
          1    1    1    2  503    0 -0.17292518980E+01 -0.36988292051E+02 -0.19902735398E+03  0.20244261334E+03  0.00000000000E+00 0. -1.
<mgrwt>
<rscale>  0 0.30057194E+02</rscale>
<asrwt>0</asrwt>
<pdfrwt beam="2">  1        2 0.47948204E-01 0.36074206E+02</pdfrwt>
<pdfrwt beam="1">  1        1 0.18780013E+00 0.25043791E+02</pdfrwt>
<totfact> 0.19040514E+02</totfact>
</mgrwt>
</event>
<event>
 7    1  0.5277388E-004  0.4687925E+02  0.7546771E-02  0.1483709E+00
         -1   -1    0    0    0  502 -0.00000000000E+00  0.00000000000E+00  0.70362220168E+03  0.70362220168E+03  0.00000000000E+00 0.  1.
         -2   -1    0    0    0  501  0.00000000000E+00 -0.00000000000E+00 -0.33434262303E+03  0.33434262303E+03  0.00000000000E+00 0.  1.
         25    2    1    2    0    0  0.23905361911E+02  0.20723186727E+02  0.36405104274E+03  0.38621103259E+03  0.12499953272E+03 0.  0.
          4    1    3    3  503    0  0.69378716664E+02  0.36687613680E+02  0.18921070126E+03  0.20484552642E+03  0.12700000000E+01 0.  1.
         -4    1    3    3    0  503 -0.45473354753E+02 -0.15964426954E+02  0.17484034147E+03  0.18136550617E+03  0.12700000000E+01 0.  1.
         -2    1    1    2    0  502  0.21041876704E+02 -0.34519117651E+02  0.32552459074E+03  0.32802528750E+03  0.00000000000E+00 0.  1.
         -1    1    1    2    0  501 -0.44947238615E+02  0.13795930925E+02 -0.32029605483E+03  0.32372850463E+03  0.00000000000E+00 0.  1.
<mgrwt>
<rscale>  0 0.43533668E+02</rscale>
<asrwt>0</asrwt>
<pdfrwt beam="2">  1       -2 0.51437327E-01 0.46879247E+02</pdfrwt>
<pdfrwt beam="1">  1       -1 0.10824957E+00 0.40426848E+02</pdfrwt>
<totfact> 0.25016059E+01</totfact>
</mgrwt>
</event>
<event>
 7    1  0.5277388E-004  0.5956386E+02  0.7546771E-02  0.1427978E+00
         -2   -1    0    0    0  501 -0.00000000000E+00  0.00000000000E+00  0.15984178752E+02  0.15984178752E+02  0.00000000000E+00 0.  1.
          2   -1    0    0  503    0  0.00000000000E+00 -0.00000000000E+00 -0.35709398804E+04  0.35709398804E+04  0.00000000000E+00 0. -1.
         25    2    1    2    0    0 -0.78300159322E+02  0.33160000729E+02 -0.74886406163E+03  0.76397525759E+03  0.12502124143E+03 0.  0.
          4    1    3    3  502    0 -0.25171381942E+02 -0.34166091981E+02 -0.89543312357E+02  0.99098627629E+02  0.12700000000E+01 0. -1.
         -4    1    3    3    0  502 -0.53128777381E+02  0.67326092709E+02 -0.65932074928E+03  0.66487662996E+03  0.12700000000E+01 0. -1.
          1    1    1    2  503    0  0.58148104577E+02  0.10202911080E+02 -0.27437294430E+04  0.27443645089E+04  0.00000000000E+00 0. -1.
         -1    1    1    2    0  501  0.20152054745E+02 -0.43362911808E+02 -0.62362196969E+02  0.78584292589E+02  0.00000000000E+00 0.  1.
<mgrwt>
<rscale>  0 0.53368099E+02</rscale>
<asrwt>0</asrwt>
<pdfrwt beam="2">  1        2 0.54937518E+00 0.59563864E+02</pdfrwt>
<pdfrwt beam="1">  1       -2 0.24591053E-02 0.47816811E+02</pdfrwt>
<totfact> 0.55767755E+02</totfact>
</mgrwt>
</event>
<event>
 7    1  0.5277388E-004  0.4782531E+02  0.7546771E-02  0.1481063E+00
         -2   -1    0    0    0  501 -0.00000000000E+00  0.00000000000E+00  0.48338445145E+02  0.48338445145E+02  0.00000000000E+00 0.  1.
          2   -1    0    0  503    0  0.00000000000E+00 -0.00000000000E+00 -0.12371458204E+04  0.12371458204E+04  0.00000000000E+00 0. -1.
         25    2    1    2    0    0  0.50741224163E+02 -0.10429352546E+02 -0.23563604384E+03  0.27172350447E+03  0.12500349795E+03 0.  0.
          4    1    3    3  502    0  0.81670531797E+02 -0.41222396375E+02 -0.15331498120E+03  0.17853979413E+03  0.12700000000E+01 0.  1.
         -4    1    3    3    0  502 -0.30929307633E+02  0.30793043828E+02 -0.82321062637E+02  0.93183710339E+02  0.12700000000E+01 0.  1.
          1    1    1    2  503    0 -0.24804146952E+02  0.41367626025E+02 -0.96914415768E+03  0.97034371464E+03  0.00000000000E+00 0. -1.
         -1    1    1    2    0  501 -0.25937077211E+02 -0.30938273479E+02  0.15972826278E+02  0.43417046415E+02  0.00000000000E+00 0.  1.
<mgrwt>
<rscale>  0 0.43940976E+02</rscale>
<asrwt>0</asrwt>
<pdfrwt beam="2">  1        2 0.19033013E+00 0.47825305E+02</pdfrwt>
<pdfrwt beam="1">  1       -2 0.74366839E-02 0.40372128E+02</pdfrwt>
<totfact> 0.19439364E+03</totfact>
</mgrwt>
</event>
<event>
 7    1  0.5277388E-004  0.7728327E+02  0.7546771E-02  0.1493676E+00
          1   -1    0    0  503    0  0.00000000000E+00  0.00000000000E+00  0.14814659870E+04  0.14814659870E+04  0.00000000000E+00 0. -1.
         -1   -1    0    0    0  501 -0.00000000000E+00 -0.00000000000E+00 -0.13356711364E+02  0.13356711364E+02  0.00000000000E+00 0.  1.
         25    2    1    2    0    0  0.35827904897E+02 -0.57617696559E+02  0.11033090899E+04  0.11124371804E+04  0.12498837834E+03 0.  0.
          4    1    3    3  502    0  0.56488763682E+02  0.19055093017E+02  0.59223621314E+03  0.59523056209E+03  0.12700000000E+01 0.  1.
         -4    1    3    3    0  502 -0.20660858785E+02 -0.76672789576E+02  0.51107287675E+03  0.51720661828E+03  0.12700000000E+01 0.  1.
          2    1    1    2  503    0 -0.48161348364E+02  0.76882539624E+02  0.31001517460E+03  0.32301679346E+03  0.00000000000E+00 0. -1.
         -2    1    1    2    0  501  0.12333443467E+02 -0.19264843065E+02  0.54785011161E+02  0.59368724544E+02  0.00000000000E+00 0.  1.
<mgrwt>
<rscale>  0 0.42045512E+02</rscale>
<asrwt>0</asrwt>
<pdfrwt beam="1">  1        1 0.22791771E+00 0.77283272E+02</pdfrwt>
<pdfrwt beam="2">  1       -1 0.20548798E-02 0.22874615E+02</pdfrwt>
<totfact> 0.38389238E+03</totfact>
</mgrwt>
</event>
<event>
 7    1  0.5277388E-004  0.2969126E+03  0.7546771E-02  0.1212719E+00
          2   -1    0    0  503    0  0.00000000000E+00  0.00000000000E+00  0.17735809285E+04  0.17735809285E+04  0.00000000000E+00 0. -1.
          1   -1    0    0  502    0 -0.00000000000E+00 -0.00000000000E+00 -0.29867139008E+04  0.29867139008E+04  0.00000000000E+00 0. -1.
         25    2    1    2    0    0  0.15218810909E+03  0.18816131129E+03  0.13299958606E+03  0.30311636868E+03  0.12499897381E+03 0.  0.
          4    1    3    3  501    0  0.46505903208E+01 -0.20225001320E+01 -0.18150935191E+02  0.18888828588E+02  0.12700000000E+01 0. -1.
         -4    1    3    3    0  501  0.14753751877E+03  0.19018381142E+03  0.15115052125E+03  0.28422754009E+03  0.12700000000E+01 0. -1.
          2    1    1    2  502    0 -0.21601586560E+03 -0.20661498832E+03 -0.28932421800E+04  0.29086427969E+04  0.00000000000E+00 0. -1.
          1    1    1    2  503    0  0.63827756510E+02  0.18453677033E+02  0.15471096216E+04  0.15485356638E+04  0.00000000000E+00 0. -1.
<mgrwt>
<rscale>  0 0.14045435E+03</rscale>
<asrwt>0</asrwt>
<pdfrwt beam="1">  1        2 0.27285860E+00 0.66441860E+02</pdfrwt>
<pdfrwt beam="2">  1        1 0.45949445E+00 0.29691258E+03</pdfrwt>
<totfact> 0.11231366E+00</totfact>
</mgrwt>
</event>
<event>
 7    1  0.5277388E-004  0.7066591E+02  0.7546771E-02  0.1394570E+00
          2   -1    0    0  503    0  0.00000000000E+00  0.00000000000E+00  0.11314851982E+03  0.11314851982E+03  0.00000000000E+00 0. -1.
         -2   -1    0    0    0  501 -0.00000000000E+00 -0.00000000000E+00 -0.75513824429E+03  0.75513824429E+03  0.00000000000E+00 0.  1.
         25    2    1    2    0    0 -0.64344014342E+02 -0.25389774739E+01 -0.10564104106E+03  0.17587524100E+03  0.12500188899E+03 0.  0.
          4    1    3    3  502    0 -0.71567247295E+02 -0.33111347554E+02 -0.11813722163E+03  0.14204312112E+03  0.12700000000E+01 0.  1.
         -4    1    3    3    0  502  0.72232329534E+01  0.30572370080E+02  0.12496180571E+02  0.33832119879E+02  0.12700000000E+01 0.  1.
          1    1    1    2  503    0  0.54891396558E+02 -0.48883958605E+02  0.59319113672E+02  0.94453502168E+02  0.00000000000E+00 0. -1.
         -1    1    1    2    0  501  0.94526177844E+01  0.51422936079E+02 -0.59566779708E+03  0.59795802095E+03  0.00000000000E+00 0.  1.
<mgrwt>
<rscale>  0 0.60784313E+02</rscale>
<asrwt>0</asrwt>
<pdfrwt beam="1">  1        2 0.17407465E-01 0.70665910E+02</pdfrwt>
<pdfrwt beam="2">  1       -2 0.11617511E+00 0.52284513E+02</pdfrwt>
<totfact> 0.19792847E+02</totfact>
</mgrwt>
</event>
<event>
 7    1  0.5277388E-004  0.6127204E+02  0.7546771E-02  0.1415126E+00
          2   -1    0    0  503    0  0.00000000000E+00  0.00000000000E+00  0.21964708699E+04  0.21964708699E+04  0.00000000000E+00 0. -1.
          1   -1    0    0  502    0 -0.00000000000E+00 -0.00000000000E+00 -0.22218820078E+03  0.22218820078E+03  0.00000000000E+00 0. -1.
         25    2    1    2    0    0 -0.34342854258E+02  0.68390495385E+02  0.26976267721E+03  0.30700810872E+03  0.12500154121E+03 0.  0.
          4    1    3    3  501    0  0.25618420434E+02 -0.11193881248E+02  0.11627594249E+02  0.30305449855E+02  0.12700000000E+01 0.  1.
         -4    1    3    3    0  501 -0.59961274691E+02  0.79584376633E+02  0.25813508296E+03  0.27670265886E+03  0.12700000000E+01 0.  1.
          2    1    1    2  502    0 -0.16124826981E+02 -0.59178393115E+02 -0.19859171100E+03  0.20784792502E+03  0.00000000000E+00 0. -1.
          1    1    1    2  503    0  0.50467681239E+02 -0.92121022699E+01  0.19031117029E+04  0.19038030369E+04  0.00000000000E+00 0. -1.
<mgrwt>
<rscale>  0 0.56065596E+02</rscale>
<asrwt>0</asrwt>
<pdfrwt beam="1">  1        2 0.33791858E+00 0.51301556E+02</pdfrwt>
<pdfrwt beam="2">  1        1 0.34182802E-01 0.61272041E+02</pdfrwt>
<totfact> 0.12255968E+02</totfact>
</mgrwt>
</event>
<event>
 7    1  0.5277388E-004  0.1297524E+03  0.7546771E-02  0.1270624E+00
          1   -1    0    0  502    0 -0.00000000000E+00  0.00000000000E+00  0.16711038914E+04  0.16711038914E+04  0.00000000000E+00 0. -1.
          2   -1    0    0  503    0  0.00000000000E+00 -0.00000000000E+00 -0.13167384990E+04  0.13167384990E+04  0.00000000000E+00 0. -1.
         25    2    1    2    0    0 -0.12930289821E+03 -0.15919128810E+03 -0.17051651790E+03  0.29455537992E+03  0.12500353302E+03 0.  0.
          4    1    3    3  501    0 -0.48951096077E+01  0.91448563225E+01  0.12649956269E+02  0.16408070844E+02  0.12700000000E+01 0.  1.
         -4    1    3    3    0  501 -0.12440778860E+03 -0.16833614442E+03 -0.18316647417E+03  0.27814730907E+03  0.12700000000E+01 0.  1.
          2    1    1    2  502    0  0.68715793134E+02  0.49273428087E+02  0.16043350406E+04  0.16065617490E+04  0.00000000000E+00 0. -1.
          1    1    1    2  503    0  0.60587105076E+02  0.10991786002E+03 -0.10794531304E+04  0.10867252615E+04  0.00000000000E+00 0. -1.
<mgrwt>
<rscale>  0 0.10474424E+03</rscale>
<asrwt>0</asrwt>
<pdfrwt beam="2">  1        2 0.20257515E+00 0.12975240E+03</pdfrwt>
<pdfrwt beam="1">  1        1 0.25709291E+00 0.84556082E+02</pdfrwt>
<totfact> 0.15466636E+01</totfact>
</mgrwt>
</event>
<event>
 7    1  0.5277388E-004  0.5547629E+02  0.7546771E-02  0.1547530E+00
          2   -1    0    0  503    0  0.00000000000E+00  0.00000000000E+00  0.16769492958E+04  0.16769492958E+04  0.00000000000E+00 0. -1.
         -2   -1    0    0    0  501 -0.00000000000E+00 -0.00000000000E+00 -0.80470576800E+02  0.80470576800E+02  0.00000000000E+00 0.  1.
         25    2    1    2    0    0 -0.49380761716E+02  0.20552860891E+02  0.18749470419E+03  0.23160421019E+03  0.12500146544E+03 0.  0.
          4    1    3    3  502    0 -0.46082113190E+02  0.69068625599E+02  0.14460496519E+03  0.16675204663E+03  0.12700000000E+01 0.  1.
         -4    1    3    3    0  502 -0.32986485264E+01 -0.48515764708E+02  0.42889739001E+02  0.64852163563E+02  0.12700000000E+01 0.  1.
          1    1    1    2  503    0  0.10522751015E+02  0.19586572410E+02  0.14539380396E+04  0.14541080377E+04  0.00000000000E+00 0. -1.
         -1    1    1    2    0  501  0.38858010701E+02 -0.40139433301E+02 -0.44954024810E+02  0.71707624755E+02  0.00000000000E+00 0.  1.
<mgrwt>
<rscale>  0 0.35120849E+02</rscale>
<asrwt>0</asrwt>
<pdfrwt beam="1">  1        2 0.25799217E+00 0.22234255E+02</pdfrwt>
<pdfrwt beam="2">  1       -2 0.12380090E-01 0.55476291E+02</pdfrwt>
<totfact> 0.60082923E+02</totfact>
</mgrwt>
</event>
<event>
 7    1  0.5277388E-004  0.1437470E+03  0.7546771E-02  0.1340462E+00
         -2   -1    0    0    0  501 -0.00000000000E+00  0.00000000000E+00  0.10067172287E+03  0.10067172287E+03  0.00000000000E+00 0.  1.
          2   -1    0    0  503    0  0.00000000000E+00 -0.00000000000E+00 -0.25363838900E+04  0.25363838900E+04  0.00000000000E+00 0. -1.
         25    2    1    2    0    0 -0.64263483149E+02 -0.11238727418E+03 -0.18878830967E+03  0.26081897199E+03  0.12499926248E+03 0.  0.
          4    1    3    3  502    0 -0.61169915940E+02 -0.23206347379E+01 -0.10834457992E+03  0.12444800063E+03  0.12700000000E+01 0.  1.
         -4    1    3    3    0  502 -0.30935672093E+01 -0.11006663944E+03 -0.80443729743E+02  0.13637097137E+03  0.12700000000E+01 0.  1.
          1    1    1    2  503    0  0.23773959576E+02 -0.32540802973E+02 -0.22235963167E+04  0.22239614846E+04  0.00000000000E+00 0. -1.
         -1    1    1    2    0  501  0.40489523573E+02  0.14492807715E+03 -0.23327540708E+02  0.15227515629E+03  0.00000000000E+00 0.  1.
<mgrwt>
<rscale>  0 0.76111955E+02</rscale>
<asrwt>0</asrwt>
<pdfrwt beam="2">  1        2 0.39021291E+00 0.40300186E+02</pdfrwt>
<pdfrwt beam="1">  1       -2 0.15487957E-01 0.14374697E+03</pdfrwt>
<totfact> 0.15823616E+02</totfact>
</mgrwt>
</event>
<event>
 7    1  0.5277388E-004  0.6187809E+02  0.7546771E-02  0.1419486E+00
         -2   -1    0    0    0  501 -0.00000000000E+00  0.00000000000E+00  0.12877968959E+03  0.12877968959E+03  0.00000000000E+00 0.  1.
          2   -1    0    0  503    0  0.00000000000E+00 -0.00000000000E+00 -0.85748891178E+03  0.85748891178E+03  0.00000000000E+00 0. -1.
         25    2    1    2    0    0  0.28915259334E+02 -0.91726245950E+02 -0.29977101878E+03  0.33872643795E+03  0.12499255835E+03 0.  0.
          4    1    3    3  502    0  0.67863786236E+02 -0.30778090813E+02 -0.90114728871E+02  0.11694041909E+03  0.12700000000E+01 0.  1.
         -4    1    3    3    0  502 -0.38948526902E+02 -0.60948155138E+02 -0.20965628991E+03  0.22178601886E+03  0.12700000000E+01 0.  1.
          1    1    1    2  503    0  0.78086360243E+01  0.59109284529E+02 -0.53096811902E+03  0.53430518033E+03  0.00000000000E+00 0. -1.
         -1    1    1    2    0  501 -0.36723895358E+02  0.32616961421E+02  0.10202991561E+03  0.11323698310E+03  0.00000000000E+00 0.  1.
<mgrwt>
<rscale>  0 0.55129718E+02</rscale>
<asrwt>0</asrwt>
<pdfrwt beam="2">  1        2 0.13192137E+00 0.61878092E+02</pdfrwt>
<pdfrwt beam="1">  1       -2 0.19812260E-01 0.49117315E+02</pdfrwt>
<totfact> 0.69283463E+02</totfact>
</mgrwt>
</event>
<event>
 7    1  0.5277388E-004  0.1470513E+03  0.7546771E-02  0.1219590E+00
          2   -1    0    0  503    0  0.00000000000E+00  0.00000000000E+00  0.21685829775E+04  0.21685829775E+04  0.00000000000E+00 0. -1.
          1   -1    0    0  502    0 -0.00000000000E+00 -0.00000000000E+00 -0.12283710086E+03  0.12283710086E+03  0.00000000000E+00 0. -1.
         25    2    1    2    0    0  0.20852521630E+03 -0.11022052908E+03  0.63658916431E+03  0.69029259133E+03  0.12500706649E+03 0.  0.
          4    1    3    3  501    0  0.24233064403E+02  0.13003274035E+02  0.18698680576E+03  0.18900265864E+03  0.12700000000E+01 0.  1.
         -4    1    3    3    0  501  0.18429215190E+03 -0.12322380312E+03  0.44960235855E+03  0.50128993269E+03  0.12700000000E+01 0.  1.
          2    1    1    2  502    0 -0.70259370362E+02  0.10309295530E+03 -0.50739358556E+02  0.13468117561E+03  0.00000000000E+00 0. -1.
          1    1    1    2  503    0 -0.13826584594E+03  0.71275737782E+01  0.14598960709E+04  0.14664463114E+04  0.00000000000E+00 0. -1.
<mgrwt>
<rscale>  0 0.13544673E+03</rscale>
<asrwt>0</asrwt>
<pdfrwt beam="1">  1        2 0.33362812E+00 0.14705133E+03</pdfrwt>
<pdfrwt beam="2">  1        1 0.18898017E-01 0.12475791E+03</pdfrwt>
<totfact> 0.23643479E+02</totfact>
</mgrwt>
</event>
<event>
 7    1  0.5277388E-004  0.1000318E+03  0.7546771E-02  0.1282189E+00
          2   -1    0    0  503    0  0.00000000000E+00  0.00000000000E+00  0.14527703617E+04  0.14527703617E+04  0.00000000000E+00 0. -1.
         -2   -1    0    0    0  501 -0.00000000000E+00 -0.00000000000E+00 -0.50389920074E+03  0.50389920074E+03  0.00000000000E+00 0.  1.
         25    2    1    2    0    0 -0.11197799662E+02  0.46097688866E+02  0.52138246435E+03  0.53825184450E+03  0.12499994539E+03 0.  0.
          4    1    3    3  502    0  0.49326152056E+02  0.38635894427E+02  0.16142487602E+03  0.17316294382E+03  0.12700000000E+01 0.  1.
         -4    1    3    3    0  502 -0.60523951718E+02  0.74617944397E+01  0.35995758833E+03  0.36508890068E+03  0.12700000000E+01 0.  1.
          1    1    1    2  503    0  0.10573392250E+03 -0.78797498189E+02  0.91311926773E+03  0.92259173267E+03  0.00000000000E+00 0. -1.
         -1    1    1    2    0  501 -0.94536122836E+02  0.32699809323E+02 -0.48563057112E+03  0.49582598526E+03  0.00000000000E+00 0.  1.
<mgrwt>
<rscale>  0 0.99105048E+02</rscale>
<asrwt>0</asrwt>
<pdfrwt beam="1">  1        2 0.22350313E+00 0.98186906E+02</pdfrwt>
<pdfrwt beam="2">  1       -2 0.77522955E-01 0.10003178E+03</pdfrwt>
<totfact> 0.24721051E+01</totfact>
</mgrwt>
</event>
<event>
 7    1  0.5277388E-004  0.1503063E+03  0.7546771E-02  0.1244673E+00
          1   -1    0    0  502    0 -0.00000000000E+00  0.00000000000E+00  0.17063467144E+04  0.17063467144E+04  0.00000000000E+00 0. -1.
          2   -1    0    0  503    0  0.00000000000E+00 -0.00000000000E+00 -0.54720842018E+02  0.54720842018E+02  0.00000000000E+00 0. -1.
         25    2    1    2    0    0 -0.97910169523E+02 -0.15347666998E+03  0.50189676761E+03  0.54833094415E+03  0.12499987777E+03 0.  0.
          4    1    3    3  501    0  0.99132875202E+01  0.16185397545E+02  0.31814168255E+02  0.37067432672E+02  0.12700000000E+01 0.  1.
         -4    1    3    3    0  501 -0.10782345704E+03 -0.16966206753E+03  0.47008259936E+03  0.51126351147E+03  0.12700000000E+01 0.  1.
          2    1    1    2  502    0 -0.32516338209E+02  0.88509310086E+02  0.99773251573E+03  0.10021783190E+04  0.00000000000E+00 0. -1.
          1    1    1    2  503    0  0.13042650773E+03  0.64967359896E+02  0.15199658909E+03  0.21055829327E+03  0.00000000000E+00 0. -1.
<mgrwt>
<rscale>  0 0.11904984E+03</rscale>
<asrwt>0</asrwt>
<pdfrwt beam="2">  1        2 0.84185924E-02 0.15030629E+03</pdfrwt>
<pdfrwt beam="1">  1        1 0.26251484E+00 0.94293214E+02</pdfrwt>
<totfact> 0.60876320E+02</totfact>
</mgrwt>
</event>
<event>
 7    1  0.5277388E-004  0.8543002E+02  0.7546771E-02  0.1433894E+00
          2   -1    0    0  503    0  0.00000000000E+00  0.00000000000E+00  0.41852212852E+03  0.41852212852E+03  0.00000000000E+00 0. -1.
          1   -1    0    0  502    0 -0.00000000000E+00 -0.00000000000E+00 -0.29990908116E+03  0.29990908116E+03  0.00000000000E+00 0. -1.
         25    2    1    2    0    0 -0.10470186245E+03  0.26805778913E+02 -0.15281942601E+03  0.22507109956E+03  0.12498877194E+03 0.  0.
          4    1    3    3  501    0 -0.14584015107E+02  0.34035248177E+02 -0.12514511906E+03  0.13051438748E+03  0.12700000000E+01 0. -1.
         -4    1    3    3    0  501 -0.90117847338E+02 -0.72294692640E+01 -0.27674306950E+02  0.94556712083E+02  0.12700000000E+01 0. -1.
          2    1    1    2  502    0  0.75971161656E+02 -0.12992598538E+02 -0.96807887234E+02  0.12374244240E+03  0.00000000000E+00 0. -1.
          1    1    1    2  503    0  0.28730700789E+02 -0.13813180374E+02  0.36824036060E+03  0.36961766772E+03  0.00000000000E+00 0. -1.
<mgrwt>
<rscale>  0 0.52186258E+02</rscale>
<asrwt>0</asrwt>
<pdfrwt beam="1">  1        2 0.64388019E-01 0.31878788E+02</pdfrwt>
<pdfrwt beam="2">  1        1 0.46139859E-01 0.85430020E+02</pdfrwt>
<totfact> 0.91747028E+02</totfact>
</mgrwt>
</event>
<event>
 7    1  0.5277388E-004  0.6356253E+02  0.7546771E-02  0.1408357E+00
          1   -1    0    0  502    0 -0.00000000000E+00  0.00000000000E+00  0.12568447947E+03  0.12568447947E+03  0.00000000000E+00 0. -1.
          2   -1    0    0  503    0  0.00000000000E+00 -0.00000000000E+00 -0.71217387579E+03  0.71217387579E+03  0.00000000000E+00 0. -1.
         25    2    1    2    0    0 -0.14316683892E+02  0.20544182341E+02 -0.79184709948E+02  0.15007226059E+03  0.12499773695E+03 0.  0.
          4    1    3    3  501    0  0.15898553801E+02  0.15400276525E+02 -0.10663008357E+03  0.10891060624E+03  0.12700000000E+01 0.  1.
         -4    1    3    3    0  501 -0.30215237693E+02  0.51439058154E+01  0.27445373617E+02  0.41161654350E+02  0.12700000000E+01 0.  1.
          2    1    1    2  502    0 -0.50958240368E+02 -0.10981974166E+02  0.80710951074E+02  0.96081234595E+02  0.00000000000E+00 0. -1.
          1    1    1    2  503    0  0.65274924260E+02 -0.95622081750E+01 -0.58801563745E+03  0.59170486008E+03  0.00000000000E+00 0. -1.
<mgrwt>
<rscale>  0 0.57562126E+02</rscale>
<asrwt>0</asrwt>
<pdfrwt beam="2">  1        2 0.10956521E+00 0.63562531E+02</pdfrwt>
<pdfrwt beam="1">  1        1 0.19336073E-01 0.52128169E+02</pdfrwt>
<totfact> 0.14688344E+03</totfact>
</mgrwt>
</event>
<event>
 7    1  0.5277388E-004  0.5870378E+02  0.7546771E-02  0.1478862E+00
          1   -1    0    0  502    0 -0.00000000000E+00  0.00000000000E+00  0.84070099034E+03  0.84070099034E+03  0.00000000000E+00 0. -1.
          2   -1    0    0  503    0  0.00000000000E+00 -0.00000000000E+00 -0.59189918724E+03  0.59189918724E+03  0.00000000000E+00 0. -1.
         25    2    1    2    0    0 -0.53785575804E+01 -0.38634433228E+02  0.34041382718E+03  0.36472955584E+03  0.12499810741E+03 0.  0.
          4    1    3    3  501    0  0.45160753247E+01 -0.45205097260E+02  0.34775271901E+03  0.35070994032E+03  0.12700000000E+01 0.  1.
         -4    1    3    3    0  501 -0.98946329051E+01  0.65706640326E+01 -0.73388918340E+01  0.14019615526E+02  0.12700000000E+01 0.  1.
          2    1    1    2  502    0  0.36433319856E+02  0.50946156174E+02  0.48563524601E+03  0.48965752296E+03  0.00000000000E+00 0. -1.
          1    1    1    2  503    0 -0.31054762276E+02 -0.12311722946E+02 -0.57724727008E+03  0.57821309878E+03  0.00000000000E+00 0. -1.
<mgrwt>
<rscale>  0 0.44283999E+02</rscale>
<asrwt>0</asrwt>
<pdfrwt beam="2">  1        2 0.91061414E-01 0.33406239E+02</pdfrwt>
<pdfrwt beam="1">  1        1 0.12933861E+00 0.58703783E+02</pdfrwt>
<totfact> 0.16969746E+02</totfact>
</mgrwt>
</event>
<event>
 7    1  0.5277388E-004  0.9437522E+02  0.7546771E-02  0.1338804E+00
         -1   -1    0    0    0  501 -0.00000000000E+00  0.00000000000E+00  0.10514686854E+03  0.10514686854E+03  0.00000000000E+00 0.  1.
          1   -1    0    0  503    0  0.00000000000E+00 -0.00000000000E+00 -0.38746690059E+03  0.38746690059E+03  0.00000000000E+00 0. -1.
         25    2    1    2    0    0 -0.38637672080E+02 -0.88028374340E+02 -0.12484904748E+03  0.20113341437E+03  0.12500200528E+03 0.  0.
          4    1    3    3  502    0  0.24138331900E+02 -0.55785854932E+02 -0.36844438492E+01  0.60909019890E+02  0.12700000000E+01 0. -1.
         -4    1    3    3    0  502 -0.62776003981E+02 -0.32242519408E+02 -0.12116460363E+03  0.14022439448E+03  0.12700000000E+01 0. -1.
          2    1    1    2  503    0  0.61876159485E+02 -0.70058908003E+01 -0.18052768150E+03  0.19096592735E+03  0.00000000000E+00 0. -1.
         -2    1    1    2    0  501 -0.23238487404E+02  0.95034265141E+02  0.23056696928E+02  0.10051442743E+03  0.00000000000E+00 0.  1.
<mgrwt>
<rscale>  0 0.76660865E+02</rscale>
<asrwt>0</asrwt>
<pdfrwt beam="2">  1        1 0.59610292E-01 0.62271515E+02</pdfrwt>
<pdfrwt beam="1">  1       -1 0.16176442E-01 0.94375223E+02</pdfrwt>
<totfact> 0.17536778E+03</totfact>
</mgrwt>
</event>
<event>
 7    1  0.5277388E-004  0.3605757E+03  0.7546771E-02  0.1309773E+00
          2   -1    0    0  503    0  0.00000000000E+00  0.00000000000E+00  0.17432466196E+04  0.17432466196E+04  0.00000000000E+00 0. -1.
         -2   -1    0    0    0  501 -0.00000000000E+00 -0.00000000000E+00 -0.54232471321E+03  0.54232471321E+03  0.00000000000E+00 0.  1.
         25    2    1    2    0    0  0.22724904580E+03 -0.25503420734E+03 -0.18153767262E+03  0.40652882318E+03  0.12500072705E+03 0.  0.
          4    1    3    3  502    0  0.13756134619E+03 -0.93899094516E+02 -0.13978499128E+03  0.21744337332E+03  0.12700000000E+01 0. -1.
         -4    1    3    3    0  502  0.89687699611E+02 -0.16113511283E+03 -0.41752681340E+02  0.18908544985E+03  0.12700000000E+01 0. -1.
          1    1    1    2  503    0 -0.23627633317E+03  0.27409344144E+03  0.16101821562E+04  0.16503455082E+04  0.00000000000E+00 0. -1.
         -1    1    1    2    0  501  0.90272873773E+01 -0.19059234095E+02 -0.22772257718E+03  0.22869700146E+03  0.00000000000E+00 0.  1.
<mgrwt>
<rscale>  0 0.87201979E+02</rscale>
<asrwt>0</asrwt>
<pdfrwt beam="1">  1        2 0.26819178E+00 0.36057574E+03</pdfrwt>
<pdfrwt beam="2">  1       -2 0.83434572E-01 0.21089009E+02</pdfrwt>
<totfact> 0.13635430E+01</totfact>
</mgrwt>
</event>
<event>
 7    1  0.5277388E-004  0.1157485E+03  0.7546771E-02  0.1433502E+00
          2   -1    0    0  503    0  0.00000000000E+00  0.00000000000E+00  0.58682255514E+02  0.58682255514E+02  0.00000000000E+00 0. -1.
          1   -1    0    0  502    0 -0.00000000000E+00 -0.00000000000E+00 -0.99866286817E+03  0.99866286817E+03  0.00000000000E+00 0. -1.
         25    2    1    2    0    0  0.98332139090E+02 -0.61114153667E+02 -0.28219815962E+03  0.32964402753E+03  0.12500093693E+03 0.  0.
          4    1    3    3  501    0  0.77812291932E+02 -0.87794578510E+02 -0.26899426846E+03  0.29346579044E+03  0.12700000000E+01 0. -1.
         -4    1    3    3    0  501  0.20519847158E+02  0.26680424842E+02 -0.13203891163E+02  0.36178237091E+02  0.12700000000E+01 0. -1.
          2    1    1    2  502    0 -0.84200211337E+02  0.80012972990E+02 -0.68320828270E+03  0.69301176684E+03  0.00000000000E+00 0. -1.
          1    1    1    2  503    0 -0.14131927753E+02 -0.18898819323E+02  0.25425829668E+02  0.34689329312E+02  0.00000000000E+00 0. -1.
<mgrwt>
<rscale>  0 0.52263380E+02</rscale>
<asrwt>0</asrwt>
<pdfrwt beam="1">  1        2 0.90280405E-02 0.23598236E+02</pdfrwt>
<pdfrwt beam="2">  1        1 0.15364042E+00 0.11574852E+03</pdfrwt>
<totfact> 0.13994105E+03</totfact>
</mgrwt>
</event>
<event>
 7    1  0.5277388E-004  0.4361389E+02  0.7546771E-02  0.1519012E+00
          2   -1    0    0  503    0  0.00000000000E+00  0.00000000000E+00  0.91847261691E+02  0.91847261691E+02  0.00000000000E+00 0. -1.
          1   -1    0    0  502    0 -0.00000000000E+00 -0.00000000000E+00 -0.14205971178E+04  0.14205971178E+04  0.00000000000E+00 0. -1.
         25    2    1    2    0    0  0.60053106343E+02 -0.23149941607E+02 -0.16860212368E+03  0.21953293957E+03  0.12500296025E+03 0.  0.
          4    1    3    3  501    0  0.93210682143E+02 -0.76753960972E+01 -0.77920185348E+02  0.12173870032E+03  0.12700000000E+01 0. -1.
         -4    1    3    3    0  501 -0.33157575800E+02 -0.15474545510E+02 -0.90681938328E+02  0.97794239251E+02  0.12700000000E+01 0. -1.
          2    1    1    2  502    0 -0.32573843483E+02 -0.10114828114E+02 -0.12192546539E+04  0.12197316410E+04  0.00000000000E+00 0. -1.
          1    1    1    2  503    0 -0.27479262861E+02  0.33264769721E+02  0.59106921509E+02  0.73179798867E+02  0.00000000000E+00 0. -1.
<mgrwt>
<rscale>  0 0.38569270E+02</rscale>
<asrwt>0</asrwt>
<pdfrwt beam="1">  1        2 0.14130349E-01 0.43613890E+02</pdfrwt>
<pdfrwt beam="2">  1        1 0.21855338E+00 0.34108137E+02</pdfrwt>
<totfact> 0.50927898E+02</totfact>
</mgrwt>
</event>
<event>
 7    1  0.5277388E-004  0.6573058E+02  0.7546771E-02  0.1409625E+00
          2   -1    0    0  503    0  0.00000000000E+00  0.00000000000E+00  0.81163384469E+03  0.81163384469E+03  0.00000000000E+00 0. -1.
         -2   -1    0    0    0  501 -0.00000000000E+00 -0.00000000000E+00 -0.27493007181E+02  0.27493007181E+02  0.00000000000E+00 0.  1.
         25    2    1    2    0    0 -0.86342884044E+02 -0.48113724306E+02  0.34632384503E+03  0.38121338978E+03  0.12495366667E+03 0.  0.
          4    1    3    3  502    0  0.92665062393E+01 -0.53613727250E+02  0.19218387341E+03  0.19974121755E+03  0.12700000000E+01 0. -1.
         -4    1    3    3    0  502 -0.95609390283E+02  0.55000029445E+01  0.15413997162E+03  0.18147217223E+03  0.12700000000E+01 0. -1.
          1    1    1    2  503    0  0.36465319223E+02  0.49959836992E+02  0.36130490707E+03  0.36656096449E+03  0.00000000000E+00 0. -1.
         -1    1    1    2    0  501  0.49877564821E+02 -0.18461126860E+01  0.76512085412E+02  0.91352497605E+02  0.00000000000E+00 0.  1.
<mgrwt>
<rscale>  0 0.57277622E+02</rscale>
<asrwt>0</asrwt>
<pdfrwt beam="1">  1        2 0.12486673E+00 0.65730577E+02</pdfrwt>
<pdfrwt beam="2">  1       -2 0.42296940E-02 0.49911718E+02</pdfrwt>
<totfact> 0.78240565E+03</totfact>
</mgrwt>
</event>
<event>
 7    1  0.5277388E-004  0.9566055E+02  0.7546771E-02  0.1395925E+00
          2   -1    0    0  503    0  0.00000000000E+00  0.00000000000E+00  0.12334796271E+04  0.12334796271E+04  0.00000000000E+00 0. -1.
          1   -1    0    0  502    0 -0.00000000000E+00 -0.00000000000E+00 -0.87830452407E+03  0.87830452407E+03  0.00000000000E+00 0. -1.
         25    2    1    2    0    0 -0.93907259767E+02  0.69226201062E+02  0.21938517486E+02  0.17239005372E+03  0.12500476680E+03 0.  0.
          4    1    3    3  501    0 -0.39339481962E+02 -0.34664697713E+02 -0.25309818956E+01  0.52509569394E+02  0.12700000000E+01 0. -1.
         -4    1    3    3    0  501 -0.54567777805E+02  0.10389089877E+03  0.24469499382E+02  0.11988048433E+03  0.12700000000E+01 0. -1.
          2    1    1    2  502    0  0.37467586276E+02  0.74868166084E+01 -0.80062680576E+03  0.80153799321E+03  0.00000000000E+00 0. -1.
          3    1    1    2  503    0  0.56439673491E+02 -0.76713017671E+02  0.11338633914E+04  0.11378561043E+04  0.00000000000E+00 0. -1.
<mgrwt>
<rscale>  0 0.60456801E+02</rscale>
<asrwt>0</asrwt>
<pdfrwt beam="1">  1        2 0.18976610E+00 0.95660549E+02</pdfrwt>
<pdfrwt beam="2">  1        1 0.13512377E+00 0.38208277E+02</pdfrwt>
<totfact> 0.62318890E+01</totfact>
</mgrwt>
</event>
<event>
 7    1  0.5277388E-004  0.2840166E+02  0.7546771E-02  0.1630978E+00
          1   -1    0    0  502    0 -0.00000000000E+00  0.00000000000E+00  0.11175424248E+03  0.11175424248E+03  0.00000000000E+00 0. -1.
          2   -1    0    0  503    0  0.00000000000E+00 -0.00000000000E+00 -0.13333775145E+03  0.13333775145E+03  0.00000000000E+00 0. -1.
         25    2    1    2    0    0  0.39213554860E+02 -0.99092080153E+01  0.21579285779E+01  0.13139894135E+03  0.12500051938E+03 0.  0.
          4    1    3    3  501    0  0.64845852548E+02 -0.50327722683E+02 -0.79083945186E+01  0.82474358846E+02  0.12700000000E+01 0.  1.
         -4    1    3    3    0  501 -0.25632297689E+02  0.40418514668E+02  0.10066323097E+02  0.48924582506E+02  0.12700000000E+01 0.  1.
          2    1    1    2  502    0 -0.13757466816E+02  0.22172668122E+02  0.37824833707E+02  0.45952292106E+02  0.00000000000E+00 0. -1.
          1    1    1    2  503    0 -0.25456088044E+02 -0.12263460107E+02 -0.61566271255E+02  0.67740760466E+02  0.00000000000E+00 0. -1.
<mgrwt>
<rscale>  0 0.27223370E+02</rscale>
<asrwt>0</asrwt>
<pdfrwt beam="2">  1        2 0.20513500E-01 0.28401656E+02</pdfrwt>
<pdfrwt beam="1">  1        1 0.17192961E-01 0.26093967E+02</pdfrwt>
<totfact> 0.93140175E+03</totfact>
</mgrwt>
</event>
<event>
 7    1  0.5277388E-004  0.7125960E+02  0.7546771E-02  0.1396751E+00
          2   -1    0    0  503    0  0.00000000000E+00  0.00000000000E+00  0.88574811505E+03  0.88574811505E+03  0.00000000000E+00 0. -1.
         -2   -1    0    0    0  501 -0.00000000000E+00 -0.00000000000E+00 -0.49444652702E+02  0.49444652702E+02  0.00000000000E+00 0.  1.
         25    2    1    2    0    0  0.39803880282E+01 -0.33356741764E+02  0.32281746008E+03  0.34780189379E+03  0.12500611618E+03 0.  0.
          4    1    3    3  502    0  0.46750350661E+02 -0.60795507506E+02  0.22234127288E+03  0.23519979495E+03  0.12700000000E+01 0.  1.
         -4    1    3    3    0  502 -0.42769962633E+02  0.27438765742E+02  0.10047618720E+03  0.11260209884E+03  0.12700000000E+01 0.  1.
          1    1    1    2  503    0 -0.36020678849E+02 -0.36041213209E+02  0.50822469255E+03  0.51077274445E+03  0.00000000000E+00 0. -1.
         -1    1    1    2    0  501  0.32040290821E+02  0.69397954973E+02  0.52613097232E+01  0.76618129515E+02  0.00000000000E+00 0.  1.
<mgrwt>
<rscale>  0 0.60258322E+02</rscale>
<asrwt>0</asrwt>
<pdfrwt beam="1">  1        2 0.13626893E+00 0.50955455E+02</pdfrwt>
<pdfrwt beam="2">  1       -2 0.76068703E-02 0.71259601E+02</pdfrwt>
<totfact> 0.30956407E+03</totfact>
</mgrwt>
</event>
<event>
 7    1  0.5277388E-004  0.6271433E+02  0.7546771E-02  0.1459619E+00
          1   -1    0    0  503    0  0.00000000000E+00  0.00000000000E+00  0.17527941718E+04  0.17527941718E+04  0.00000000000E+00 0. -1.
         -1   -1    0    0    0  501 -0.00000000000E+00 -0.00000000000E+00 -0.88333387294E+02  0.88333387294E+02  0.00000000000E+00 0.  1.
         25    2    1    2    0    0  0.96166733048E+02 -0.13930522096E+02  0.30761377897E+03  0.34597040502E+03  0.12500873627E+03 0.  0.
          4    1    3    3  502    0  0.62199223404E+02  0.51588098400E+02  0.12329967862E+03  0.14742624914E+03  0.12700000000E+01 0. -1.
         -4    1    3    3    0  502  0.33967509644E+02 -0.65518620496E+02  0.18431410036E+03  0.19854415588E+03  0.12700000000E+01 0. -1.
          2    1    1    2  503    0 -0.35459768697E+02  0.55814300473E+01  0.14121543611E+04  0.14126105221E+04  0.00000000000E+00 0. -1.
         -2    1    1    2    0  501 -0.60706964351E+02  0.83490920488E+01 -0.55307355614E+02  0.82546631935E+02  0.00000000000E+00 0.  1.
<mgrwt>
<rscale>  0 0.47446971E+02</rscale>
<asrwt>0</asrwt>
<pdfrwt beam="1">  1        1 0.26966062E+00 0.35896345E+02</pdfrwt>
<pdfrwt beam="2">  1       -1 0.13589753E-01 0.62714327E+02</pdfrwt>
<totfact> 0.21496244E+02</totfact>
</mgrwt>
</event>
<event>
 7    1  0.5277388E-004  0.6463746E+02  0.7546771E-02  0.1478326E+00
          2   -1    0    0  503    0  0.00000000000E+00  0.00000000000E+00  0.19796737489E+04  0.19796737489E+04  0.00000000000E+00 0. -1.
          1   -1    0    0  502    0 -0.00000000000E+00 -0.00000000000E+00 -0.58359902496E+03  0.58359902496E+03  0.00000000000E+00 0. -1.
         25    2    1    2    0    0  0.49439868636E+02  0.72772402364E+02  0.44912121908E+03  0.47442280033E+03  0.12500800329E+03 0.  0.
          4    1    3    3  501    0  0.61414249965E+02  0.26252411306E+02  0.40060721360E+03  0.40613870991E+03  0.12700000000E+01 0. -1.
         -4    1    3    3    0  501 -0.11974381329E+02  0.46519991058E+02  0.48514005474E+02  0.68284090412E+02  0.12700000000E+01 0. -1.
          2    1    1    2  502    0 -0.21390409887E+02 -0.60909952430E+02 -0.56896995624E+03  0.57262062750E+03  0.00000000000E+00 0. -1.
          1    1    1    2  503    0 -0.28049458749E+02 -0.11862449934E+02  0.15159234611E+04  0.15162293460E+04  0.00000000000E+00 0. -1.
<mgrwt>
<rscale>  0 0.44367956E+02</rscale>
<asrwt>0</asrwt>
<pdfrwt beam="1">  1        2 0.30456519E+00 0.30454718E+02</pdfrwt>
<pdfrwt beam="2">  1        1 0.89784466E-01 0.64637457E+02</pdfrwt>
<totfact> 0.50876139E+01</totfact>
</mgrwt>
</event>
<event>
 7    1  0.5277388E-004  0.1059602E+03  0.7546771E-02  0.1369633E+00
          2   -1    0    0  503    0  0.00000000000E+00  0.00000000000E+00  0.45147363582E+04  0.45147363582E+04  0.00000000000E+00 0.  1.
         -2   -1    0    0    0  501 -0.00000000000E+00 -0.00000000000E+00 -0.59659951224E+01  0.59659951224E+01  0.00000000000E+00 0. -1.
         25    2    1    2    0    0 -0.86667870215E+02 -0.70635084439E+02  0.30476213838E+04  0.30522320770E+04  0.12499567278E+03 0.  0.
          4    1    3    3  502    0 -0.51281611228E+02 -0.29019346383E+02  0.26727144593E+04  0.26733641951E+04  0.12700000000E+01 0. -1.
         -4    1    3    3    0  502 -0.35386258988E+02 -0.41615738056E+02  0.37490692451E+03  0.37886788188E+03  0.12700000000E+01 0. -1.
          1    1    1    2  503    0  0.99223389914E+02  0.29816142282E+02  0.10048085675E+04  0.10101359021E+04  0.00000000000E+00 0. -1.
         -1    1    1    2    0  501 -0.12555519699E+02  0.40818942157E+02  0.45634041186E+03  0.45833437424E+03  0.00000000000E+00 0.  1.
<mgrwt>
<rscale>  0 0.67269355E+02</rscale>
<asrwt>0</asrwt>
<pdfrwt beam="1">  1        2 0.69457209E+00 0.10596018E+03</pdfrwt>
<pdfrwt beam="2">  1       -2 0.91784901E-03 0.42706289E+02</pdfrwt>
<totfact> 0.36823926E+02</totfact>
</mgrwt>
</event>
<event>
 7    1  0.5277388E-004  0.4689663E+02  0.7546771E-02  0.1483217E+00
          2   -1    0    0  503    0  0.00000000000E+00  0.00000000000E+00  0.26799073740E+04  0.26799073740E+04  0.00000000000E+00 0. -1.
         -2   -1    0    0    0  501 -0.00000000000E+00 -0.00000000000E+00 -0.10215758077E+03  0.10215758077E+03  0.00000000000E+00 0.  1.
         25    2    1    2    0    0  0.35329501705E+02  0.12638151547E+02 -0.85206907530E+00  0.13051239611E+03  0.12499945181E+03 0.  0.
          4    1    3    3  502    0  0.10569384551E+02  0.18786799164E+02  0.60401983187E+02  0.64145679399E+02  0.12700000000E+01 0. -1.
         -4    1    3    3    0  502  0.24760117154E+02 -0.61486476162E+01 -0.61254052263E+02  0.66366716716E+02  0.12700000000E+01 0. -1.
          1    1    1    2  503    0 -0.16605941090E+02  0.36995743713E+02  0.25955470626E+04  0.25958638247E+04  0.00000000000E+00 0. -1.
         -1    1    1    2    0  501 -0.18723560615E+02 -0.49633895260E+02 -0.16945200246E+02  0.55688733979E+02  0.00000000000E+00 0.  1.
<mgrwt>
<rscale>  0 0.43608934E+02</rscale>
<asrwt>0</asrwt>
<pdfrwt beam="1">  1        2 0.41229339E+00 0.40551724E+02</pdfrwt>
<pdfrwt beam="2">  1       -2 0.15716553E-01 0.46896629E+02</pdfrwt>
<totfact> 0.12294367E+02</totfact>
</mgrwt>
</event>
<event>
 7    1  0.5277388E-004  0.9603354E+02  0.7546771E-02  0.1389259E+00
         -2   -1    0    0    0  501 -0.00000000000E+00  0.00000000000E+00  0.16282712966E+03  0.16282712966E+03  0.00000000000E+00 0.  1.
          2   -1    0    0  503    0  0.00000000000E+00 -0.00000000000E+00 -0.13429518478E+04  0.13429518478E+04  0.00000000000E+00 0. -1.
         25    2    1    2    0    0  0.11699168562E+03 -0.65941706968E+02 -0.39990882885E+03  0.43998335884E+03  0.12499168550E+03 0.  0.
          4    1    3    3  502    0 -0.15006479974E+02 -0.17418485456E+02 -0.16188642441E+03  0.16351582610E+03  0.12700000000E+01 0. -1.
         -4    1    3    3    0  502  0.13199816559E+03 -0.48523221512E+02 -0.23802240444E+03  0.27646753274E+03  0.12700000000E+01 0. -1.
          1    1    1    2  503    0 -0.37184285689E+02  0.15133477752E+02 -0.90684166460E+03  0.90772985954E+03  0.00000000000E+00 0. -1.
         -1    1    1    2    0  501 -0.79807399930E+02  0.50808229216E+02  0.12662577528E+03  0.15806575911E+03  0.00000000000E+00 0.  1.
<mgrwt>
<rscale>  0 0.62091487E+02</rscale>
<asrwt>0</asrwt>
<pdfrwt beam="2">  1        2 0.20660797E+00 0.40145900E+02</pdfrwt>
<pdfrwt beam="1">  1       -2 0.25050328E-01 0.96033538E+02</pdfrwt>
<totfact> 0.26560161E+02</totfact>
</mgrwt>
</event>
<event>
 7    1  0.5277388E-004  0.1378873E+03  0.7546771E-02  0.1323143E+00
          1   -1    0    0  502    0 -0.00000000000E+00  0.00000000000E+00  0.24025710201E+03  0.24025710201E+03  0.00000000000E+00 0. -1.
          2   -1    0    0  503    0  0.00000000000E+00 -0.00000000000E+00 -0.55208953806E+03  0.55208953806E+03  0.00000000000E+00 0. -1.
         25    2    1    2    0    0 -0.11176927700E+03  0.11859476025E+02 -0.40975507853E+03  0.44289389101E+03  0.12499102314E+03 0.  0.
          4    1    3    3  501    0  0.82813904121E+01  0.42946386100E+02 -0.95208347767E+02  0.10478175362E+03  0.12700000000E+01 0. -1.
         -4    1    3    3    0  501 -0.12005066741E+03 -0.31086910075E+02 -0.31454673076E+03  0.33811213740E+03  0.12700000000E+01 0. -1.
          2    1    1    2  502    0  0.13613683415E+03  0.30544092173E+02  0.19557331927E+03  0.24023967697E+03  0.00000000000E+00 0. -1.
          1    1    1    2  503    0 -0.24367557148E+02 -0.42403568198E+02 -0.97650676800E+02  0.10921307210E+03  0.00000000000E+00 0. -1.
<mgrwt>
<rscale>  0 0.82119288E+02</rscale>
<asrwt>0</asrwt>
<pdfrwt beam="2">  1        2 0.84936852E-01 0.48906446E+02</pdfrwt>
<pdfrwt beam="1">  1        1 0.36962631E-01 0.13788729E+03</pdfrwt>
<totfact> 0.90241378E+02</totfact>
</mgrwt>
</event>
<event>
 7    1  0.5277388E-004  0.1445715E+03  0.7546771E-02  0.1321785E+00
         -2   -1    0    0    0  501 -0.00000000000E+00  0.00000000000E+00  0.14365622677E+03  0.14365622677E+03  0.00000000000E+00 0.  1.
          2   -1    0    0  503    0  0.00000000000E+00 -0.00000000000E+00 -0.37827466499E+04  0.37827466499E+04  0.00000000000E+00 0. -1.
         25    2    1    2    0    0 -0.11147091503E+03 -0.17927937555E+02 -0.89869700587E+03  0.91434684947E+03  0.12500670750E+03 0.  0.
          4    1    3    3  502    0 -0.33835659813E+02  0.50405102671E+02 -0.43750016365E+03  0.44169393514E+03  0.12700000000E+01 0.  1.
         -4    1    3    3    0  502 -0.77635255221E+02 -0.68333040226E+02 -0.46119684223E+03  0.47265291432E+03  0.12700000000E+01 0.  1.
          1    1    1    2  503    0  0.14420443918E+03  0.51950101737E+02 -0.28700144883E+04  0.28741045382E+04  0.00000000000E+00 0. -1.
         -1    1    1    2    0  501 -0.32733524143E+02 -0.34022164182E+02  0.12962107106E+03  0.13795148901E+03  0.00000000000E+00 0.  1.
<mgrwt>
<rscale>  0 0.82616822E+02</rscale>
<asrwt>0</asrwt>
<pdfrwt beam="2">  1        2 0.58196100E+00 0.14457153E+03</pdfrwt>
<pdfrwt beam="1">  1       -2 0.22100959E-01 0.47212194E+02</pdfrwt>
<totfact> 0.12260759E+01</totfact>
</mgrwt>
</event>
<event>
 7    1  0.5277388E-004  0.1675436E+03  0.7546771E-02  0.1249605E+00
         -1   -1    0    0    0  501 -0.00000000000E+00  0.00000000000E+00  0.15136516317E+04  0.15136516317E+04  0.00000000000E+00 0.  1.
          1   -1    0    0  503    0  0.00000000000E+00 -0.00000000000E+00 -0.58533867578E+03  0.58533867578E+03  0.00000000000E+00 0. -1.
         25    2    1    2    0    0 -0.90332620202E+02  0.22576388621E+02  0.24955264187E+02  0.15784296270E+03  0.12498783968E+03 0.  0.
          4    1    3    3  502    0 -0.58424206373E+02  0.72965567479E+02  0.81007166459E+00  0.93485993838E+02  0.12700000000E+01 0.  1.
         -4    1    3    3    0  502 -0.31908413829E+02 -0.50389178858E+02  0.24145192522E+02  0.64356968861E+02  0.12700000000E+01 0.  1.
          2    1    1    2  503    0 -0.79383034503E+02  0.13405527949E+02 -0.51043757465E+03  0.51674741602E+03  0.00000000000E+00 0. -1.
         -2    1    1    2    0  501  0.16971565471E+03 -0.35981916570E+02  0.14137952663E+04  0.14243999287E+04  0.00000000000E+00 0.  1.
<mgrwt>
<rscale>  0 0.11613970E+03</rscale>
<asrwt>0</asrwt>
<pdfrwt beam="2">  1        1 0.90052105E-01 0.80506983E+02</pdfrwt>
<pdfrwt beam="1">  1       -1 0.23286948E+00 0.16754359E+03</pdfrwt>
<totfact> 0.41015027E+00</totfact>
</mgrwt>
</event>
<event>
 7    1  0.5277388E-004  0.9735479E+02  0.7546771E-02  0.1375156E+00
          2   -1    0    0  503    0  0.00000000000E+00  0.00000000000E+00  0.37600473987E+04  0.37600473987E+04  0.00000000000E+00 0. -1.
          1   -1    0    0  502    0 -0.00000000000E+00 -0.00000000000E+00 -0.39101299940E+02  0.39101299940E+02  0.00000000000E+00 0. -1.
         25    2    1    2    0    0  0.98337976972E+02 -0.75505746313E+02  0.12540183035E+04  0.12663169524E+04  0.12500097269E+03 0.  0.
          4    1    3    3  501    0  0.78429839624E+02 -0.62459644801E+02  0.41432560670E+03  0.42628601694E+03  0.12700000000E+01 0. -1.
         -4    1    3    3    0  501  0.19908137348E+02 -0.13046101512E+02  0.83969269677E+03  0.84003093550E+03  0.12700000000E+01 0. -1.
          2    1    1    2  502    0 -0.54109142837E+02  0.79526805426E+02  0.37881508657E+02  0.10337949902E+03  0.00000000000E+00 0. -1.
          1    1    1    2  503    0 -0.44228834136E+02 -0.40210591134E+01  0.24290462866E+04  0.24294522472E+04  0.00000000000E+00 0. -1.
<mgrwt>
<rscale>  0 0.65754447E+02</rscale>
<asrwt>0</asrwt>
<pdfrwt beam="1">  1        2 0.57846855E+00 0.44411245E+02</pdfrwt>
<pdfrwt beam="2">  1        1 0.60155876E-02 0.97354787E+02</pdfrwt>
<totfact> 0.15664327E+02</totfact>
</mgrwt>
</event>
<event>
 7    1  0.5277388E-004  0.6377988E+02  0.7546771E-02  0.1419230E+00
          2   -1    0    0  503    0  0.00000000000E+00  0.00000000000E+00  0.28648993788E+03  0.28648993788E+03  0.00000000000E+00 0. -1.
         -2   -1    0    0    0  501 -0.00000000000E+00 -0.00000000000E+00 -0.28819032040E+03  0.28819032040E+03  0.00000000000E+00 0.  1.
         25    2    1    2    0    0  0.11959033284E+01 -0.27737140740E+02  0.77427773242E+02  0.14963441158E+03  0.12499847159E+03 0.  0.
          4    1    3    3  502    0 -0.21186266134E+02 -0.73762217205E+02  0.49258682529E+02  0.91201717440E+02  0.12700000000E+01 0.  1.
         -4    1    3    3    0  502  0.22382169462E+02  0.46025076465E+02  0.28169090713E+02  0.58432694144E+02  0.12700000000E+01 0.  1.
          1    1    1    2  503    0 -0.41351919636E+02 -0.23870500340E+02  0.16528153301E+03  0.17204001627E+03  0.00000000000E+00 0. -1.
         -1    1    1    2    0  501  0.40156016308E+02  0.51607641080E+02 -0.24440968877E+03  0.25300583043E+03  0.00000000000E+00 0.  1.
<mgrwt>
<rscale>  0 0.55184253E+02</rscale>
<asrwt>0</asrwt>
<pdfrwt beam="1">  1        2 0.44075375E-01 0.47747063E+02</pdfrwt>
<pdfrwt beam="2">  1       -2 0.44336973E-01 0.63779877E+02</pdfrwt>
<totfact> 0.55225596E+02</totfact>
</mgrwt>
</event>
<event>
 7    1  0.5277388E-004  0.2123287E+03  0.7546771E-02  0.1270776E+00
          2   -1    0    0  503    0  0.00000000000E+00  0.00000000000E+00  0.10685890178E+03  0.10685890178E+03  0.00000000000E+00 0. -1.
          1   -1    0    0  502    0 -0.00000000000E+00 -0.00000000000E+00 -0.13918883704E+04  0.13918883704E+04  0.00000000000E+00 0. -1.
         25    2    1    2    0    0  0.20267396215E+03 -0.90817047441E+02 -0.76496150345E+03  0.80630110872E+03  0.12502361830E+03 0.  0.
          4    1    3    3  501    0  0.13492283824E+03 -0.10492945208E+03 -0.40249696551E+03  0.43728684217E+03  0.12700000000E+01 0.  1.
         -4    1    3    3    0  501  0.67751123906E+02  0.14112404636E+02 -0.36246453794E+03  0.36901426655E+03  0.12700000000E+01 0.  1.
          2    1    1    2  502    0  0.51608411758E+01  0.51337080620E+02 -0.47289213447E+03  0.47569854001E+03  0.00000000000E+00 0. -1.
          1    1    1    2  503    0 -0.20783480332E+03  0.39479966821E+02 -0.47175830672E+02  0.21674762341E+03  0.00000000000E+00 0. -1.
<mgrwt>
<rscale>  0 0.10466746E+03</rscale>
<asrwt>0</asrwt>
<pdfrwt beam="1">  1        2 0.16439831E-01 0.21232871E+03</pdfrwt>
<pdfrwt beam="2">  1        1 0.21413667E+00 0.51595834E+02</pdfrwt>
<totfact> 0.46069691E+02</totfact>
</mgrwt>
</event>
<event>
 7    1  0.5277388E-004  0.1291501E+03  0.7546771E-02  0.1361234E+00
          1   -1    0    0  502    0 -0.00000000000E+00  0.00000000000E+00  0.93663377857E+03  0.93663377857E+03  0.00000000000E+00 0. -1.
          2   -1    0    0  503    0  0.00000000000E+00 -0.00000000000E+00 -0.23407169112E+04  0.23407169112E+04  0.00000000000E+00 0. -1.
         25    2    1    2    0    0  0.12610237008E+03 -0.98371603759E+02 -0.53257065905E+03  0.56994334145E+03  0.12500050167E+03 0.  0.
          4    1    3    3  501    0  0.94594424526E+02 -0.11182392444E+03 -0.28927630133E+03  0.32424541113E+03  0.12700000000E+01 0. -1.
         -4    1    3    3    0  501  0.31507945550E+02  0.13452320680E+02 -0.24329435772E+03  0.24569793032E+03  0.12700000000E+01 0. -1.
          2    1    1    2  502    0 -0.88854381070E+02  0.93397322358E+02  0.91322277150E+03  0.92227652645E+03  0.00000000000E+00 0. -1.
          1    1    1    2  503    0 -0.37247989005E+02  0.49742814019E+01 -0.17847352451E+04  0.17851308218E+04  0.00000000000E+00 0. -1.
<mgrwt>
<rscale>  0 0.69665536E+02</rscale>
<asrwt>0</asrwt>
<pdfrwt beam="2">  1        2 0.36011029E+00 0.37578666E+02</pdfrwt>
<pdfrwt beam="1">  1        1 0.14409751E+00 0.12915006E+03</pdfrwt>
<totfact> 0.16201332E+01</totfact>
</mgrwt>
</event>
<event>
 7    1  0.5277388E-004  0.6872800E+02  0.7546771E-02  0.1436543E+00
          2   -1    0    0  503    0  0.00000000000E+00  0.00000000000E+00  0.24751578446E+02  0.24751578446E+02  0.00000000000E+00 0. -1.
          1   -1    0    0  502    0 -0.00000000000E+00 -0.00000000000E+00 -0.21391188118E+04  0.21391188118E+04  0.00000000000E+00 0. -1.
         25    2    1    2    0    0  0.48822580151E+02 -0.25626914913E+02 -0.14368891721E+04  0.14433692986E+04  0.12499622458E+03 0.  0.
          4    1    3    3  501    0 -0.90353050552E+01  0.78746872127E+01 -0.12331839873E+02  0.17243393250E+02  0.12700000000E+01 0.  1.
         -4    1    3    3    0  501  0.57857885206E+02 -0.33501602126E+02 -0.14245573322E+04  0.14261259053E+04  0.12700000000E+01 0.  1.
          2    1    1    2  502    0 -0.15596851013E+02 -0.35575004710E+02 -0.64045528611E+03  0.64163215025E+03  0.00000000000E+00 0. -1.
          1    1    1    2  503    0 -0.33225729138E+02  0.61201919623E+02 -0.37022775204E+02  0.78868941454E+02  0.00000000000E+00 0. -1.
<mgrwt>
<rscale>  0 0.51668735E+02</rscale>
<asrwt>0</asrwt>
<pdfrwt beam="1">  1        2 0.38079360E-02 0.68727995E+02</pdfrwt>
<pdfrwt beam="2">  1        1 0.32909513E+00 0.38843825E+02</pdfrwt>
<totfact> 0.95265881E+02</totfact>
</mgrwt>
</event>
<event>
 7    1  0.5277388E-004  0.2240578E+03  0.7546771E-02  0.1295002E+00
          2   -1    0    0  503    0  0.00000000000E+00  0.00000000000E+00  0.31975299428E+03  0.31975299428E+03  0.00000000000E+00 0. -1.
          1   -1    0    0  502    0 -0.00000000000E+00 -0.00000000000E+00 -0.47565702613E+03  0.47565702613E+03  0.00000000000E+00 0. -1.
         25    2    1    2    0    0  0.49509987783E+02 -0.19476837638E+03 -0.61021290264E+02  0.24440976378E+03  0.12500630159E+03 0.  0.
          4    1    3    3  501    0 -0.15386793423E+02 -0.73774340943E+02  0.28408707756E+02  0.80548583909E+02  0.12700000000E+01 0.  1.
         -4    1    3    3    0  501  0.64896781206E+02 -0.12099403544E+03 -0.89429998020E+02  0.16386117987E+03  0.12700000000E+01 0.  1.
          2    1    1    2  502    0 -0.77090292278E+02  0.22215658454E+03 -0.27782042420E+03  0.36397891329E+03  0.00000000000E+00 0. -1.
          1    1    1    2  503    0  0.27580304496E+02 -0.27388208160E+02  0.18293768261E+03  0.18702134333E+03  0.00000000000E+00 0. -1.
<mgrwt>
<rscale>  0 0.93321312E+02</rscale>
<asrwt>0</asrwt>
<pdfrwt beam="1">  1        2 0.49192769E-01 0.38868845E+02</pdfrwt>
<pdfrwt beam="2">  1        1 0.73178003E-01 0.22405778E+03</pdfrwt>
<totfact> 0.66703783E+02</totfact>
</mgrwt>
</event>
<event>
 7    1  0.5277388E-004  0.1229698E+03  0.7546771E-02  0.1340060E+00
          2   -1    0    0  503    0  0.00000000000E+00  0.00000000000E+00  0.11415970161E+04  0.11415970161E+04  0.00000000000E+00 0. -1.
          1   -1    0    0  502    0 -0.00000000000E+00 -0.00000000000E+00 -0.15107186466E+04  0.15107186466E+04  0.00000000000E+00 0. -1.
         25    2    1    2    0    0 -0.11784339373E+03 -0.63193754932E+02  0.60633794469E+03  0.63336448995E+03  0.12499743136E+03 0.  0.
          4    1    3    3  501    0 -0.42100953375E+02  0.25197981567E+02  0.32816934880E+03  0.33181947342E+03  0.12700000000E+01 0.  1.
         -4    1    3    3    0  501 -0.75742440354E+02 -0.88391736498E+02  0.27816859589E+03  0.30154501652E+03  0.12700000000E+01 0.  1.
          2    1    1    2  502    0 -0.13602127827E+01  0.47254034527E+02 -0.14898951189E+04  0.14906449139E+04  0.00000000000E+00 0. -1.
          1    1    1    2  503    0  0.11920360651E+03  0.15939720405E+02  0.51443554370E+03  0.52830625883E+03  0.00000000000E+00 0. -1.
<mgrwt>
<rscale>  0 0.76244524E+02</rscale>
<asrwt>0</asrwt>
<pdfrwt beam="1">  1        2 0.17563031E+00 0.12296983E+03</pdfrwt>
<pdfrwt beam="2">  1        1 0.23241825E+00 0.47273607E+02</pdfrwt>
<totfact> 0.25922415E+01</totfact>
</mgrwt>
</event>
<event>
 7    1  0.5277388E-004  0.6880521E+02  0.7546771E-02  0.1405349E+00
         -2   -1    0    0    0  501 -0.00000000000E+00  0.00000000000E+00  0.41700383028E+02  0.41700383028E+02  0.00000000000E+00 0.  1.
          2   -1    0    0  503    0  0.00000000000E+00 -0.00000000000E+00 -0.82382522177E+03  0.82382522177E+03  0.00000000000E+00 0. -1.
         25    2    1    2    0    0 -0.67436152079E+02  0.33185042986E+02 -0.46238611886E+03  0.48484563403E+03  0.12500193696E+03 0.  0.
          4    1    3    3  502    0 -0.24098813294E+02 -0.47909821424E+02 -0.18442011591E+03  0.19206378066E+03  0.12700000000E+01 0. -1.
         -4    1    3    3    0  502 -0.43337338785E+02  0.81094864410E+02 -0.27796600295E+03  0.29278185337E+03  0.12700000000E+01 0. -1.
          1    1    1    2  503    0  0.69154194960E+02  0.16090029884E+02 -0.32353009636E+03  0.33122939935E+03  0.00000000000E+00 0. -1.
         -1    1    1    2    0  501 -0.17180428816E+01 -0.49275072870E+02  0.37913764773E+01  0.49450571415E+02  0.00000000000E+00 0.  1.
<mgrwt>
<rscale>  0 0.58244671E+02</rscale>
<asrwt>0</asrwt>
<pdfrwt beam="2">  1        2 0.12674233E+00 0.68805205E+02</pdfrwt>
<pdfrwt beam="1">  1       -2 0.64154440E-02 0.49305015E+02</pdfrwt>
<totfact> 0.41644623E+03</totfact>
</mgrwt>
</event>
<event>
 7    1  0.5277388E-004  0.3726469E+02  0.7546771E-02  0.1604759E+00
          1   -1    0    0  503    0  0.00000000000E+00  0.00000000000E+00  0.40310554679E+02  0.40310554679E+02  0.00000000000E+00 0. -1.
         -1   -1    0    0    0  501 -0.00000000000E+00 -0.00000000000E+00 -0.62863528219E+03  0.62863528219E+03  0.00000000000E+00 0.  1.
         25    2    1    2    0    0 -0.45449979393E+02  0.28832843740E+02 -0.21987050704E+03  0.25858293150E+03  0.12500023637E+03 0.  0.
          4    1    3    3  502    0  0.24948791656E+02 -0.97837041433E+01 -0.14925345538E+03  0.15164554038E+03  0.12700000000E+01 0.  1.
         -4    1    3    3    0  502 -0.70398771049E+02  0.38616547883E+02 -0.70617051660E+02  0.10693739113E+03  0.12700000000E+01 0.  1.
          2    1    1    2  503    0  0.96159263745E+01 -0.21116960052E+02  0.13372419524E+02  0.26780844755E+02  0.00000000000E+00 0. -1.
         -2    1    1    2    0  501  0.35834053018E+02 -0.77158836885E+01 -0.38182663999E+03  0.38358206061E+03  0.00000000000E+00 0.  1.
<mgrwt>
<rscale>  0 0.29405152E+02</rscale>
<asrwt>0</asrwt>
<pdfrwt beam="1">  1        1 0.62016239E-02 0.23203277E+02</pdfrwt>
<pdfrwt beam="2">  1       -1 0.96713119E-01 0.37264692E+02</pdfrwt>
<totfact> 0.11644133E+03</totfact>
</mgrwt>
</event>
<event>
 7    1  0.5277388E-004  0.3812399E+02  0.7546771E-02  0.1534384E+00
          1   -1    0    0  502    0 -0.00000000000E+00  0.00000000000E+00  0.14559153204E+02  0.14559153204E+02  0.00000000000E+00 0. -1.
          2   -1    0    0  503    0  0.00000000000E+00 -0.00000000000E+00 -0.31945816211E+04  0.31945816211E+04  0.00000000000E+00 0. -1.
         25    2    1    2    0    0 -0.44911721138E+01  0.35672889987E+02 -0.40254098671E+03  0.42303148964E+03  0.12499467804E+03 0.  0.
          4    1    3    3  501    0 -0.15692495123E+02  0.81406642716E+02 -0.26203860312E+03  0.27484384350E+03  0.12700000000E+01 0.  1.
         -4    1    3    3    0  501  0.11201323009E+02 -0.45733752729E+02 -0.14050238359E+03  0.14818764614E+03  0.12700000000E+01 0.  1.
          2    1    1    2  502    0 -0.31305974072E+02 -0.22557895313E+02 -0.84893591149E+02  0.93251511901E+02  0.00000000000E+00 0. -1.
          1    1    1    2  503    0  0.35797146186E+02 -0.13114994674E+02 -0.26925878901E+04  0.26928577728E+04  0.00000000000E+00 0. -1.
<mgrwt>
<rscale>  0 0.36654113E+02</rscale>
<asrwt>0</asrwt>
<pdfrwt beam="2">  1        2 0.49147438E+00 0.38123992E+02</pdfrwt>
<pdfrwt beam="1">  1        1 0.22398684E-02 0.35240905E+02</pdfrwt>
<totfact> 0.12016356E+03</totfact>
</mgrwt>
</event>
<event>
 7    1  0.5277388E-004  0.5451567E+02  0.7546771E-02  0.1430487E+00
          1   -1    0    0  502    0 -0.00000000000E+00  0.00000000000E+00  0.24414866847E+04  0.24414866847E+04  0.00000000000E+00 0. -1.
          2   -1    0    0  503    0  0.00000000000E+00 -0.00000000000E+00 -0.15533820603E+04  0.15533820603E+04  0.00000000000E+00 0. -1.
         25    2    1    2    0    0  0.85026410861E+02  0.56784879475E+02 -0.12269504758E+03  0.20281814730E+03  0.12500845209E+03 0.  0.
          4    1    3    3  501    0  0.67929043152E+02 -0.27964047346E+02 -0.70474690260E+02  0.10180686477E+03  0.12700000000E+01 0.  1.
         -4    1    3    3    0  501  0.17097367709E+02  0.84748926822E+02 -0.52220357322E+02  0.10101128253E+03  0.12700000000E+01 0.  1.
          2    1    1    2  502    0 -0.36447486637E+02 -0.40426828265E+02  0.24006441740E+04  0.24012611682E+04  0.00000000000E+00 0. -1.
          1    1    1    2  503    0 -0.48578924224E+02 -0.16358051210E+02 -0.13898445019E+04  0.13907894295E+04  0.00000000000E+00 0. -1.
<mgrwt>
<rscale>  0 0.52862327E+02</rscale>
<asrwt>0</asrwt>
<pdfrwt beam="2">  1        2 0.23898186E+00 0.51259123E+02</pdfrwt>
<pdfrwt beam="1">  1        1 0.37561334E+00 0.54515674E+02</pdfrwt>
<totfact> 0.44141427E+00</totfact>
</mgrwt>
</event>
<event>
 7    1  0.5277388E-004  0.1711533E+03  0.7546771E-02  0.1270214E+00
         -2   -1    0    0    0  501 -0.00000000000E+00  0.00000000000E+00  0.46871926055E+03  0.46871926055E+03  0.00000000000E+00 0.  1.
          2   -1    0    0  503    0  0.00000000000E+00 -0.00000000000E+00 -0.11255973378E+04  0.11255973378E+04  0.00000000000E+00 0. -1.
         25    2    1    2    0    0 -0.12604510162E+03 -0.72464899275E+02 -0.11828714670E+02  0.19210431080E+03  0.12500247385E+03 0.  0.
          4    1    3    3  502    0 -0.12190929766E+03 -0.36076794457E+02  0.35728833798E+02  0.13206655299E+03  0.12700000000E+01 0. -1.
         -4    1    3    3    0  502 -0.41358039586E+01 -0.36388104818E+02 -0.47557548468E+02  0.60037757810E+02  0.12700000000E+01 0. -1.
          1    1    1    2  503    0  0.11071228957E+02 -0.63397927951E+02 -0.10016221989E+04  0.10036876500E+04  0.00000000000E+00 0. -1.
         -1    1    1    2    0  501  0.11497387266E+03  0.13586282723E+03  0.35657283628E+03  0.39852463762E+03  0.00000000000E+00 0.  1.
<mgrwt>
<rscale>  0 0.10495225E+03</rscale>
<asrwt>0</asrwt>
<pdfrwt beam="2">  1        2 0.17316882E+00 0.64357357E+02</pdfrwt>
<pdfrwt beam="1">  1       -2 0.72110657E-01 0.17115330E+03</pdfrwt>
<totfact> 0.43911900E+01</totfact>
</mgrwt>
</event>
<event>
 7    1  0.5277388E-004  0.9237615E+02  0.7546771E-02  0.1349998E+00
          1   -1    0    0  502    0 -0.00000000000E+00  0.00000000000E+00  0.62663197516E+03  0.62663197516E+03  0.00000000000E+00 0. -1.
          2   -1    0    0  503    0  0.00000000000E+00 -0.00000000000E+00 -0.30025011244E+04  0.30025011244E+04  0.00000000000E+00 0. -1.
         25    2    1    2    0    0 -0.63202487304E+02  0.22989502299E+01 -0.23318397274E+03  0.27203148567E+03  0.12500609777E+03 0.  0.
          4    1    3    3  501    0 -0.67520565026E+02  0.55052412510E+02 -0.14728297792E+03  0.17112475949E+03  0.12700000000E+01 0.  1.
         -4    1    3    3    0  501  0.43180777225E+01 -0.52753462280E+02 -0.85900994821E+02  0.10090672618E+03  0.12700000000E+01 0.  1.
          2    1    1    2  502    0  0.75584120042E+02  0.54135868722E+02  0.60334379195E+03  0.61046489069E+03  0.00000000000E+00 0. -1.
          1    1    1    2  503    0 -0.12381632739E+02 -0.56434818952E+02 -0.27460289684E+04  0.27466367232E+04  0.00000000000E+00 0. -1.
<mgrwt>
<rscale>  0 0.73056322E+02</rscale>
<asrwt>0</asrwt>
<pdfrwt beam="2">  1        2 0.46192325E+00 0.57777103E+02</pdfrwt>
<pdfrwt beam="1">  1        1 0.96404920E-01 0.92376146E+02</pdfrwt>
<totfact> 0.12526903E+01</totfact>
</mgrwt>
</event>
<event>
 7    1  0.5277388E-004  0.5209147E+02  0.7546771E-02  0.1476844E+00
          2   -1    0    0  503    0  0.00000000000E+00  0.00000000000E+00  0.11073723163E+03  0.11073723163E+03  0.00000000000E+00 0. -1.
          1   -1    0    0  502    0 -0.00000000000E+00 -0.00000000000E+00 -0.11642366324E+04  0.11642366324E+04  0.00000000000E+00 0. -1.
         25    2    1    2    0    0  0.39737011404E+02  0.17866857647E+02 -0.16460548894E+03  0.21123073720E+03  0.12500081068E+03 0.  0.
          4    1    3    3  501    0  0.98420858521E+01  0.14979905871E+02 -0.17758191319E+03  0.17848869159E+03  0.12700000000E+01 0. -1.
         -4    1    3    3    0  501  0.29894925552E+02  0.28869517752E+01  0.12976424251E+02  0.32742045608E+02  0.12700000000E+01 0. -1.
          2    1    1    2  502    0 -0.49147380481E+02  0.19144188872E+02 -0.97139829493E+03  0.97282917944E+03  0.00000000000E+00 0. -1.
          1    1    1    2  503    0  0.94103690775E+01 -0.37011046518E+02  0.82504383072E+02  0.90913947426E+02  0.00000000000E+00 0. -1.
<mgrwt>
<rscale>  0 0.44601601E+02</rscale>
<asrwt>0</asrwt>
<pdfrwt beam="1">  1        2 0.17036496E-01 0.38188645E+02</pdfrwt>
<pdfrwt beam="2">  1        1 0.17911334E+00 0.52091475E+02</pdfrwt>
<totfact> 0.57418897E+02</totfact>
</mgrwt>
</event>
<event>
 7    1  0.5277388E-004  0.8046641E+02  0.7546771E-02  0.1349125E+00
          1   -1    0    0  502    0 -0.00000000000E+00  0.00000000000E+00  0.53973210756E+02  0.53973210756E+02  0.00000000000E+00 0. -1.
          2   -1    0    0  503    0  0.00000000000E+00 -0.00000000000E+00 -0.11651052949E+04  0.11651052949E+04  0.00000000000E+00 0. -1.
         25    2    1    2    0    0 -0.16702076512E+02 -0.96458689072E+02 -0.37012420150E+03  0.40273970053E+03  0.12499641509E+03 0.  0.
          4    1    3    3  501    0  0.43632536230E+02 -0.12754769209E+02 -0.18791611878E+03  0.19334053624E+03  0.12700000000E+01 0.  1.
         -4    1    3    3    0  501 -0.60334612742E+02 -0.83703919863E+02 -0.18220808273E+03  0.20939916429E+03  0.12700000000E+01 0.  1.
          2    1    1    2  502    0 -0.47581460393E+02  0.46920556718E+02  0.39803959074E+01  0.66943092007E+02  0.00000000000E+00 0. -1.
          1    1    1    2  503    0  0.64283536905E+02  0.49538132354E+02 -0.74498827858E+03  0.74939571316E+03  0.00000000000E+00 0. -1.
<mgrwt>
<rscale>  0 0.73328982E+02</rscale>
<asrwt>0</asrwt>
<pdfrwt beam="2">  1        2 0.17924697E+00 0.80466407E+02</pdfrwt>
<pdfrwt beam="1">  1        1 0.83035709E-02 0.66824651E+02</pdfrwt>
<totfact> 0.22972343E+03</totfact>
</mgrwt>
</event>
<event>
 7    1  0.5277388E-004  0.3682199E+02  0.7546771E-02  0.1555512E+00
          1   -1    0    0  502    0 -0.00000000000E+00  0.00000000000E+00  0.58153615402E+03  0.58153615402E+03  0.00000000000E+00 0. -1.
          2   -1    0    0  503    0  0.00000000000E+00 -0.00000000000E+00 -0.39776776323E+03  0.39776776323E+03  0.00000000000E+00 0. -1.
         25    2    1    2    0    0  0.18695997621E+02 -0.53799802964E+02 -0.12911552714E+03  0.18851953209E+03  0.12499934202E+03 0.  0.
          4    1    3    3  501    0 -0.24587641772E+02  0.32390015728E+02 -0.33487558207E+02  0.52694351703E+02  0.12700000000E+01 0.  1.
         -4    1    3    3    0  501  0.43283639393E+02 -0.86189818691E+02 -0.95627968929E+02  0.13582518038E+03  0.12700000000E+01 0.  1.
          2    1    1    2  502    0 -0.28319533746E+02  0.23461988122E+02  0.55015768857E+03  0.55138547602E+03  0.00000000000E+00 0. -1.
          1    1    1    2  503    0  0.96235361245E+01  0.30337814841E+02 -0.23727377065E+03  0.23939890913E+03  0.00000000000E+00 0. -1.
<mgrwt>
<rscale>  0 0.34233829E+02</rscale>
<asrwt>0</asrwt>
<pdfrwt beam="2">  1        2 0.61195041E-01 0.31827590E+02</pdfrwt>
<pdfrwt beam="1">  1        1 0.89467100E-01 0.36821985E+02</pdfrwt>
<totfact> 0.43173700E+02</totfact>
</mgrwt>
</event>
<event>
 7    1  0.5277388E-004  0.4591237E+02  0.7546771E-02  0.1577370E+00
          2   -1    0    0  503    0  0.00000000000E+00  0.00000000000E+00  0.43463668292E+03  0.43463668292E+03  0.00000000000E+00 0. -1.
         -2   -1    0    0    0  501 -0.00000000000E+00 -0.00000000000E+00 -0.16441790589E+03  0.16441790589E+03  0.00000000000E+00 0.  1.
         25    2    1    2    0    0  0.29606792112E+02 -0.14447180886E+02  0.91706237297E+02  0.15849242910E+03  0.12499813178E+03 0.  0.
          4    1    3    3  502    0  0.75897046815E+02  0.99365479446E+01  0.60352695849E+02  0.97484139718E+02  0.12700000000E+01 0.  1.
         -4    1    3    3    0  502 -0.46290254703E+02 -0.24383728830E+02  0.31353541448E+02  0.61008289383E+02  0.12700000000E+01 0.  1.
          1    1    1    2  503    0 -0.46766175415E+02  0.28434352311E+00  0.30680791233E+03  0.31035181823E+03  0.00000000000E+00 0. -1.
         -1    1    1    2    0  501  0.17159383303E+02  0.14162837363E+02 -0.12829537260E+03  0.13021034148E+03  0.00000000000E+00 0.  1.
<mgrwt>
<rscale>  0 0.31961181E+02</rscale>
<asrwt>0</asrwt>
<pdfrwt beam="1">  1        2 0.66867181E-01 0.45912369E+02</pdfrwt>
<pdfrwt beam="2">  1       -2 0.25295063E-01 0.22249279E+02</pdfrwt>
<totfact> 0.94739819E+02</totfact>
</mgrwt>
</event>
<event>
 7    1  0.5277388E-004  0.5348805E+02  0.7546771E-02  0.1467635E+00
          2   -1    0    0  503    0  0.00000000000E+00  0.00000000000E+00  0.51123446839E+03  0.51123446839E+03  0.00000000000E+00 0. -1.
          1   -1    0    0  502    0 -0.00000000000E+00 -0.00000000000E+00 -0.49777422932E+03  0.49777422932E+03  0.00000000000E+00 0. -1.
         25    2    1    2    0    0 -0.22102309269E+02 -0.85313849664E+02 -0.49114328371E+02  0.16063573353E+03  0.12499862645E+03 0.  0.
          4    1    3    3  501    0  0.54238854628E+01  0.13348089565E+02  0.28603767596E+02  0.32052744801E+02  0.12700000000E+01 0.  1.
         -4    1    3    3    0  501 -0.27526194732E+02 -0.98661939229E+02 -0.77718095967E+02  0.12858298873E+03  0.12700000000E+01 0.  1.
          2    1    1    2  502    0  0.25705512983E+02  0.45758347707E+02 -0.39027329688E+03  0.39378654883E+03  0.00000000000E+00 0. -1.
          1    1    1    2  503    0 -0.36032037140E+01  0.39555501957E+02  0.45284786432E+03  0.45458641536E+03  0.00000000000E+00 0. -1.
<mgrwt>
<rscale>  0 0.46092369E+02</rscale>
<asrwt>0</asrwt>
<pdfrwt beam="1">  1        2 0.78651457E-01 0.39719275E+02</pdfrwt>
<pdfrwt beam="2">  1        1 0.76580650E-01 0.53488047E+02</pdfrwt>
<totfact> 0.40227640E+02</totfact>
</mgrwt>
</event>
<event>
 7    1  0.5277388E-004  0.2871122E+02  0.7546771E-02  0.1622094E+00
          1   -1    0    0  502    0 -0.00000000000E+00  0.00000000000E+00  0.50300244941E+02  0.50300244941E+02  0.00000000000E+00 0. -1.
          2   -1    0    0  503    0  0.00000000000E+00 -0.00000000000E+00 -0.13533949963E+04  0.13533949963E+04  0.00000000000E+00 0. -1.
         25    2    1    2    0    0  0.12392379660E+02 -0.47408682200E+02 -0.15719180178E+03  0.20671945063E+03  0.12499005760E+03 0.  0.
          4    1    3    3  501    0 -0.19238254748E+02  0.29850921373E+02 -0.98355005760E+02  0.10457776059E+03  0.12700000000E+01 0. -1.
         -4    1    3    3    0  501  0.31630634408E+02 -0.77259603573E+02 -0.58836796024E+02  0.10214169004E+03  0.12700000000E+01 0. -1.
          2    1    1    2  502    0  0.69039573986E+01  0.26289925508E+02  0.18077509649E+02  0.32643853420E+02  0.00000000000E+00 0. -1.
          1    1    1    2  503    0 -0.19296337059E+02  0.21118756692E+02 -0.11639804592E+04  0.11643319372E+04  0.00000000000E+00 0. -1.
<mgrwt>
<rscale>  0 0.27935807E+02</rscale>
<asrwt>0</asrwt>
<pdfrwt beam="2">  1        2 0.20821462E+00 0.28711224E+02</pdfrwt>
<pdfrwt beam="1">  1        1 0.77384992E-02 0.27181332E+02</pdfrwt>
<totfact> 0.19953764E+03</totfact>
</mgrwt>
</event>
<event>
 7    1  0.5277388E-004  0.1268529E+03  0.7546771E-02  0.1369416E+00
          2   -1    0    0  503    0  0.00000000000E+00  0.00000000000E+00  0.18998262799E+03  0.18998262799E+03  0.00000000000E+00 0. -1.
          1   -1    0    0  502    0 -0.00000000000E+00 -0.00000000000E+00 -0.65422631790E+03  0.65422631790E+03  0.00000000000E+00 0. -1.
         25    2    1    2    0    0  0.77618358346E+02  0.52570217780E+02  0.28840361473E+02  0.15888419952E+03  0.12499674018E+03 0.  0.
          4    1    3    3  501    0  0.93474866255E+02  0.17319867080E+02  0.57174774984E+02  0.11094185960E+03  0.12700000000E+01 0.  1.
         -4    1    3    3    0  501 -0.15856507909E+02  0.35250350700E+02 -0.28334413511E+02  0.47942339915E+02  0.12700000000E+01 0.  1.
          2    1    1    2  502    0 -0.10526488976E+03 -0.75215037617E+02 -0.57847050719E+03  0.59276144155E+03  0.00000000000E+00 0. -1.
          1    1    1    2  503    0  0.27646531415E+02  0.22644819837E+02  0.85386455804E+02  0.92563304821E+02  0.00000000000E+00 0. -1.
<mgrwt>
<rscale>  0 0.67329912E+02</rscale>
<asrwt>0</asrwt>
<pdfrwt beam="1">  1        2 0.29228097E-01 0.35736796E+02</pdfrwt>
<pdfrwt beam="2">  1        1 0.10065020E+00 0.12685292E+03</pdfrwt>
<totfact> 0.74810701E+02</totfact>
</mgrwt>
</event>
<event>
 7    1  0.7993526E-004  0.4538036E+02  0.7546771E-02  0.1512518E+00
          1   -1    0    0  502    0 -0.00000000000E+00  0.00000000000E+00  0.10586878092E+04  0.10586878092E+04  0.00000000000E+00 0. -1.
          2   -1    0    0  503    0  0.00000000000E+00 -0.00000000000E+00 -0.17946237867E+04  0.17946237867E+04  0.00000000000E+00 0. -1.
         25    2    1    2    0    0 -0.15181549609E+02  0.41530071658E+01  0.20956516502E+03  0.24450270516E+03  0.12496514522E+03 0.  0.
          4    1    3    3  501    0  0.33803639752E+02 -0.51821633772E+01  0.18637839351E+03  0.18949421982E+03  0.12700000000E+01 0. -1.
         -4    1    3    3    0  501 -0.48985189361E+02  0.93351705430E+01  0.23186771511E+02  0.55008485335E+02  0.12700000000E+01 0. -1.
          2    1    1    2  502    0  0.44627087443E+02  0.13328338643E+02  0.83083664359E+03  0.83214106369E+03  0.00000000000E+00 0. -1.
          1    1    1    2  503    0 -0.29445537834E+02 -0.17481345809E+02 -0.17763377861E+04  0.17766678270E+04  0.00000000000E+00 0. -1.
<mgrwt>
<rscale>  0 0.39420748E+02</rscale>
<asrwt>0</asrwt>
<pdfrwt beam="2">  1        2 0.27609596E+00 0.34243790E+02</pdfrwt>
<pdfrwt beam="1">  1        1 0.16287505E+00 0.45380355E+02</pdfrwt>
<totfact> 0.26309044E+01</totfact>
</mgrwt>
</event>
<event>
 7    1  0.5277388E-004  0.1484914E+03  0.7546771E-02  0.1308781E+00
          1   -1    0    0  502    0 -0.00000000000E+00  0.00000000000E+00  0.52390075877E+03  0.52390075877E+03  0.00000000000E+00 0. -1.
          2   -1    0    0  503    0  0.00000000000E+00 -0.00000000000E+00 -0.35397794477E+03  0.35397794477E+03  0.00000000000E+00 0. -1.
         25    2    1    2    0    0 -0.64290825751E+02  0.10989078077E+03  0.20385202923E+03  0.27090478729E+03  0.12499783991E+03 0.  0.
          4    1    3    3  501    0 -0.27321120375E+02 -0.13605732168E+02  0.10131468798E+01  0.30564668050E+02  0.12700000000E+01 0.  1.
         -4    1    3    3    0  501 -0.36969705376E+02  0.12349651294E+03  0.20283888235E+03  0.24034011924E+03  0.12700000000E+01 0.  1.
          2    1    1    2  502    0  0.46990805370E+02 -0.15858157968E+03  0.26021188433E+03  0.30832852276E+03  0.00000000000E+00 0. -1.
          1    1    1    2  503    0  0.17300020381E+02  0.48690798908E+02 -0.29414109955E+03  0.29864539349E+03  0.00000000000E+00 0. -1.
<mgrwt>
<rscale>  0 0.87595515E+02</rscale>
<asrwt>0</asrwt>
<pdfrwt beam="2">  1        2 0.54458145E-01 0.51672861E+02</pdfrwt>
<pdfrwt beam="1">  1        1 0.80600117E-01 0.14849137E+03</pdfrwt>
<totfact> 0.53604222E+02</totfact>
</mgrwt>
</event>
<event>
 7    1  0.5277388E-004  0.7538410E+02  0.7546771E-02  0.1372446E+00
         -2   -1    0    0    0  501 -0.00000000000E+00  0.00000000000E+00  0.15413419233E+04  0.15413419233E+04  0.00000000000E+00 0.  1.
          2   -1    0    0  503    0  0.00000000000E+00 -0.00000000000E+00 -0.26704109914E+03  0.26704109914E+03  0.00000000000E+00 0. -1.
         25    2    1    2    0    0 -0.61014025352E+02 -0.64156099196E+02  0.63591840217E+03  0.65410562783E+03  0.12499296697E+03 0.  0.
          4    1    3    3  502    0 -0.57956267746E+02 -0.64175956723E+02  0.64166862711E+03  0.64747024821E+03  0.12700000000E+01 0. -1.
         -4    1    3    3    0  502 -0.30577576062E+01  0.19857527094E-01 -0.57502249425E+01  0.66353796266E+01  0.12700000000E+01 0. -1.
          1    1    1    2  503    0 -0.14906050140E+02  0.56722597351E+02 -0.25296349451E+03  0.25967320411E+03  0.00000000000E+00 0. -1.
         -3    1    1    2    0  501  0.75920075492E+02  0.74335018447E+01  0.89134591652E+03  0.89460419053E+03  0.00000000000E+00 0.  1.
<mgrwt>
<rscale>  0 0.66491824E+02</rscale>
<asrwt>0</asrwt>
<pdfrwt beam="2">  1        2 0.41083247E-01 0.58648473E+02</pdfrwt>
<pdfrwt beam="1">  1       -2 0.23712952E+00 0.75384104E+02</pdfrwt>
<totfact> 0.11726187E+01</totfact>
</mgrwt>
</event>
<event>
 7    1  0.5277388E-004  0.1043741E+03  0.7546771E-02  0.1333642E+00
          2   -1    0    0  503    0  0.00000000000E+00  0.00000000000E+00  0.26026873991E+04  0.26026873991E+04  0.00000000000E+00 0. -1.
          1   -1    0    0  502    0 -0.00000000000E+00 -0.00000000000E+00 -0.37444728446E+03  0.37444728446E+03  0.00000000000E+00 0. -1.
         25    2    1    2    0    0 -0.75178634469E+02  0.95736222670E+02  0.57790370129E+02  0.18380222429E+03  0.12500511735E+03 0.  0.
          4    1    3    3  501    0 -0.36894926720E+02 -0.12360711391E+02 -0.21409041340E+02  0.44429525711E+02  0.12700000000E+01 0. -1.
         -4    1    3    3    0  501 -0.38283707749E+02  0.10809693406E+03  0.79199411469E+02  0.13937269858E+03  0.12700000000E+01 0. -1.
          2    1    1    2  502    0  0.58448551583E+02  0.72448915139E+01 -0.30754942052E+03  0.31313793717E+03  0.00000000000E+00 0. -1.
          1    1    1    2  503    0  0.16730082886E+02 -0.10298111418E+03  0.24779991651E+04  0.24801945221E+04  0.00000000000E+00 0. -1.
<mgrwt>
<rscale>  0 0.78404105E+02</rscale>
<asrwt>0</asrwt>
<pdfrwt beam="1">  1        2 0.40041344E+00 0.10437413E+03</pdfrwt>
<pdfrwt beam="2">  1        1 0.57607276E-01 0.58895854E+02</pdfrwt>
<totfact> 0.36710131E+01</totfact>
</mgrwt>
</event>
<event>
 7    1  0.5277388E-004  0.5681033E+02  0.7546771E-02  0.1470506E+00
         -2   -1    0    0    0  501 -0.00000000000E+00  0.00000000000E+00  0.25249610407E+03  0.25249610407E+03  0.00000000000E+00 0.  1.
          2   -1    0    0  503    0  0.00000000000E+00 -0.00000000000E+00 -0.83147513806E+03  0.83147513806E+03  0.00000000000E+00 0. -1.
         25    2    1    2    0    0  0.10596806598E+02  0.69935581392E+02 -0.39542125557E+03  0.42069369261E+03  0.12498774254E+03 0.  0.
          4    1    3    3  502    0 -0.58063995601E+01  0.21386809801E+02 -0.23692161627E+00  0.22198624758E+02  0.12700000000E+01 0. -1.
         -4    1    3    3    0  502  0.16403206158E+02  0.48548771592E+02 -0.39518433396E+03  0.39849506785E+03  0.12700000000E+01 0. -1.
          1    1    1    2  503    0  0.25607582440E+02 -0.26197943219E+02 -0.41924764519E+03  0.42084518354E+03  0.00000000000E+00 0. -1.
         -1    1    1    2    0  501 -0.36204389037E+02 -0.43737638173E+02  0.23568986677E+03  0.24243236599E+03  0.00000000000E+00 0.  1.
<mgrwt>
<rscale>  0 0.45620316E+02</rscale>
<asrwt>0</asrwt>
<pdfrwt beam="2">  1        2 0.12791925E+00 0.36634417E+02</pdfrwt>
<pdfrwt beam="1">  1       -2 0.38845554E-01 0.56810329E+02</pdfrwt>
<totfact> 0.22899839E+02</totfact>
</mgrwt>
</event>
<event>
 7    1  0.5277388E-004  0.1441326E+03  0.7546771E-02  0.1421965E+00
          2   -1    0    0  503    0  0.00000000000E+00  0.00000000000E+00  0.10521272798E+04  0.10521272798E+04  0.00000000000E+00 0. -1.
          1   -1    0    0  502    0 -0.00000000000E+00 -0.00000000000E+00 -0.26243250058E+03  0.26243250058E+03  0.00000000000E+00 0. -1.
         25    2    1    2    0    0 -0.13211070232E+03 -0.17706937414E+02 -0.40363580310E+02  0.18714092109E+03  0.12500292968E+03 0.  0.
          4    1    3    3  501    0 -0.13921340105E+03 -0.85249076809E+01 -0.69438311289E+02  0.15580865527E+03  0.12700000000E+01 0. -1.
         -4    1    3    3    0  501  0.71026987344E+01 -0.91820297334E+01  0.29074730979E+02  0.31332265811E+02  0.12700000000E+01 0. -1.
          2    1    1    2  502    0  0.14973939210E+03  0.68780208147E+01 -0.11075653663E+03  0.18637650904E+03  0.00000000000E+00 0. -1.
          1    1    1    2  503    0 -0.17628689779E+02  0.10828916600E+02  0.94081489614E+03  0.94104235023E+03  0.00000000000E+00 0. -1.
<mgrwt>
<rscale>  0 0.54607369E+02</rscale>
<asrwt>0</asrwt>
<pdfrwt beam="1">  1        2 0.16186573E+00 0.20689034E+02</pdfrwt>
<pdfrwt beam="2">  1        1 0.40374232E-01 0.14413262E+03</pdfrwt>
<totfact> 0.39826443E+02</totfact>
</mgrwt>
</event>
<event>
 7    1  0.5277388E-004  0.7625370E+02  0.7546771E-02  0.1357778E+00
          1   -1    0    0  502    0 -0.00000000000E+00  0.00000000000E+00  0.63501138639E+03  0.63501138639E+03  0.00000000000E+00 0. -1.
          2   -1    0    0  503    0  0.00000000000E+00 -0.00000000000E+00 -0.71060721980E+03  0.71060721980E+03  0.00000000000E+00 0. -1.
         25    2    1    2    0    0 -0.50446105455E+02  0.45014816075E+02 -0.53153917645E+03  0.55020883862E+03  0.12499890708E+03 0.  0.
          4    1    3    3  501    0 -0.33021400583E+02  0.60393799771E+02 -0.12258983376E+03  0.14059766779E+03  0.12700000000E+01 0. -1.
         -4    1    3    3    0  501 -0.17424704871E+02 -0.15378983696E+02 -0.40894934269E+03  0.40961117082E+03  0.12700000000E+01 0. -1.
          2    1    1    2  502    0  0.74752781699E+02  0.15833382169E+02  0.61690677252E+03  0.62162097804E+03  0.00000000000E+00 0. -1.
          1    1    1    2  503    0 -0.24306676245E+02 -0.60848198244E+02 -0.16096342947E+03  0.17378878953E+03  0.00000000000E+00 0. -1.
<mgrwt>
<rscale>  0 0.70685236E+02</rscale>
<asrwt>0</asrwt>
<pdfrwt beam="2">  1        2 0.10932419E+00 0.65523414E+02</pdfrwt>
<pdfrwt beam="1">  1        1 0.97694059E-01 0.76253698E+02</pdfrwt>
<totfact> 0.20024052E+02</totfact>
</mgrwt>
</event>
<event>
 7    1  0.5277388E-004  0.1413826E+03  0.7546771E-02  0.1306166E+00
         -1   -1    0    0    0  502 -0.00000000000E+00  0.00000000000E+00  0.16916941633E+03  0.16916941633E+03  0.00000000000E+00 0.  1.
         -2   -1    0    0    0  501  0.00000000000E+00 -0.00000000000E+00 -0.69958823239E+03  0.69958823239E+03  0.00000000000E+00 0.  1.
         25    2    1    2    0    0 -0.87830232956E+02  0.15520940512E+03 -0.10386359267E+03  0.24128095112E+03  0.12499896893E+03 0.  0.
          4    1    3    3  503    0 -0.21709996828E+02 -0.13582163488E+02 -0.42977858761E+02  0.50045063403E+02  0.12700000000E+01 0. -1.
         -4    1    3    3    0  503 -0.66120236128E+02  0.16879156860E+03 -0.60885733908E+02  0.19123588772E+03  0.12700000000E+01 0. -1.
         -2    1    1    2    0  502  0.87475694634E+02 -0.99631119534E+02  0.54407915872E+02  0.14331286907E+03  0.00000000000E+00 0.  1.
         -1    1    1    2    0  501  0.35453832158E+00 -0.55578285582E+02 -0.48096313926E+03  0.48416382853E+03  0.00000000000E+00 0.  1.
<mgrwt>
<rscale>  0 0.88645156E+02</rscale>
<asrwt>0</asrwt>
<pdfrwt beam="2">  1       -2 0.10762896E+00 0.55579416E+02</pdfrwt>
<pdfrwt beam="1">  1       -1 0.26026063E-01 0.14138262E+03</pdfrwt>
<totfact> 0.72588075E+01</totfact>
</mgrwt>
</event>
<event>
 7    1  0.5277388E-004  0.1109197E+03  0.7546771E-02  0.1407701E+00
          1   -1    0    0  502    0 -0.00000000000E+00  0.00000000000E+00  0.12784460958E+04  0.12784460958E+04  0.00000000000E+00 0. -1.
          2   -1    0    0  503    0  0.00000000000E+00 -0.00000000000E+00 -0.72539019840E+02  0.72539019840E+02  0.00000000000E+00 0. -1.
         25    2    1    2    0    0  0.39205722251E+02  0.11480412389E+03  0.13963799433E+03  0.22324762576E+03  0.12499462960E+03 0.  0.
          4    1    3    3  501    0  0.35729369462E+02  0.13535493830E+03  0.82694615375E+02  0.16259630831E+03  0.12700000000E+01 0.  1.
         -4    1    3    3    0  501  0.34763527894E+01 -0.20550814415E+02  0.56943378952E+02  0.60651317449E+02  0.12700000000E+01 0.  1.
          2    1    1    2  502    0 -0.59737372314E+02 -0.92895218166E+02  0.10861341892E+04  0.10917351108E+04  0.00000000000E+00 0. -1.
          1    1    1    2  503    0  0.20531650063E+02 -0.21908905720E+02 -0.19865107534E+02  0.36002379109E+02  0.00000000000E+00 0. -1.
<mgrwt>
<rscale>  0 0.57710074E+02</rscale>
<asrwt>0</asrwt>
<pdfrwt beam="2">  1        2 0.11159850E-01 0.30025802E+02</pdfrwt>
<pdfrwt beam="1">  1        1 0.19668400E+00 0.11091969E+03</pdfrwt>
<totfact> 0.71855723E+02</totfact>
</mgrwt>
</event>
<event>
 7    1  0.5277388E-004  0.1876674E+03  0.7546771E-02  0.1224947E+00
          2   -1    0    0  503    0  0.00000000000E+00  0.00000000000E+00  0.11144695289E+04  0.11144695289E+04  0.00000000000E+00 0. -1.
          1   -1    0    0  502    0 -0.00000000000E+00 -0.00000000000E+00 -0.18167906709E+03  0.18167906709E+03  0.00000000000E+00 0. -1.
         25    2    1    2    0    0 -0.15361852255E+03  0.24896151281E+02  0.32693518720E+03  0.38305335737E+03  0.12499915657E+03 0.  0.
          4    1    3    3  501    0 -0.80269882778E+02 -0.48324273201E+02  0.12672532051E+03  0.15760523221E+03  0.12700000000E+01 0.  1.
         -4    1    3    3    0  501 -0.73348639769E+02  0.73220424482E+02  0.20020986669E+03  0.22544812516E+03  0.12700000000E+01 0.  1.
          2    1    1    2  502    0  0.18631994331E+03  0.61557210270E+02 -0.86609175001E+02  0.21448906873E+03  0.00000000000E+00 0. -1.
          1    1    1    2  503    0 -0.32701420763E+02 -0.86453361552E+02  0.69246444960E+03  0.69860616989E+03  0.00000000000E+00 0. -1.
<mgrwt>
<rscale>  0 0.13170561E+03</rscale>
<asrwt>0</asrwt>
<pdfrwt beam="1">  1        2 0.17145685E+00 0.92431416E+02</pdfrwt>
<pdfrwt beam="2">  1        1 0.27950626E-01 0.18766744E+03</pdfrwt>
<totfact> 0.53443028E+02</totfact>
</mgrwt>
</event>
<event>
 7    1  0.5277388E-004  0.1032487E+03  0.7546771E-02  0.1394766E+00
         -1   -1    0    0    0  501 -0.00000000000E+00  0.00000000000E+00  0.27028985640E+03  0.27028985640E+03  0.00000000000E+00 0.  1.
          1   -1    0    0  503    0  0.00000000000E+00 -0.00000000000E+00 -0.15711563572E+04  0.15711563572E+04  0.00000000000E+00 0. -1.
         25    2    1    2    0    0  0.10654482153E+03  0.12990548280E+02 -0.19102427935E+03  0.25226364048E+03  0.12500446258E+03 0.  0.
          4    1    3    3  502    0  0.48081939432E+02 -0.40495243412E+02 -0.15081831837E+03  0.16339986442E+03  0.12700000000E+01 0.  1.
         -4    1    3    3    0  502  0.58462882099E+02  0.53485791692E+02 -0.40205960986E+02  0.88863776056E+02  0.12700000000E+01 0.  1.
          2    1    1    2  503    0 -0.92608661683E+02 -0.45889357255E+02 -0.13461888623E+04  0.13501506029E+04  0.00000000000E+00 0. -1.
         -2    1    1    2    0  501 -0.13936159847E+02  0.32898808975E+02  0.23634664085E+03  0.23903197030E+03  0.00000000000E+00 0.  1.
<mgrwt>
<rscale>  0 0.60736744E+02</rscale>
<asrwt>0</asrwt>
<pdfrwt beam="2">  1        1 0.24171636E+00 0.10324866E+03</pdfrwt>
<pdfrwt beam="1">  1       -1 0.41583055E-01 0.35728814E+02</pdfrwt>
<totfact> 0.40788466E+01</totfact>
</mgrwt>
</event>
<event>
 7    1  0.5277388E-004  0.9376008E+02  0.7546771E-02  0.1315888E+00
          2   -1    0    0  503    0  0.00000000000E+00  0.00000000000E+00  0.17090635788E+04  0.17090635788E+04  0.00000000000E+00 0. -1.
          1   -1    0    0  502    0 -0.00000000000E+00 -0.00000000000E+00 -0.14000477998E+03  0.14000477998E+03  0.00000000000E+00 0. -1.
         25    2    1    2    0    0 -0.25951878914E+02 -0.15121791589E+03  0.91470296731E+02  0.21802129388E+03  0.12500444511E+03 0.  0.
          4    1    3    3  501    0 -0.72164271911E+02 -0.65795309756E+02  0.26604130734E+02  0.10122300923E+03  0.12700000000E+01 0. -1.
         -4    1    3    3    0  501  0.46212392998E+02 -0.85422606138E+02  0.64866165997E+02  0.11679828465E+03  0.12700000000E+01 0. -1.
          2    1    1    2  502    0  0.46722896179E+02  0.60881163620E+02 -0.55783804418E+02  0.94875591942E+02  0.00000000000E+00 0. -1.
          1    1    1    2  503    0 -0.20771017265E+02  0.90336752274E+02  0.15333723065E+04  0.15361714730E+04  0.00000000000E+00 0. -1.
<mgrwt>
<rscale>  0 0.84826086E+02</rscale>
<asrwt>0</asrwt>
<pdfrwt beam="1">  1        2 0.26293284E+00 0.93760083E+02</pdfrwt>
<pdfrwt beam="2">  1        1 0.21539198E-01 0.76743372E+02</pdfrwt>
<totfact> 0.35408098E+02</totfact>
</mgrwt>
</event>
<event>
 7    1  0.5277388E-004  0.1490994E+03  0.7546771E-02  0.1283205E+00
          2   -1    0    0  503    0  0.00000000000E+00  0.00000000000E+00  0.11768139523E+03  0.11768139523E+03  0.00000000000E+00 0. -1.
          1   -1    0    0  502    0 -0.00000000000E+00 -0.00000000000E+00 -0.21032822855E+04  0.21032822855E+04  0.00000000000E+00 0. -1.
         25    2    1    2    0    0  0.12390138542E+03 -0.14632936339E+03 -0.40977701742E+03  0.46936850774E+03  0.12500302460E+03 0.  0.
          4    1    3    3  501    0  0.14440041925E+03 -0.12724605997E+03 -0.30291582440E+03  0.35889086145E+03  0.12700000000E+01 0.  1.
         -4    1    3    3    0  501 -0.20499033837E+02 -0.19083303419E+02 -0.10686119301E+03  0.11047764629E+03  0.12700000000E+01 0.  1.
          2    1    1    2  502    0 -0.60221304676E+02  0.13213171173E+03 -0.16479518316E+04  0.16543369167E+04  0.00000000000E+00 0. -1.
          1    1    1    2  503    0 -0.63680080742E+02  0.14197651655E+02  0.72127958691E+02  0.97258256311E+02  0.00000000000E+00 0. -1.
<mgrwt>
<rscale>  0 0.98629513E+02</rscale>
<asrwt>0</asrwt>
<pdfrwt beam="1">  1        2 0.18104830E-01 0.65243590E+02</pdfrwt>
<pdfrwt beam="2">  1        1 0.32358190E+00 0.14909941E+03</pdfrwt>
<totfact> 0.12483509E+02</totfact>
</mgrwt>
</event>
<event>
 7    1  0.5277388E-004  0.1270247E+03  0.7546771E-02  0.1315901E+00
          2   -1    0    0  503    0  0.00000000000E+00  0.00000000000E+00  0.47534828092E+03  0.47534828092E+03  0.00000000000E+00 0. -1.
          1   -1    0    0  502    0 -0.00000000000E+00 -0.00000000000E+00 -0.13259768340E+03  0.13259768340E+03  0.00000000000E+00 0. -1.
         25    2    1    2    0    0  0.86066011921E+02 -0.15948597856E+02  0.76776944342E+02  0.17082932757E+03  0.12500497508E+03 0.  0.
          4    1    3    3  501    0  0.78525944659E+01  0.30686116148E+02 -0.20361795252E+02  0.37676472366E+02  0.12700000000E+01 0. -1.
         -4    1    3    3    0  501  0.78213417455E+02 -0.46634714004E+02  0.97138739594E+02  0.13315285521E+03  0.12700000000E+01 0. -1.
          2    1    1    2  502    0  0.43087320851E+02 -0.36762961330E+02 -0.60023449980E+02  0.82527856457E+02  0.00000000000E+00 0. -1.
          1    1    1    2  503    0 -0.12915333277E+03  0.52711559187E+02  0.32599710316E+03  0.35458878029E+03  0.00000000000E+00 0. -1.
<mgrwt>
<rscale>  0 0.84821075E+02</rscale>
<asrwt>0</asrwt>
<pdfrwt beam="1">  1        2 0.73130504E-01 0.12702469E+03</pdfrwt>
<pdfrwt beam="2">  1        1 0.20399644E-01 0.56639496E+02</pdfrwt>
<totfact> 0.21330651E+03</totfact>
</mgrwt>
</event>
<event>
 7    1  0.5277388E-004  0.3874783E+02  0.7546771E-02  0.1618898E+00
          2   -1    0    0  503    0  0.00000000000E+00  0.00000000000E+00  0.62849698642E+03  0.62849698642E+03  0.00000000000E+00 0. -1.
          1   -1    0    0  502    0 -0.00000000000E+00 -0.00000000000E+00 -0.23774017386E+02  0.23774017386E+02  0.00000000000E+00 0. -1.
         25    2    1    2    0    0  0.46452620265E+01 -0.53504847442E+02  0.21108411913E+03  0.25112892213E+03  0.12499953209E+03 0.  0.
          4    1    3    3  501    0 -0.22543738056E+02  0.35780342413E+02  0.74960734910E+02  0.86076580479E+02  0.12700000000E+01 0. -1.
         -4    1    3    3    0  501  0.27189000083E+02 -0.89285189855E+02  0.13612338422E+03  0.16505234165E+03  0.12700000000E+01 0. -1.
          2    1    1    2  502    0 -0.56198459643E+01  0.33006411370E+02  0.78579883359E+02  0.85415478275E+02  0.00000000000E+00 0. -1.
          1    1    1    2  503    0  0.97458393775E+00  0.20498436072E+02  0.31505896654E+03  0.31572660340E+03  0.00000000000E+00 0. -1.
<mgrwt>
<rscale>  0 0.28198708E+02</rscale>
<asrwt>0</asrwt>
<pdfrwt beam="1">  1        2 0.96691832E-01 0.20521591E+02</pdfrwt>
<pdfrwt beam="2">  1        1 0.36575416E-02 0.38747831E+02</pdfrwt>
<totfact> 0.14402708E+04</totfact>
</mgrwt>
</event>
<event>
 7    1  0.5277388E-004  0.6859283E+02  0.7546771E-02  0.1459576E+00
          2   -1    0    0  503    0  0.00000000000E+00  0.00000000000E+00  0.40222757268E+03  0.40222757268E+03  0.00000000000E+00 0. -1.
          1   -1    0    0  502    0 -0.00000000000E+00 -0.00000000000E+00 -0.11755235921E+04  0.11755235921E+04  0.00000000000E+00 0. -1.
         25    2    1    2    0    0 -0.49203062353E+02 -0.12141544712E+01 -0.54905328528E+03  0.56525179398E+03  0.12501065959E+03 0.  0.
          4    1    3    3  501    0  0.33569077386E+02  0.53559110117E+01 -0.31637929159E+03  0.31820282492E+03  0.12700000000E+01 0. -1.
         -4    1    3    3    0  501 -0.82772139739E+02 -0.65700654829E+01 -0.23267399369E+03  0.24704896906E+03  0.12700000000E+01 0. -1.
          2    1    1    2  502    0 -0.13168016635E+02  0.30073871029E+02 -0.61493396728E+03  0.61580972589E+03  0.00000000000E+00 0. -1.
          3    1    1    2  503    0  0.62371078988E+02 -0.28859716558E+02  0.39069123313E+03  0.39668964491E+03  0.00000000000E+00 0. -1.
<mgrwt>
<rscale>  0 0.47454497E+02</rscale>
<asrwt>0</asrwt>
<pdfrwt beam="1">  1        2 0.61881165E-01 0.68592831E+02</pdfrwt>
<pdfrwt beam="2">  1        1 0.18084978E+00 0.32830388E+02</pdfrwt>
<totfact> 0.15349168E+02</totfact>
</mgrwt>
</event>
<event>
 7    1  0.5277388E-004  0.5369801E+02  0.7546771E-02  0.1478534E+00
          2   -1    0    0  503    0  0.00000000000E+00  0.00000000000E+00  0.10323820864E+04  0.10323820864E+04  0.00000000000E+00 0. -1.
         -2   -1    0    0    0  501 -0.00000000000E+00 -0.00000000000E+00 -0.16112935981E+02  0.16112935981E+02  0.00000000000E+00 0.  1.
         25    2    1    2    0    0  0.11603525357E+02 -0.23831010388E+02  0.30175342213E+03  0.32768746400E+03  0.12498554891E+03 0.  0.
          4    1    3    3  502    0 -0.44175057129E+02  0.26965572865E+02  0.10821941591E+03  0.11996513107E+03  0.12700000000E+01 0. -1.
         -4    1    3    3    0  502  0.55778582486E+02 -0.50796583253E+02  0.19353400622E+03  0.20772233293E+03  0.12700000000E+01 0. -1.
          1    1    1    2  503    0 -0.46834293047E+02  0.33767443480E+02  0.47831312406E+03  0.48178536289E+03  0.00000000000E+00 0. -1.
         -1    1    1    2    0  501  0.35230767690E+02 -0.99364330926E+01  0.23620260419E+03  0.23902219545E+03  0.00000000000E+00 0.  1.
<mgrwt>
<rscale>  0 0.44335378E+02</rscale>
<asrwt>0</asrwt>
<pdfrwt beam="1">  1        2 0.15882796E+00 0.53698012E+02</pdfrwt>
<pdfrwt beam="2">  1       -2 0.24789140E-02 0.36605187E+02</pdfrwt>
<totfact> 0.11936360E+04</totfact>
</mgrwt>
</event>
<event>
 7    1  0.5277388E-004  0.8337397E+02  0.7546771E-02  0.1488101E+00
          1   -1    0    0  502    0 -0.00000000000E+00  0.00000000000E+00  0.11346906541E+04  0.11346906541E+04  0.00000000000E+00 0. -1.
          2   -1    0    0  503    0  0.00000000000E+00 -0.00000000000E+00 -0.66296360700E+02  0.66296360700E+02  0.00000000000E+00 0. -1.
         25    2    1    2    0    0  0.52160832099E+02  0.55132943731E+02  0.47513844972E+03  0.49713435226E+03  0.12500249559E+03 0.  0.
          4    1    3    3  501    0  0.44345293492E+02  0.55519525309E+02  0.10429460865E+03  0.12620578846E+03  0.12700000000E+01 0. -1.
         -4    1    3    3    0  501  0.78155386071E+01 -0.38658157732E+00  0.37084384107E+03  0.37092856380E+03  0.12700000000E+01 0. -1.
          2    1    1    2  502    0 -0.72300419638E+02 -0.46174072151E+02  0.64339145699E+03  0.64908548169E+03  0.00000000000E+00 0. -1.
          1    1    1    2  503    0  0.20139587539E+02 -0.89588715799E+01 -0.50135613356E+02  0.54767180801E+02  0.00000000000E+00 0. -1.
<mgrwt>
<rscale>  0 0.42869064E+02</rscale>
<asrwt>0</asrwt>
<pdfrwt beam="2">  1        2 0.10199441E-01 0.22042331E+02</pdfrwt>
<pdfrwt beam="1">  1        1 0.17456778E+00 0.83373970E+02</pdfrwt>
<totfact> 0.99044388E+02</totfact>
</mgrwt>
</event>
<event>
 7    1  0.5277388E-004  0.5776207E+02  0.7546771E-02  0.1522789E+00
          1   -1    0    0  502    0 -0.00000000000E+00  0.00000000000E+00  0.39543242227E+02  0.39543242227E+02  0.00000000000E+00 0. -1.
          2   -1    0    0  503    0  0.00000000000E+00 -0.00000000000E+00 -0.11420396949E+04  0.11420396949E+04  0.00000000000E+00 0. -1.
         25    2    1    2    0    0  0.13828190253E+01 -0.43111165478E+02 -0.14804608196E+03  0.19849990857E+03  0.12499634611E+03 0.  0.
          4    1    3    3  501    0 -0.57406308518E+02  0.16592658810E+01 -0.53536143370E+02  0.78523684120E+02  0.12700000000E+01 0.  1.
         -4    1    3    3    0  501  0.58789127543E+02 -0.44770431359E+02 -0.94509938592E+02  0.11997622445E+03  0.12700000000E+01 0.  1.
          2    1    1    2  502    0  0.23070727558E+02 -0.99181537177E+01  0.16824400150E+01  0.25168608377E+02  0.00000000000E+00 0. -1.
          1    1    1    2  503    0 -0.24453546584E+02  0.53029319195E+02 -0.95613281068E+03  0.95791442013E+03  0.00000000000E+00 0. -1.
<mgrwt>
<rscale>  0 0.38085944E+02</rscale>
<asrwt>0</asrwt>
<pdfrwt beam="2">  1        2 0.17569844E+00 0.57762069E+02</pdfrwt>
<pdfrwt beam="1">  1        1 0.60835747E-02 0.25112313E+02</pdfrwt>
<totfact> 0.32810820E+03</totfact>
</mgrwt>
</event>
<event>
 7    1  0.5277388E-004  0.5294570E+02  0.7546771E-02  0.1458976E+00
          1   -1    0    0  502    0 -0.00000000000E+00  0.00000000000E+00  0.74500914791E+02  0.74500914791E+02  0.00000000000E+00 0. -1.
          2   -1    0    0  503    0  0.00000000000E+00 -0.00000000000E+00 -0.68806986442E+03  0.68806986442E+03  0.00000000000E+00 0. -1.
         25    2    1    2    0    0  0.77175645621E+02  0.47512207217E+02 -0.14283782154E+03  0.21033671587E+03  0.12500160266E+03 0.  0.
          4    1    3    3  501    0  0.26061701078E+02 -0.42897410688E+02 -0.53024631352E+02  0.73024821375E+02  0.12700000000E+01 0.  1.
         -4    1    3    3    0  501  0.51113944543E+02  0.90409617905E+02 -0.89813190193E+02  0.13731189449E+03  0.12700000000E+01 0.  1.
          2    1    1    2  502    0 -0.36846721876E+02 -0.33424588155E+02  0.24298142284E+02  0.55365004514E+02  0.00000000000E+00 0. -1.
          1    1    1    2  503    0 -0.40328923745E+02 -0.14087619062E+02 -0.49502927037E+03  0.49686905883E+03  0.00000000000E+00 0. -1.
<mgrwt>
<rscale>  0 0.47558060E+02</rscale>
<asrwt>0</asrwt>
<pdfrwt beam="2">  1        2 0.10585690E+00 0.42718651E+02</pdfrwt>
<pdfrwt beam="1">  1        1 0.11461680E-01 0.52945704E+02</pdfrwt>
<totfact> 0.29828338E+03</totfact>
</mgrwt>
</event>
<event>
 7    1  0.5277388E-004  0.1694910E+03  0.7546771E-02  0.1259421E+00
          2   -1    0    0  503    0  0.00000000000E+00  0.00000000000E+00  0.14829298889E+03  0.14829298889E+03  0.00000000000E+00 0. -1.
          1   -1    0    0  502    0 -0.00000000000E+00 -0.00000000000E+00 -0.61455601628E+03  0.61455601628E+03  0.00000000000E+00 0. -1.
         25    2    1    2    0    0  0.16559403535E+02  0.11553024676E+03 -0.84066829395E+02  0.19057072305E+03  0.12501406688E+03 0.  0.
          4    1    3    3  501    0  0.34848718257E+02  0.10334803223E+03 -0.11111153941E+03  0.15570046891E+03  0.12700000000E+01 0. -1.
         -4    1    3    3    0  501 -0.18289314722E+02  0.12182214530E+02  0.27044710015E+02  0.34870254138E+02  0.12700000000E+01 0. -1.
          2    1    1    2  502    0 -0.33802933373E+02 -0.18564170997E+03 -0.44066937244E+03  0.47936935508E+03  0.00000000000E+00 0. -1.
          1    1    1    2  503    0  0.17243529838E+02  0.70111463213E+02  0.58473174444E+02  0.92908927045E+02  0.00000000000E+00 0. -1.
<mgrwt>
<rscale>  0 0.11062272E+03</rscale>
<asrwt>0</asrwt>
<pdfrwt beam="1">  1        2 0.22814306E-01 0.72200807E+02</pdfrwt>
<pdfrwt beam="2">  1        1 0.94547081E-01 0.16949098E+03</pdfrwt>
<totfact> 0.10773754E+03</totfact>
</mgrwt>
</event>
<event>
 7    1  0.5277388E-004  0.6928566E+02  0.7546771E-02  0.1464803E+00
          2   -1    0    0  503    0  0.00000000000E+00  0.00000000000E+00  0.13444472130E+04  0.13444472130E+04  0.00000000000E+00 0. -1.
          1   -1    0    0  502    0 -0.00000000000E+00 -0.00000000000E+00 -0.51607212056E+03  0.51607212056E+03  0.00000000000E+00 0. -1.
         25    2    1    2    0    0  0.15415276964E+02  0.97810078869E+02  0.15284834967E+03  0.22089237967E+03  0.12500553230E+03 0.  0.
          4    1    3    3  501    0  0.62323939004E+02  0.61838387343E+02  0.13131416575E+03  0.15796608037E+03  0.12700000000E+01 0. -1.
         -4    1    3    3    0  501 -0.46908662041E+02  0.35971691526E+02  0.21534183928E+02  0.62926299296E+02  0.12700000000E+01 0. -1.
          2    1    1    2  502    0 -0.36707322574E+01 -0.68802714696E+02 -0.47937503009E+03  0.48430125676E+03  0.00000000000E+00 0. -1.
          1    1    1    2  503    0 -0.11744544706E+02 -0.29007364173E+02  0.11549017728E+04  0.11553256971E+04  0.00000000000E+00 0. -1.
<mgrwt>
<rscale>  0 0.46564768E+02</rscale>
<asrwt>0</asrwt>
<pdfrwt beam="1">  1        2 0.20683803E+00 0.31294752E+02</pdfrwt>
<pdfrwt beam="2">  1        1 0.79395711E-01 0.69285664E+02</pdfrwt>
<totfact> 0.11935924E+02</totfact>
</mgrwt>
</event>
<event>
 7    1  0.5277388E-004  0.2770267E+03  0.7546771E-02  0.1299056E+00
         -2   -1    0    0    0  501 -0.00000000000E+00  0.00000000000E+00  0.30716380826E+03  0.30716380826E+03  0.00000000000E+00 0.  1.
          2   -1    0    0  503    0  0.00000000000E+00 -0.00000000000E+00 -0.21014991339E+04  0.21014991339E+04  0.00000000000E+00 0. -1.
         25    2    1    2    0    0  0.18713470683E+03 -0.24098385476E+03 -0.95272035517E+03  0.10081638146E+04  0.12500234046E+03 0.  0.
          4    1    3    3  502    0  0.57704746570E+01 -0.38000941743E+02 -0.27730149653E+03  0.27995553723E+03  0.12700000000E+01 0.  1.
         -4    1    3    3    0  502  0.18136423218E+03 -0.20298291302E+03 -0.67541885864E+03  0.72820827735E+03  0.12700000000E+01 0.  1.
          1    1    1    2  503    0 -0.15486764947E+02  0.26018198553E+02 -0.10530863936E+04  0.10535215892E+04  0.00000000000E+00 0. -1.
         -1    1    1    2    0  501 -0.17164794189E+03  0.21496565621E+03  0.21147142315E+03  0.34697753834E+03  0.00000000000E+00 0.  1.
<mgrwt>
<rscale>  0 0.91585736E+02</rscale>
<asrwt>0</asrwt>
<pdfrwt beam="2">  1        2 0.32330757E+00 0.30278483E+02</pdfrwt>
<pdfrwt beam="1">  1       -2 0.47255968E-01 0.27702666E+03</pdfrwt>
<totfact> 0.36960474E+01</totfact>
</mgrwt>
</event>
<event>
 7    1  0.5277388E-004  0.2047478E+03  0.7546771E-02  0.1209578E+00
          1   -1    0    0  502    0 -0.00000000000E+00  0.00000000000E+00  0.91855545854E+03  0.91855545854E+03  0.00000000000E+00 0. -1.
          2   -1    0    0  503    0  0.00000000000E+00 -0.00000000000E+00 -0.23780553060E+04  0.23780553060E+04  0.00000000000E+00 0. -1.
         25    2    1    2    0    0  0.12171269990E+03  0.94592412752E+01 -0.14308069543E+03  0.22583575913E+03  0.12500498444E+03 0.  0.
          4    1    3    3  501    0  0.33774419388E+02  0.62367896976E+02 -0.45902301673E+02  0.84493196040E+02  0.12700000000E+01 0. -1.
         -4    1    3    3    0  501  0.87938280511E+02 -0.52908655701E+02 -0.97178393757E+02  0.14134256309E+03  0.12700000000E+01 0. -1.
          2    1    1    2  502    0 -0.20627154554E+03  0.43226753816E+02  0.86336474130E+03  0.88871546587E+03  0.00000000000E+00 0. -1.
          1    1    1    2  503    0  0.84558845644E+02 -0.52685995092E+02 -0.21797838933E+04  0.21820595395E+04  0.00000000000E+00 0. -1.
<mgrwt>
<rscale>  0 0.14282471E+03</rscale>
<asrwt>0</asrwt>
<pdfrwt beam="2">  1        2 0.36585466E+00 0.99629375E+02</pdfrwt>
<pdfrwt beam="1">  1        1 0.14131622E+00 0.20474783E+03</pdfrwt>
<totfact> 0.13660692E+01</totfact>
</mgrwt>
</event>
<event>
 7    1  0.5277388E-004  0.1122703E+03  0.7546771E-02  0.1312590E+00
          1   -1    0    0  503    0  0.00000000000E+00  0.00000000000E+00  0.12000641608E+04  0.12000641608E+04  0.00000000000E+00 0. -1.
         -3   -1    0    0    0  501 -0.00000000000E+00 -0.00000000000E+00 -0.25425809290E+03  0.25425809290E+03  0.00000000000E+00 0.  1.
         25    2    1    2    0    0  0.16243554544E+03  0.16330507561E+02  0.13031602532E+01  0.20561884807E+03  0.12500168221E+03 0.  0.
          4    1    3    3  502    0  0.92779752849E+01 -0.40765134291E+02 -0.44209379420E+01  0.42059892908E+02  0.12700000000E+01 0. -1.
         -4    1    3    3    0  502  0.15315757015E+03  0.57095641852E+02  0.57240981952E+01  0.16355895516E+03  0.12700000000E+01 0. -1.
          2    1    1    2  503    0 -0.63849277561E+02  0.16806743021E+02  0.10776940490E+04  0.10797146197E+04  0.00000000000E+00 0. -1.
         -2    1    1    2    0  501 -0.98586267878E+02 -0.33137250583E+02 -0.13319114140E+03  0.16898878584E+03  0.00000000000E+00 0.  1.
<mgrwt>
<rscale>  0 0.86096209E+02</rscale>
<asrwt>0</asrwt>
<pdfrwt beam="1">  1        1 0.18462525E+00 0.66024214E+02</pdfrwt>
<pdfrwt beam="2">  1       -3 0.39116630E-01 0.11227028E+03</pdfrwt>
<totfact> 0.43666274E+01</totfact>
</mgrwt>
</event>
<event>
 7    1  0.5277388E-004  0.8643714E+02  0.7546771E-02  0.1464860E+00
          2   -1    0    0  503    0  0.00000000000E+00  0.00000000000E+00  0.30056625128E+04  0.30056625128E+04  0.00000000000E+00 0. -1.
          1   -1    0    0  502    0 -0.00000000000E+00 -0.00000000000E+00 -0.40271535304E+03  0.40271535304E+03  0.00000000000E+00 0. -1.
         25    2    1    2    0    0 -0.39666648444E+00 -0.73372909503E+02  0.87605791722E+03  0.88796677300E+03  0.12499509766E+03 0.  0.
          4    1    3    3  501    0 -0.49346935146E+02 -0.82060158959E+01  0.53360452677E+03  0.53594576460E+03  0.12700000000E+01 0.  1.
         -4    1    3    3    0  501  0.48950268661E+02 -0.65166893607E+02  0.34245339045E+03  0.35202100840E+03  0.12700000000E+01 0.  1.
          2    1    1    2  502    0  0.21530117515E+02 -0.12852920717E+02 -0.39543582343E+03  0.39623002660E+03  0.00000000000E+00 0. -1.
          1    1    1    2  503    0 -0.21133451031E+02  0.86225830220E+02  0.21223250659E+04  0.21241810662E+04  0.00000000000E+00 0. -1.
<mgrwt>
<rscale>  0 0.46555242E+02</rscale>
<asrwt>0</asrwt>
<pdfrwt beam="1">  1        2 0.46240960E+00 0.86437144E+02</pdfrwt>
<pdfrwt beam="2">  1        1 0.61956210E-01 0.25074759E+02</pdfrwt>
<totfact> 0.20890455E+01</totfact>
</mgrwt>
</event>
<event>
 7    1  0.5277388E-004  0.3130735E+02  0.7546771E-02  0.1597734E+00
         -1   -1    0    0    0  502 -0.00000000000E+00  0.00000000000E+00  0.27692973602E+02  0.27692973602E+02  0.00000000000E+00 0.  1.
         -2   -1    0    0    0  501  0.00000000000E+00 -0.00000000000E+00 -0.35864215203E+03  0.35864215203E+03  0.00000000000E+00 0.  1.
         25    2    1    2    0    0 -0.16015940762E+02 -0.33097420089E+02 -0.26311665025E+03  0.29361199238E+03  0.12500272338E+03 0.  0.
          4    1    3    3  503    0 -0.23655629296E+02  0.45435155533E+02 -0.11040379750E+03  0.12171505066E+03  0.12700000000E+01 0.  1.
         -4    1    3    3    0  503  0.76396885342E+01 -0.78532575622E+02 -0.15271285276E+03  0.17189694172E+03  0.12700000000E+01 0.  1.
         -2    1    1    2    0  502  0.28649474241E+02  0.30254258889E+01 -0.20996636827E+02  0.35648342657E+02  0.00000000000E+00 0.  1.
         -1    1    1    2    0  501 -0.12633533480E+02  0.30071994200E+02 -0.46835891348E+02  0.57074790597E+02  0.00000000000E+00 0.  1.
<mgrwt>
<rscale>  0 0.30032088E+02</rscale>
<asrwt>0</asrwt>
<pdfrwt beam="2">  1       -2 0.55175711E-01 0.31307346E+02</pdfrwt>
<pdfrwt beam="1">  1       -1 0.42604579E-02 0.28808776E+02</pdfrwt>
<totfact> 0.40955994E+03</totfact>
</mgrwt>
</event>
<event>
 7    1  0.5277388E-004  0.9026249E+02  0.7546771E-02  0.1347773E+00
          2   -1    0    0  503    0  0.00000000000E+00  0.00000000000E+00  0.85119569012E+03  0.85119569012E+03  0.00000000000E+00 0. -1.
         -2   -1    0    0    0  501 -0.00000000000E+00 -0.00000000000E+00 -0.17968050077E+03  0.17968050077E+03  0.00000000000E+00 0.  1.
         25    2    1    2    0    0  0.62169932203E+02 -0.19791787393E+02  0.52102588976E+03  0.53976810516E+03  0.12499925689E+03 0.  0.
          4    1    3    3  502    0  0.68074213998E+02 -0.21570478564E+02  0.52656250998E+03  0.53138411152E+03  0.12700000000E+01 0.  1.
         -4    1    3    3    0  502 -0.59042817948E+01  0.17786911713E+01 -0.55366202214E+01  0.83839936350E+01  0.12700000000E+01 0.  1.
          1    1    1    2  503    0 -0.12228826604E+03  0.15590929643E+02  0.30300199930E+03  0.32712032752E+03  0.00000000000E+00 0. -1.
         -1    1    1    2    0  501  0.60118333838E+02  0.42008577497E+01 -0.15251269972E+03  0.16398775821E+03  0.00000000000E+00 0.  1.
<mgrwt>
<rscale>  0 0.73754065E+02</rscale>
<asrwt>0</asrwt>
<pdfrwt beam="1">  1        2 0.13095318E+00 0.90262488E+02</pdfrwt>
<pdfrwt beam="2">  1       -2 0.27643155E-01 0.60264926E+02</pdfrwt>
<totfact> 0.39509718E+02</totfact>
</mgrwt>
</event>
<event>
 7    1  0.5277388E-004  0.1301253E+03  0.7546771E-02  0.1348304E+00
          1   -1    0    0  502    0 -0.00000000000E+00  0.00000000000E+00  0.30796433373E+03  0.30796433373E+03  0.00000000000E+00 0. -1.
          2   -1    0    0  503    0  0.00000000000E+00 -0.00000000000E+00 -0.30780502720E+04  0.30780502720E+04  0.00000000000E+00 0. -1.
         25    2    1    2    0    0  0.12747756642E+03 -0.25650216808E+01 -0.69014957078E+02  0.19141710908E+03  0.12498134288E+03 0.  0.
          4    1    3    3  501    0  0.39094930510E+02 -0.54725718507E+02  0.82767634598E+00  0.67272697328E+02  0.12700000000E+01 0. -1.
         -4    1    3    3    0  501  0.88382635915E+02  0.52160696827E+02 -0.69842633423E+02  0.12414441175E+03  0.12700000000E+01 0. -1.
          2    1    1    2  502    0 -0.12365945504E+03  0.44003447562E+02  0.22915112269E+03  0.26407991451E+03  0.00000000000E+00 0. -1.
          1    1    1    2  503    0 -0.38181113825E+01 -0.41438425881E+02 -0.29302221039E+04  0.29305175821E+04  0.00000000000E+00 0. -1.
<mgrwt>
<rscale>  0 0.73586861E+02</rscale>
<asrwt>0</asrwt>
<pdfrwt beam="2">  1        2 0.47354618E+00 0.41613953E+02</pdfrwt>
<pdfrwt beam="1">  1        1 0.47379130E-01 0.13012525E+03</pdfrwt>
<totfact> 0.29684544E+01</totfact>
</mgrwt>
</event>
<event>
 7    1  0.5277388E-004  0.7755569E+02  0.7546771E-02  0.1384030E+00
          1   -1    0    0  503    0  0.00000000000E+00  0.00000000000E+00  0.29416941538E+03  0.29416941538E+03  0.00000000000E+00 0. -1.
         -1   -1    0    0    0  501 -0.00000000000E+00 -0.00000000000E+00 -0.32588741043E+03  0.32588741043E+03  0.00000000000E+00 0.  1.
         25    2    1    2    0    0 -0.71175776351E+02 -0.10567530857E+03  0.83162902757E+02  0.19691045237E+03  0.12499758348E+03 0.  0.
          4    1    3    3  502    0 -0.58249717521E+02 -0.69812703160E+02  0.11543459900E+03  0.14694761876E+03  0.12700000000E+01 0.  1.
         -4    1    3    3    0  502 -0.12926058830E+02 -0.35862605411E+02 -0.32271696242E+02  0.49962833607E+02  0.12700000000E+01 0.  1.
          2    1    1    2  503    0  0.27133238364E+02  0.44189011286E+02  0.14420602954E+03  0.15324575132E+03  0.00000000000E+00 0. -1.
         -2    1    1    2    0  501  0.44042537987E+02  0.61486297285E+02 -0.25908692734E+03  0.26990062212E+03  0.00000000000E+00 0.  1.
<mgrwt>
<rscale>  0 0.63416130E+02</rscale>
<asrwt>0</asrwt>
<pdfrwt beam="1">  1        1 0.45256833E-01 0.51854425E+02</pdfrwt>
<pdfrwt beam="2">  1       -1 0.50136525E-01 0.77555689E+02</pdfrwt>
<totfact> 0.37305932E+02</totfact>
</mgrwt>
</event>
<event>
 7    1  0.5277388E-004  0.1148587E+03  0.7546771E-02  0.1292822E+00
         -2   -1    0    0    0  501 -0.00000000000E+00  0.00000000000E+00  0.28897726426E+03  0.28897726426E+03  0.00000000000E+00 0.  1.
          2   -1    0    0  503    0  0.00000000000E+00 -0.00000000000E+00 -0.15861351219E+04  0.15861351219E+04  0.00000000000E+00 0. -1.
         25    2    1    2    0    0  0.65957519549E+02 -0.17656453327E+03 -0.22550808073E+03  0.31938176435E+03  0.12500155251E+03 0.  0.
          4    1    3    3  502    0  0.30023300164E+01 -0.15567183565E+03 -0.18435385107E+03  0.24131035971E+03  0.12700000000E+01 0.  1.
         -4    1    3    3    0  502  0.62955189533E+02 -0.20892697618E+02 -0.41154229662E+02  0.78071404637E+02  0.12700000000E+01 0.  1.
          1    1    1    2  503    0 -0.31776971445E+02  0.70550837775E+02 -0.12996630921E+04  0.13019644195E+04  0.00000000000E+00 0. -1.
         -1    1    1    2    0  501 -0.34180548104E+02  0.10601369549E+03  0.22801331524E+03  0.25376620229E+03  0.00000000000E+00 0.  1.
<mgrwt>
<rscale>  0 0.94273114E+02</rscale>
<asrwt>0</asrwt>
<pdfrwt beam="2">  1        2 0.24402079E+00 0.77376977E+02</pdfrwt>
<pdfrwt beam="1">  1       -2 0.44458041E-01 0.11485871E+03</pdfrwt>
<totfact> 0.66919415E+01</totfact>
</mgrwt>
</event>
<event>
 7    1  0.5277388E-004  0.8628165E+02  0.7546771E-02  0.1341266E+00
          1   -1    0    0  502    0 -0.00000000000E+00  0.00000000000E+00  0.21521859270E+04  0.21521859270E+04  0.00000000000E+00 0. -1.
          2   -1    0    0  503    0  0.00000000000E+00 -0.00000000000E+00 -0.18923913009E+03  0.18923913009E+03  0.00000000000E+00 0. -1.
         25    2    1    2    0    0 -0.44659497838E+02 -0.95437571370E+02 -0.29771688675E+02  0.16615922228E+03  0.12497892992E+03 0.  0.
          4    1    3    3  501    0 -0.51724215102E+02  0.79624963800E+01 -0.34004917944E+02  0.62423898636E+02  0.12700000000E+01 0. -1.
         -4    1    3    3    0  501  0.70647172648E+01 -0.10340006775E+03  0.42332292688E+01  0.10373532364E+03  0.12700000000E+01 0. -1.
          2    1    1    2  502    0  0.77730405009E+02  0.37541479378E+02  0.20707951354E+04  0.20725935133E+04  0.00000000000E+00 0. -1.
          1    1    1    2  503    0 -0.33070907172E+02  0.57896091992E+02 -0.78076649797E+02  0.10267232155E+03  0.00000000000E+00 0. -1.
<mgrwt>
<rscale>  0 0.75847775E+02</rscale>
<asrwt>0</asrwt>
<pdfrwt beam="2">  1        2 0.29113714E-01 0.66675650E+02</pdfrwt>
<pdfrwt beam="1">  1        1 0.33110551E+00 0.86281648E+02</pdfrwt>
<totfact> 0.74390325E+01</totfact>
</mgrwt>
</event>
<event>
 7    1  0.5277388E-004  0.1513051E+03  0.7546771E-02  0.1413341E+00
          2   -1    0    0  503    0  0.00000000000E+00  0.00000000000E+00  0.17413188731E+04  0.17413188731E+04  0.00000000000E+00 0. -1.
          1   -1    0    0  502    0 -0.00000000000E+00 -0.00000000000E+00 -0.82108667891E+02  0.82108667891E+02  0.00000000000E+00 0. -1.
         25    2    1    2    0    0 -0.12467701908E+03 -0.58122369682E+02  0.78366250858E+03  0.80540181743E+03  0.12499036457E+03 0.  0.
          4    1    3    3  501    0 -0.75271933002E+02 -0.85698788010E+02  0.35140894438E+03  0.36945907115E+03  0.12700000000E+01 0.  1.
         -4    1    3    3    0  501 -0.49405086074E+02  0.27576418328E+02  0.43225356420E+03  0.43594274628E+03  0.12700000000E+01 0.  1.
          2    1    1    2  502    0  0.14425563193E+03  0.50351315851E+02  0.10961771086E+02  0.15318323269E+03  0.00000000000E+00 0. -1.
          1    1    1    2  503    0 -0.19578612853E+02  0.77710538310E+01  0.86458592560E+03  0.86484249092E+03  0.00000000000E+00 0. -1.
<mgrwt>
<rscale>  0 0.56454942E+02</rscale>
<asrwt>0</asrwt>
<pdfrwt beam="1">  1        2 0.26789518E+00 0.21064457E+02</pdfrwt>
<pdfrwt beam="2">  1        1 0.12632104E-01 0.15130513E+03</pdfrwt>
<totfact> 0.80977066E+02</totfact>
</mgrwt>
</event>
<event>
 7    1  0.5277388E-004  0.1427060E+03  0.7546771E-02  0.1322169E+00
          1   -1    0    0  502    0 -0.00000000000E+00  0.00000000000E+00  0.14029642313E+03  0.14029642313E+03  0.00000000000E+00 0. -1.
          2   -1    0    0  503    0  0.00000000000E+00 -0.00000000000E+00 -0.91371305173E+03  0.91371305173E+03  0.00000000000E+00 0. -1.
         25    2    1    2    0    0  0.89460255757E+01  0.10710537436E+03 -0.46227846952E+03  0.49079339371E+03  0.12500071732E+03 0.  0.
          4    1    3    3  501    0 -0.25092121449E+02  0.95820027333E+01 -0.13139445841E+02  0.29928034887E+02  0.12700000000E+01 0. -1.
         -4    1    3    3    0  501  0.34038147025E+02  0.97523371627E+02 -0.44913902368E+03  0.46086535882E+03  0.12700000000E+01 0. -1.
          2    1    1    2  502    0  0.20401394930E+02 -0.14466580857E+03  0.81772226512E+02  0.16742493874E+03  0.00000000000E+00 0. -1.
          1    1    1    2  503    0 -0.29347420506E+02  0.37560434208E+02 -0.39291038559E+03  0.39579114241E+03  0.00000000000E+00 0. -1.
<mgrwt>
<rscale>  0 0.82475682E+02</rscale>
<asrwt>0</asrwt>
<pdfrwt beam="2">  1        2 0.14057124E+00 0.47666102E+02</pdfrwt>
<pdfrwt beam="1">  1        1 0.21584064E-01 0.14270599E+03</pdfrwt>
<totfact> 0.99478111E+02</totfact>
</mgrwt>
</event>
<event>
 7    1  0.5277388E-004  0.4071889E+03  0.7546771E-02  0.1096673E+00
         -2   -1    0    0    0  501 -0.00000000000E+00  0.00000000000E+00  0.42398101965E+03  0.42398101965E+03  0.00000000000E+00 0.  1.
          2   -1    0    0  503    0  0.00000000000E+00 -0.00000000000E+00 -0.26282559862E+04  0.26282559862E+04  0.00000000000E+00 0. -1.
         25    2    1    2    0    0 -0.48557770582E+02 -0.36577674692E+03 -0.21354771160E+03  0.44427257632E+03  0.12500004509E+03 0.  0.
          4    1    3    3  502    0 -0.31215646706E+02 -0.29852991033E+03 -0.22332946257E+03  0.37412856843E+03  0.12700000000E+01 0. -1.
         -4    1    3    3    0  502 -0.17342123876E+02 -0.67246836582E+02  0.97817509728E+01  0.70144007890E+02  0.12700000000E+01 0. -1.
          1    1    1    2  503    0  0.18315389116E+03 -0.50847441726E+02 -0.21376953231E+04  0.21461295638E+04  0.00000000000E+00 0. -1.
         -1    1    1    2    0  501 -0.13459612057E+03  0.41662418864E+03  0.14696806808E+03  0.46183486580E+03  0.00000000000E+00 0.  1.
<mgrwt>
<rscale>  0 0.27820659E+03</rscale>
<asrwt>0</asrwt>
<pdfrwt beam="2">  1        2 0.40434707E+00 0.19008106E+03</pdfrwt>
<pdfrwt beam="1">  1       -2 0.65227849E-01 0.40718895E+03</pdfrwt>
<totfact> 0.79948660E+00</totfact>
</mgrwt>
</event>
<event>
 7    1  0.5277388E-004  0.1101149E+03  0.7546771E-02  0.1439217E+00
          1   -1    0    0  502    0 -0.00000000000E+00  0.00000000000E+00  0.64084863833E+03  0.64084863833E+03  0.00000000000E+00 0. -1.
          2   -1    0    0  503    0  0.00000000000E+00 -0.00000000000E+00 -0.42804182738E+03  0.42804182738E+03  0.00000000000E+00 0. -1.
         25    2    1    2    0    0  0.13021467747E+03  0.16627334245E+02 -0.10790042192E+03  0.21095018005E+03  0.12500058776E+03 0.  0.
          4    1    3    3  501    0  0.14063965023E+03 -0.16458804438E+02 -0.65128224166E+02  0.15586437035E+03  0.12700000000E+01 0. -1.
         -4    1    3    3    0  501 -0.10424972759E+02  0.33086138683E+02 -0.42772197755E+02  0.55085809704E+02  0.12700000000E+01 0. -1.
          2    1    1    2  502    0 -0.10932382970E+03 -0.53017848570E+01  0.58370141691E+03  0.59387469450E+03  0.00000000000E+00 0. -1.
          1    1    1    2  503    0 -0.20890847771E+02 -0.11325549388E+02 -0.26299418404E+03  0.26406559115E+03  0.00000000000E+00 0. -1.
<mgrwt>
<rscale>  0 0.51153655E+02</rscale>
<asrwt>0</asrwt>
<pdfrwt beam="2">  1        2 0.65852589E-01 0.23763324E+02</pdfrwt>
<pdfrwt beam="1">  1        1 0.98592098E-01 0.11011491E+03</pdfrwt>
<totfact> 0.33978266E+02</totfact>
</mgrwt>
</event>
<event>
 7    1  0.5277388E-004  0.1157655E+03  0.7546771E-02  0.1372358E+00
          1   -1    0    0  502    0 -0.00000000000E+00  0.00000000000E+00  0.68579568140E+03  0.68579568140E+03  0.00000000000E+00 0. -1.
          2   -1    0    0  503    0  0.00000000000E+00 -0.00000000000E+00 -0.10302130071E+04  0.10302130071E+04  0.00000000000E+00 0. -1.
         25    2    1    2    0    0  0.38836639262E+02 -0.12212349743E+03  0.71979150124E+02  0.19294467779E+03  0.12499686980E+03 0.  0.
          4    1    3    3  501    0 -0.28497868661E+02 -0.10423076641E+03  0.54851352006E+02  0.12118772587E+03  0.12700000000E+01 0. -1.
         -4    1    3    3    0  501  0.67334507923E+02 -0.17892731022E+02  0.17127798118E+02  0.71756951921E+02  0.12700000000E+01 0. -1.
          2    1    1    2  502    0 -0.37653984193E+02  0.65437230835E+01  0.54922306418E+03  0.55055119386E+03  0.00000000000E+00 0. -1.
          1    1    1    2  503    0 -0.11826550693E+01  0.11557977435E+03 -0.96561954000E+03  0.97251281685E+03  0.00000000000E+00 0. -1.
<mgrwt>
<rscale>  0 0.66515906E+02</rscale>
<asrwt>0</asrwt>
<pdfrwt beam="2">  1        2 0.15849431E+00 0.11576546E+03</pdfrwt>
<pdfrwt beam="1">  1        1 0.10550703E+00 0.38218357E+02</pdfrwt>
<totfact> 0.11347158E+02</totfact>
</mgrwt>
</event>
<event>
 7    1  0.5277388E-004  0.4079462E+02  0.7546771E-02  0.1512044E+00
          1   -1    0    0  503    0  0.00000000000E+00  0.00000000000E+00  0.18340013498E+04  0.18340013498E+04  0.00000000000E+00 0. -1.
         -1   -1    0    0    0  501 -0.00000000000E+00 -0.00000000000E+00 -0.17724810415E+03  0.17724810415E+03  0.00000000000E+00 0.  1.
         25    2    1    2    0    0 -0.27240622449E+01  0.47600244724E+01  0.22165228438E+03  0.25453899337E+03  0.12502114071E+03 0.  0.
          4    1    3    3  502    0 -0.20139447778E+02  0.25407071301E+02  0.22496790966E+03  0.22729560028E+03  0.12700000000E+01 0.  1.
         -4    1    3    3    0  502  0.17415385533E+02 -0.20647046829E+02 -0.33156252762E+01  0.27243393088E+02  0.12700000000E+01 0.  1.
          2    1    1    2  503    0 -0.38215355720E+02 -0.32005813934E-01  0.15930323340E+04  0.15934906437E+04  0.00000000000E+00 0. -1.
         -2    1    1    2    0  501  0.40939417965E+02 -0.47280186584E+01 -0.15793137277E+03  0.16321981684E+03  0.00000000000E+00 0.  1.
<mgrwt>
<rscale>  0 0.39483940E+02</rscale>
<asrwt>0</asrwt>
<pdfrwt beam="1">  1        1 0.28215404E+00 0.38215369E+02</pdfrwt>
<pdfrwt beam="2">  1       -1 0.27268940E-01 0.40794622E+02</pdfrwt>
<totfact> 0.63060274E+01</totfact>
</mgrwt>
</event>
<event>
 7    1  0.5277388E-004  0.6170895E+02  0.7546771E-02  0.1435052E+00
          2   -1    0    0  503    0  0.00000000000E+00  0.00000000000E+00  0.15475100430E+03  0.15475100430E+03  0.00000000000E+00 0. -1.
          1   -1    0    0  502    0 -0.00000000000E+00 -0.00000000000E+00 -0.12697790438E+03  0.12697790438E+03  0.00000000000E+00 0. -1.
         25    2    1    2    0    0 -0.13129561178E+02  0.41303029227E+02  0.29271517004E+02  0.13550183084E+03  0.12500239539E+03 0.  0.
          4    1    3    3  501    0 -0.29460679655E+02  0.23493983795E+02  0.74900228767E+02  0.83854374303E+02  0.12700000000E+01 0.  1.
         -4    1    3    3    0  501  0.16331118477E+02  0.17809045432E+02 -0.45628711764E+02  0.51647456541E+02  0.12700000000E+01 0.  1.
          2    1    1    2  502    0  0.56633154897E+02 -0.36669592750E+02 -0.47677804503E+02  0.82614443702E+02  0.00000000000E+00 0. -1.
          1    1    1    2  503    0 -0.43503593719E+02 -0.46334364774E+01  0.46179387420E+02  0.63612634142E+02  0.00000000000E+00 0. -1.
<mgrwt>
<rscale>  0 0.51959065E+02</rscale>
<asrwt>0</asrwt>
<pdfrwt beam="1">  1        2 0.23807847E-01 0.43749645E+02</pdfrwt>
<pdfrwt beam="2">  1        1 0.19535062E-01 0.61708946E+02</pdfrwt>
<totfact> 0.72526129E+03</totfact>
</mgrwt>
</event>
<event>
 7    1  0.5277388E-004  0.5703012E+02  0.7546771E-02  0.1485387E+00
          1   -1    0    0  502    0 -0.00000000000E+00  0.00000000000E+00  0.43711792087E+03  0.43711792087E+03  0.00000000000E+00 0. -1.
          2   -1    0    0  503    0  0.00000000000E+00 -0.00000000000E+00 -0.18929755781E+04  0.18929755781E+04  0.00000000000E+00 0. -1.
         25    2    1    2    0    0  0.10792419166E+02  0.37589642632E+02  0.21213673879E+03  0.24930931082E+03  0.12499471577E+03 0.  0.
          4    1    3    3  501    0  0.12899390915E+02  0.72572023097E+02  0.65752700299E+02  0.98783213751E+02  0.12700000000E+01 0.  1.
         -4    1    3    3    0  501 -0.21069717490E+01 -0.34982380465E+02  0.14638403849E+03  0.15052609707E+03  0.12700000000E+01 0.  1.
          2    1    1    2  502    0  0.11814289135E+02 -0.61412811948E+02  0.20150994513E+03  0.21099139529E+03  0.00000000000E+00 0. -1.
          1    1    1    2  503    0 -0.22606708300E+02  0.23823169316E+02 -0.18695043411E+04  0.18697927928E+04  0.00000000000E+00 0. -1.
<mgrwt>
<rscale>  0 0.43278072E+02</rscale>
<asrwt>0</asrwt>
<pdfrwt beam="2">  1        2 0.29122701E+00 0.32842148E+02</pdfrwt>
<pdfrwt beam="1">  1        1 0.67248912E-01 0.57030118E+02</pdfrwt>
<totfact> 0.80177866E+01</totfact>
</mgrwt>
</event>
<event>
 7    1  0.5277388E-004  0.1948576E+03  0.7546771E-02  0.1285555E+00
         -2   -1    0    0    0  501 -0.00000000000E+00  0.00000000000E+00  0.91645313892E+02  0.91645313892E+02  0.00000000000E+00 0.  1.
          2   -1    0    0  503    0  0.00000000000E+00 -0.00000000000E+00 -0.21071022972E+04  0.21071022972E+04  0.00000000000E+00 0. -1.
         25    2    1    2    0    0 -0.16161084922E+03 -0.81267575995E+02 -0.28054432352E+03  0.35644193357E+03  0.12499299603E+03 0.  0.
          4    1    3    3  502    0 -0.10889756531E+03 -0.10073748268E+03 -0.25429826897E+03  0.29440778292E+03  0.12700000000E+01 0. -1.
         -4    1    3    3    0  502 -0.52713283913E+02  0.19469906684E+02 -0.26246054553E+02  0.62034150649E+02  0.12700000000E+01 0. -1.
          1    1    1    2  503    0  0.19268827646E+03  0.43608843060E+02 -0.17707514887E+04  0.17817382910E+04  0.00000000000E+00 0. -1.
         -1    1    1    2    0  501 -0.31077427235E+02  0.37658732934E+02  0.35838828889E+02  0.60567386487E+02  0.00000000000E+00 0.  1.
<mgrwt>
<rscale>  0 0.97540428E+02</rscale>
<asrwt>0</asrwt>
<pdfrwt beam="2">  1        2 0.32416958E+00 0.19485762E+03</pdfrwt>
<pdfrwt beam="1">  1       -2 0.14099279E-01 0.48826086E+02</pdfrwt>
<totfact> 0.23574043E+02</totfact>
</mgrwt>
</event>
<event>
 7    1  0.8751418E-004  0.6113153E+02  0.7546771E-02  0.1441072E+00
         -2   -1    0    0    0  501 -0.00000000000E+00  0.00000000000E+00  0.10346210269E+03  0.10346210269E+03  0.00000000000E+00 0.  1.
          2   -1    0    0  503    0  0.00000000000E+00 -0.00000000000E+00 -0.18000694210E+03  0.18000694210E+03  0.00000000000E+00 0. -1.
         25    2    1    2    0    0 -0.61462874386E+02  0.10182987681E+02  0.15123961394E+02  0.14045851840E+03  0.12497392935E+03 0.  0.
          4    1    3    3  502    0 -0.60204316098E+02 -0.36210163936E+02 -0.29365694251E+02  0.76155712511E+02  0.12700000000E+01 0. -1.
         -4    1    3    3    0  502 -0.12585582879E+01  0.46393151617E+02  0.44489655645E+02  0.64302805890E+02  0.12700000000E+01 0. -1.
          3    1    1    2  503    0  0.21795420731E+01 -0.42158886926E+02 -0.31207965236E+02  0.52498183251E+02  0.00000000000E+00 0. -1.
         -3    1    1    2    0  501  0.59283332313E+02  0.31975899245E+02 -0.60460835568E+02  0.90512343137E+02  0.00000000000E+00 0.  1.
<mgrwt>
<rscale>  0 0.50800385E+02</rscale>
<asrwt>0</asrwt>
<pdfrwt beam="2">  1        2 0.27693375E-01 0.42215189E+02</pdfrwt>
<pdfrwt beam="1">  1       -2 0.15917247E-01 0.61131531E+02</pdfrwt>
<totfact> 0.52721662E+03</totfact>
</mgrwt>
</event>
<event>
 7    1  0.5277388E-004  0.5889905E+02  0.7546771E-02  0.1403948E+00
         -2   -1    0    0    0  501 -0.00000000000E+00  0.00000000000E+00  0.12155223325E+03  0.12155223325E+03  0.00000000000E+00 0.  1.
          2   -1    0    0  503    0  0.00000000000E+00 -0.00000000000E+00 -0.65776773927E+03  0.65776773927E+03  0.00000000000E+00 0. -1.
         25    2    1    2    0    0 -0.19809062337E+01 -0.13777978216E+02 -0.90834599882E+01  0.12608913406E+03  0.12498881474E+03 0.  0.
          4    1    3    3  502    0  0.19156728681E+02  0.47802514884E+02 -0.27528000859E+02  0.58407742760E+02  0.12700000000E+01 0. -1.
         -4    1    3    3    0  502 -0.21137634915E+02 -0.61580493100E+02  0.18444540871E+02  0.67681391299E+02  0.12700000000E+01 0. -1.
          1    1    1    2  503    0 -0.25682544707E+02 -0.53004769370E+02 -0.56742508903E+03  0.57047377708E+03  0.00000000000E+00 0. -1.
         -1    1    1    2    0  501  0.27663450941E+02  0.66782747586E+02  0.40293042997E+02  0.82757061372E+02  0.00000000000E+00 0.  1.
<mgrwt>
<rscale>  0 0.58566404E+02</rscale>
<asrwt>0</asrwt>
<pdfrwt beam="2">  1        2 0.10119504E+00 0.58899055E+02</pdfrwt>
<pdfrwt beam="1">  1       -2 0.18700343E-01 0.58235631E+02</pdfrwt>
<totfact> 0.10504714E+03</totfact>
</mgrwt>
</event>
<event>
 7    1  0.5277388E-004  0.7935459E+02  0.7546771E-02  0.1403514E+00
          1   -1    0    0  502    0 -0.00000000000E+00  0.00000000000E+00  0.13275968069E+03  0.13275968069E+03  0.00000000000E+00 0. -1.
          2   -1    0    0  503    0  0.00000000000E+00 -0.00000000000E+00 -0.36400196664E+04  0.36400196664E+04  0.00000000000E+00 0. -1.
         25    2    1    2    0    0 -0.93109558933E+02 -0.20672947798E+02 -0.75262751311E+03  0.76887660189E+03  0.12500517873E+03 0.  0.
          4    1    3    3  501    0 -0.14733183305E+02  0.29480422246E+02 -0.48654529457E+02  0.58779572325E+02  0.12700000000E+01 0.  1.
         -4    1    3    3    0  501 -0.78376375628E+02 -0.50153370044E+02 -0.70397298365E+03  0.71009702956E+03  0.12700000000E+01 0.  1.
          2    1    1    2  502    0  0.32005423467E+02 -0.29270892112E+02  0.12030390905E+03  0.12788339529E+03  0.00000000000E+00 0. -1.
          1    1    1    2  503    0  0.61104135466E+02  0.49943839910E+02 -0.28749363817E+04  0.28760193499E+04  0.00000000000E+00 0. -1.
<mgrwt>
<rscale>  0 0.58666592E+02</rscale>
<asrwt>0</asrwt>
<pdfrwt beam="2">  1        2 0.56000309E+00 0.79354590E+02</pdfrwt>
<pdfrwt beam="1">  1        1 0.20424564E-01 0.43372022E+02</pdfrwt>
<totfact> 0.32715651E+01</totfact>
</mgrwt>
</event>
<event>
 7    1  0.5277388E-004  0.5504292E+02  0.7546771E-02  0.1445454E+00
          2   -1    0    0  503    0  0.00000000000E+00  0.00000000000E+00  0.39634623454E+03  0.39634623454E+03  0.00000000000E+00 0. -1.
          1   -1    0    0  502    0 -0.00000000000E+00 -0.00000000000E+00 -0.11905326118E+03  0.11905326118E+03  0.00000000000E+00 0. -1.
         25    2    1    2    0    0 -0.21742174377E+02  0.11831777897E+02  0.16855125753E+03  0.21130386097E+03  0.12500832824E+03 0.  0.
          4    1    3    3  501    0  0.38607763161E+02  0.14402060559E+02  0.13715163664E+03  0.14321369717E+03  0.12700000000E+01 0.  1.
         -4    1    3    3    0  501 -0.60349937538E+02 -0.25702826620E+01  0.31399620898E+02  0.68090163800E+02  0.12700000000E+01 0.  1.
          2    1    1    2  502    0  0.52586508164E+02  0.21456073591E+02 -0.86593881657E+02  0.10355773402E+03  0.00000000000E+00 0. -1.
          1    1    1    2  503    0 -0.30844333786E+02 -0.33287851488E+02  0.19533559749E+03  0.20053790073E+03  0.00000000000E+00 0. -1.
<mgrwt>
<rscale>  0 0.49979135E+02</rscale>
<asrwt>0</asrwt>
<pdfrwt beam="1">  1        2 0.60976343E-01 0.45381207E+02</pdfrwt>
<pdfrwt beam="2">  1        1 0.18315886E-01 0.55042915E+02</pdfrwt>
<totfact> 0.29684230E+03</totfact>
</mgrwt>
</event>
<event>
 7    1  0.5277388E-004  0.5407616E+02  0.7546771E-02  0.1469108E+00
         -2   -1    0    0    0  501 -0.00000000000E+00  0.00000000000E+00  0.15986226568E+02  0.15986226568E+02  0.00000000000E+00 0.  1.
          2   -1    0    0  503    0  0.00000000000E+00 -0.00000000000E+00 -0.28685710718E+04  0.28685710718E+04  0.00000000000E+00 0. -1.
         25    2    1    2    0    0  0.16653340199E+02 -0.89670370553E+02 -0.20421769250E+04  0.20480304104E+04  0.12499544025E+03 0.  0.
          4    1    3    3  502    0  0.34027675880E+02 -0.73326514560E+00 -0.15587499033E+03  0.15955264308E+03  0.12700000000E+01 0. -1.
         -4    1    3    3    0  502 -0.17374335681E+02 -0.88937105407E+02 -0.18863019347E+04  0.18884777674E+04  0.12700000000E+01 0. -1.
          1    1    1    2  503    0 -0.12686651222E+02  0.36745787623E+02 -0.76694139404E+03  0.76792597685E+03  0.00000000000E+00 0. -1.
         -1    1    1    2    0  501 -0.39666889775E+01  0.52924582929E+02 -0.43466526216E+02  0.68600911080E+02  0.00000000000E+00 0.  1.
<mgrwt>
<rscale>  0 0.45849406E+02</rscale>
<asrwt>0</asrwt>
<pdfrwt beam="2">  1        2 0.44131871E+00 0.38874208E+02</pdfrwt>
<pdfrwt beam="1">  1       -2 0.24594190E-02 0.54076164E+02</pdfrwt>
<totfact> 0.15802853E+03</totfact>
</mgrwt>
</event>
<event>
 7    1  0.5277388E-004  0.5623397E+02  0.7546771E-02  0.1470047E+00
         -2   -1    0    0    0  501  0.00000000000E+00  0.00000000000E+00  0.64295760224E+03  0.64295760224E+03  0.00000000000E+00 0.  1.
         -1   -1    0    0    0  502 -0.00000000000E+00 -0.00000000000E+00 -0.99157417427E+02  0.99157417427E+02  0.00000000000E+00 0.  1.
         25    2    1    2    0    0  0.52952429027E+02  0.51695837256E+00  0.13342258370E+03  0.19034237253E+03  0.12499762380E+03 0.  0.
          4    1    3    3  503    0  0.43219787761E+02 -0.50232321191E+02  0.11976084272E+03  0.13687771366E+03  0.12700000000E+01 0.  1.
         -4    1    3    3    0  503  0.97326412663E+01  0.50749279563E+02  0.13661740976E+02  0.53464658876E+02  0.12700000000E+01 0.  1.
         -2    1    1    2    0  502 -0.44792093261E+02  0.35706848379E+02 -0.58237983976E+02  0.81688269767E+02  0.00000000000E+00 0.  1.
         -1    1    1    2    0  501 -0.81603357657E+01 -0.36223806752E+02  0.46861558509E+03  0.47008437737E+03  0.00000000000E+00 0.  1.
<mgrwt>
<rscale>  0 0.45695263E+02</rscale>
<asrwt>0</asrwt>
<pdfrwt beam="1">  1       -2 0.98916552E-01 0.37131594E+02</pdfrwt>
<pdfrwt beam="2">  1       -1 0.15254988E-01 0.56233973E+02</pdfrwt>
<totfact> 0.20025072E+02</totfact>
</mgrwt>
</event>
<event>
 7    1  0.5277388E-004  0.6513323E+02  0.7546771E-02  0.1476214E+00
         -2   -1    0    0    0  501 -0.00000000000E+00  0.00000000000E+00  0.31521781505E+02  0.31521781505E+02  0.00000000000E+00 0.  1.
          2   -1    0    0  503    0  0.00000000000E+00 -0.00000000000E+00 -0.13555291394E+04  0.13555291394E+04  0.00000000000E+00 0. -1.
         25    2    1    2    0    0 -0.12658253185E+02  0.50509021451E+02 -0.24316407544E+03  0.27832709446E+03  0.12500324519E+03 0.  0.
          4    1    3    3  502    0 -0.16896911349E+02 -0.40229056505E+02 -0.64341324480E+02  0.77751537196E+02  0.12700000000E+01 0. -1.
         -4    1    3    3    0  502  0.42386581641E+01  0.90738077956E+02 -0.17882275096E+03  0.20057555727E+03  0.12700000000E+01 0. -1.
          1    1    1    2  503    0  0.43333826178E+02 -0.50046318713E+02 -0.10755573482E+04  0.10775927170E+04  0.00000000000E+00 0. -1.
         -1    1    1    2    0  501 -0.30675572992E+02 -0.46270273787E+00 -0.52859342480E+01  0.31131109410E+02  0.00000000000E+00 0.  1.
<mgrwt>
<rscale>  0 0.44701527E+02</rscale>
<asrwt>0</asrwt>
<pdfrwt beam="2">  1        2 0.20854291E+00 0.65133233E+02</pdfrwt>
<pdfrwt beam="1">  1       -2 0.48495056E-02 0.30679062E+02</pdfrwt>
<totfact> 0.29818383E+03</totfact>
</mgrwt>
</event>
<event>
 7    1  0.5277388E-004  0.8247521E+02  0.7546771E-02  0.1331773E+00
          2   -1    0    0  503    0  0.00000000000E+00  0.00000000000E+00  0.21803647919E+04  0.21803647919E+04  0.00000000000E+00 0. -1.
         -2   -1    0    0    0  501 -0.00000000000E+00 -0.00000000000E+00 -0.32774354703E+03  0.32774354703E+03  0.00000000000E+00 0.  1.
         25    2    1    2    0    0 -0.59971521386E+02 -0.14229702110E+03  0.78942560866E+03  0.81404063073E+03  0.12499732504E+03 0.  0.
          4    1    3    3  502    0 -0.56360450852E+02 -0.14911632251E+03  0.50624579890E+03  0.53075286138E+03  0.12700000000E+01 0.  1.
         -4    1    3    3    0  502 -0.36110705333E+01  0.68193014182E+01  0.28317980977E+03  0.28328776935E+03  0.12700000000E+01 0.  1.
          1    1    1    2  503    0  0.43660045484E+02  0.61920184301E+02  0.13722378420E+04  0.13743278371E+04  0.00000000000E+00 0. -1.
         -1    1    1    2    0  501  0.16311475901E+02  0.80376836796E+02 -0.30904220586E+03  0.31973987105E+03  0.00000000000E+00 0.  1.
<mgrwt>
<rscale>  0 0.79048844E+02</rscale>
<asrwt>0</asrwt>
<pdfrwt beam="1">  1        2 0.33544073E+00 0.75764826E+02</pdfrwt>
<pdfrwt beam="2">  1       -2 0.50422085E-01 0.82475208E+02</pdfrwt>
<totfact> 0.26499019E+01</totfact>
</mgrwt>
</event>
<event>
 7    1  0.5277388E-004  0.8093105E+02  0.7546771E-02  0.1394581E+00
          1   -1    0    0  502    0 -0.00000000000E+00  0.00000000000E+00  0.11183081219E+04  0.11183081219E+04  0.00000000000E+00 0. -1.
          2   -1    0    0  503    0  0.00000000000E+00 -0.00000000000E+00 -0.29377452035E+03  0.29377452035E+03  0.00000000000E+00 0. -1.
         25    2    1    2    0    0  0.81282605670E+01 -0.47366757454E+02 -0.13161111965E+03  0.18776148050E+03  0.12499283345E+03 0.  0.
          4    1    3    3  501    0 -0.23801999049E+02  0.22767778123E+02  0.25262371493E+01  0.33059063107E+02  0.12700000000E+01 0.  1.
         -4    1    3    3    0  501  0.31930259616E+02 -0.70134535577E+02 -0.13413735680E+03  0.15470241739E+03  0.12700000000E+01 0.  1.
          2    1    1    2  502    0  0.26800590756E+02  0.76756883529E+02  0.10847820343E+04  0.10878244127E+04  0.00000000000E+00 0. -1.
          1    1    1    2  503    0 -0.34928851323E+02 -0.29390126076E+02 -0.12863731315E+03  0.13649674905E+03  0.00000000000E+00 0. -1.
<mgrwt>
<rscale>  0 0.60781557E+02</rscale>
<asrwt>0</asrwt>
<pdfrwt beam="2">  1        2 0.45196081E-01 0.45648704E+02</pdfrwt>
<pdfrwt beam="1">  1        1 0.17204740E+00 0.80931053E+02</pdfrwt>
<totfact> 0.21503834E+02</totfact>
</mgrwt>
</event>
<event>
 7    1  0.7412522E-004  0.1511811E+03  0.7546771E-02  0.1316293E+00
          1   -1    0    0  502    0 -0.00000000000E+00  0.00000000000E+00  0.13543279424E+04  0.13543279424E+04  0.00000000000E+00 0. -1.
          2   -1    0    0  503    0  0.00000000000E+00 -0.00000000000E+00 -0.13142065004E+04  0.13142065004E+04  0.00000000000E+00 0. -1.
         25    2    1    2    0    0  0.55195529350E+00 -0.11111978935E+03  0.76055689874E+03  0.77872954876E+03  0.12500000656E+03 0.  0.
          4    1    3    3  501    0 -0.56200128807E+02 -0.19564038517E+02  0.27311681132E+03  0.27952747916E+03  0.12700000000E+01 0.  1.
         -4    1    3    3    0  501  0.56752084101E+02 -0.91555750836E+02  0.48744008743E+03  0.49920206960E+03  0.12700000000E+01 0.  1.
          2    1    1    2  502    0  0.29227235884E+02 -0.37344685241E+02  0.57932057587E+03  0.58125827861E+03  0.00000000000E+00 0. -1.
          1    1    1    2  503    0 -0.29779191177E+02  0.14846447459E+03 -0.12997560326E+04  0.13085466154E+04  0.00000000000E+00 0. -1.
<mgrwt>
<rscale>  0 0.84671878E+02</rscale>
<asrwt>0</asrwt>
<pdfrwt beam="2">  1        2 0.20218562E+00 0.15118109E+03</pdfrwt>
<pdfrwt beam="1">  1        1 0.20835815E+00 0.47422113E+02</pdfrwt>
<totfact> 0.25753194E+01</totfact>
</mgrwt>
</event>
<event>
 7    1  0.5277388E-004  0.8405056E+02  0.7546771E-02  0.1399531E+00
          2   -1    0    0  503    0  0.00000000000E+00  0.00000000000E+00  0.87493119055E+03  0.87493119055E+03  0.00000000000E+00 0. -1.
          3   -1    0    0  502    0 -0.00000000000E+00 -0.00000000000E+00 -0.40408906635E+03  0.40408906635E+03  0.00000000000E+00 0. -1.
         25    2    1    2    0    0  0.77031226408E+02  0.92193680245E+02  0.38925131418E+02  0.17768870997E+03  0.12499850910E+03 0.  0.
          4    1    3    3  501    0 -0.34782073264E+02  0.18511809398E+02  0.10400353686E+02  0.40770822466E+02  0.12700000000E+01 0.  1.
         -4    1    3    3    0  501  0.11181329967E+03  0.73681870847E+02  0.28524777732E+02  0.13691788751E+03  0.12700000000E+01 0.  1.
          2    1    1    2  502    0 -0.63989369128E+02 -0.51998709720E+02 -0.32903419536E+03  0.33920791100E+03  0.00000000000E+00 0. -1.
          1    1    1    2  503    0 -0.13041857279E+02 -0.40194970525E+02  0.76095118814E+03  0.76212363592E+03  0.00000000000E+00 0. -1.
<mgrwt>
<rscale>  0 0.59596945E+02</rscale>
<asrwt>0</asrwt>
<pdfrwt beam="1">  1        2 0.13460480E+00 0.42257848E+02</pdfrwt>
<pdfrwt beam="2">  1        3 0.62167549E-01 0.84050562E+02</pdfrwt>
<totfact> 0.52370274E+01</totfact>
</mgrwt>
</event>
<event>
 7    1  0.5277388E-004  0.7764057E+02  0.7546771E-02  0.1490674E+00
          2   -1    0    0  503    0  0.00000000000E+00  0.00000000000E+00  0.37649097785E+03  0.37649097785E+03  0.00000000000E+00 0. -1.
          1   -1    0    0  502    0 -0.00000000000E+00 -0.00000000000E+00 -0.45846467789E+03  0.45846467789E+03  0.00000000000E+00 0. -1.
         25    2    1    2    0    0 -0.58889867876E+02 -0.25552998956E+01 -0.57814175493E+02  0.14980380082E+03  0.12499661497E+03 0.  0.
          4    1    3    3  501    0 -0.71351051928E+02  0.22236189035E+02  0.11040777918E+02  0.75557477400E+02  0.12700000000E+01 0.  1.
         -4    1    3    3    0  501  0.12461184052E+02 -0.24791488931E+02 -0.68854953412E+02  0.74246323415E+02  0.12700000000E+01 0.  1.
          2    1    1    2  502    0  0.78996946411E+02 -0.91165106768E+01 -0.34977842031E+03  0.35870401674E+03  0.00000000000E+00 0. -1.
          1    1    1    2  503    0 -0.20107078536E+02  0.11671810572E+02  0.32561889577E+03  0.32644783818E+03  0.00000000000E+00 0. -1.
<mgrwt>
<rscale>  0 0.42486255E+02</rscale>
<asrwt>0</asrwt>
<pdfrwt beam="1">  1        2 0.57921689E-01 0.23249210E+02</pdfrwt>
<pdfrwt beam="2">  1        1 0.70533027E-01 0.77640568E+02</pdfrwt>
<totfact> 0.60406368E+02</totfact>
</mgrwt>
</event>
<event>
 7    1  0.5277388E-004  0.5943554E+02  0.7546771E-02  0.1508592E+00
          2   -1    0    0  503    0  0.00000000000E+00  0.00000000000E+00  0.12189986320E+04  0.12189986320E+04  0.00000000000E+00 0. -1.
         -2   -1    0    0    0  501 -0.00000000000E+00 -0.00000000000E+00 -0.62210733377E+03  0.62210733377E+03  0.00000000000E+00 0.  1.
         25    2    1    2    0    0 -0.17507746614E+02 -0.78137502030E+02 -0.22426731331E+03  0.26894784550E+03  0.12500050145E+03 0.  0.
          4    1    3    3  502    0  0.34903649420E+02 -0.63419464668E+02 -0.19305161278E+03  0.20618154946E+03  0.12700000000E+01 0. -1.
         -4    1    3    3    0  502 -0.52411396035E+02 -0.14718037363E+02 -0.31215700530E+02  0.62766296033E+02  0.12700000000E+01 0. -1.
          1    1    1    2  503    0  0.26849446574E+02  0.52964456115E+02  0.11954404714E+04  0.11969143858E+04  0.00000000000E+00 0. -1.
         -1    1    1    2    0  501 -0.93416999592E+01  0.25173045915E+02 -0.37428185987E+03  0.37524373442E+03  0.00000000000E+00 0.  1.
<mgrwt>
<rscale>  0 0.39948394E+02</rscale>
<asrwt>0</asrwt>
<pdfrwt beam="1">  1        2 0.18753825E+00 0.59435537E+02</pdfrwt>
<pdfrwt beam="2">  1       -2 0.95708820E-01 0.26850505E+02</pdfrwt>
<totfact> 0.21891689E+01</totfact>
</mgrwt>
</event>
<event>
 7    1  0.5277388E-004  0.1666756E+03  0.7546771E-02  0.1336582E+00
          1   -1    0    0  502    0 -0.00000000000E+00  0.00000000000E+00  0.33799612867E+03  0.33799612867E+03  0.00000000000E+00 0. -1.
          2   -1    0    0  503    0  0.00000000000E+00 -0.00000000000E+00 -0.10120200570E+04  0.10120200570E+04  0.00000000000E+00 0. -1.
         25    2    1    2    0    0 -0.60143911720E+02 -0.12121263787E+03 -0.64388890727E+01  0.18432639027E+03  0.12499986065E+03 0.  0.
          4    1    3    3  501    0 -0.65278668029E+02 -0.14517037803E+03 -0.92540739612E+00  0.15917981165E+03  0.12700000000E+01 0. -1.
         -4    1    3    3    0  501  0.51347563087E+01  0.23957740167E+02 -0.55134816766E+01  0.25146578623E+02  0.12700000000E+01 0. -1.
          2    1    1    2  502    0 -0.37591697572E+01 -0.35749802195E+02  0.23986843682E+03  0.24254699894E+03  0.00000000000E+00 0. -1.
          1    1    1    2  503    0  0.63903081477E+02  0.15696244006E+03 -0.90745347610E+03  0.92314279649E+03  0.00000000000E+00 0. -1.
<mgrwt>
<rscale>  0 0.77404599E+02</rscale>
<asrwt>0</asrwt>
<pdfrwt beam="2">  1        2 0.15569539E+00 0.16667561E+03</pdfrwt>
<pdfrwt beam="1">  1        1 0.51999404E-01 0.35946901E+02</pdfrwt>
<totfact> 0.27459235E+02</totfact>
</mgrwt>
</event>
<event>
 7    1  0.5277388E-004  0.1087238E+03  0.7546771E-02  0.1295923E+00
         -1   -1    0    0    0  501 -0.00000000000E+00  0.00000000000E+00  0.16827459622E+04  0.16827459622E+04  0.00000000000E+00 0.  1.
          1   -1    0    0  503    0  0.00000000000E+00 -0.00000000000E+00 -0.19450835435E+04  0.19450835435E+04  0.00000000000E+00 0. -1.
         25    2    1    2    0    0 -0.15118820924E+03  0.27003513541E+02  0.92260941866E+03  0.94362068086E+03  0.12499914240E+03 0.  0.
          4    1    3    3  502    0 -0.22900531917E+02  0.60039221350E+02  0.35350825985E+03  0.35930327739E+03  0.12700000000E+01 0. -1.
         -4    1    3    3    0  502 -0.12828767732E+03 -0.33035707809E+02  0.56910115881E+03  0.58431740348E+03  0.12700000000E+01 0. -1.
          2    1    1    2  503    0  0.10260840380E+03  0.35824982448E+02 -0.19309420231E+04  0.19339981930E+04  0.00000000000E+00 0. -1.
         -2    1    1    2    0  501  0.48579805434E+02 -0.62828495989E+02  0.74599502321E+03  0.75021063180E+03  0.00000000000E+00 0.  1.
<mgrwt>
<rscale>  0 0.92923435E+02</rscale>
<asrwt>0</asrwt>
<pdfrwt beam="2">  1        1 0.29924362E+00 0.10872383E+03</pdfrwt>
<pdfrwt beam="1">  1       -1 0.25888400E+00 0.79419251E+02</pdfrwt>
<totfact> 0.32976728E-01</totfact>
</mgrwt>
</event>
<event>
 7    1  0.5277388E-004  0.1045056E+03  0.7546771E-02  0.1340174E+00
         -1   -1    0    0    0  501 -0.00000000000E+00  0.00000000000E+00  0.71962246798E+03  0.71962246798E+03  0.00000000000E+00 0.  1.
          1   -1    0    0  503    0  0.00000000000E+00 -0.00000000000E+00 -0.24676801063E+03  0.24676801063E+03  0.00000000000E+00 0. -1.
         25    2    1    2    0    0  0.13525332765E+03  0.41968867501E+02  0.20624316781E+03  0.27967320352E+03  0.12500403201E+03 0.  0.
          4    1    3    3  502    0  0.55340636829E+02 -0.30264622581E+02  0.23078645594E+02  0.67177155694E+02  0.12700000000E+01 0. -1.
         -4    1    3    3    0  502  0.79912690819E+02  0.72233490082E+02  0.18316452222E+03  0.21249604783E+03  0.12700000000E+01 0. -1.
          2    1    1    2  503    0 -0.10289202190E+03  0.32070612833E+01 -0.19567589122E+03  0.22110203034E+03  0.00000000000E+00 0. -1.
         -2    1    1    2    0  501 -0.32361305745E+02 -0.45175928784E+02  0.46228718076E+03  0.46561524476E+03  0.00000000000E+00 0.  1.
<mgrwt>
<rscale>  0 0.76206714E+02</rscale>
<asrwt>0</asrwt>
<pdfrwt beam="2">  1        1 0.37964310E-01 0.10450558E+03</pdfrwt>
<pdfrwt beam="1">  1       -1 0.11071115E+00 0.55570844E+02</pdfrwt>
<totfact> 0.97148419E+01</totfact>
</mgrwt>
</event>
<event>
 7    1  0.5277388E-004  0.5534627E+02  0.7546771E-02  0.1531845E+00
         -2   -1    0    0    0  501 -0.00000000000E+00  0.00000000000E+00  0.12170901952E+04  0.12170901952E+04  0.00000000000E+00 0.  1.
          2   -1    0    0  503    0  0.00000000000E+00 -0.00000000000E+00 -0.35555686527E+03  0.35555686527E+03  0.00000000000E+00 0. -1.
         25    2    1    2    0    0  0.24344337178E+02 -0.56289773320E+02 -0.23909455307E+03  0.27668082231E+03  0.12499954718E+03 0.  0.
          4    1    3    3  502    0  0.70626255779E+02 -0.29191806121E+02 -0.18649689142E+03  0.20155131595E+03  0.12700000000E+01 0.  1.
         -4    1    3    3    0  502 -0.46281918601E+02 -0.27097967199E+02 -0.52597661647E+02  0.75129506364E+02  0.12700000000E+01 0.  1.
          1    1    1    2  503    0  0.16202484353E+02  0.18620944806E+02 -0.95459526925E+02  0.98599094141E+02  0.00000000000E+00 0. -1.
         -1    1    1    2    0  501 -0.40546821531E+02  0.37668828514E+02  0.11960874100E+04  0.11973671441E+04  0.00000000000E+00 0.  1.
<mgrwt>
<rscale>  0 0.36961097E+02</rscale>
<asrwt>0</asrwt>
<pdfrwt beam="2">  1        2 0.54701057E-01 0.24683194E+02</pdfrwt>
<pdfrwt beam="1">  1       -2 0.18724464E+00 0.55346267E+02</pdfrwt>
<totfact> 0.17583258E+01</totfact>
</mgrwt>
</event>
<event>
 7    1  0.5277388E-004  0.1254382E+03  0.7546771E-02  0.1348408E+00
          1   -1    0    0  502    0 -0.00000000000E+00  0.00000000000E+00  0.40265086865E+02  0.40265086865E+02  0.00000000000E+00 0. -1.
          2   -1    0    0  503    0  0.00000000000E+00 -0.00000000000E+00 -0.23026252340E+04  0.23026252340E+04  0.00000000000E+00 0. -1.
         25    2    1    2    0    0  0.11881487587E+03  0.85352102195E+02 -0.30848951249E+03  0.36358327182E+03  0.12500024060E+03 0.  0.
          4    1    3    3  501    0 -0.26185685243E+02  0.20696237307E+02 -0.60987482213E+02  0.69534956942E+02  0.12700000000E+01 0. -1.
         -4    1    3    3    0  501  0.14500056112E+03  0.64655864889E+02 -0.24750203028E+03  0.29404831488E+03  0.12700000000E+01 0. -1.
          2    1    1    2  502    0 -0.75890306173E+02 -0.81142979588E+02 -0.23546172827E+03  0.26035696109E+03  0.00000000000E+00 0. -1.
          1    1    1    2  503    0 -0.42924569701E+02 -0.42091226075E+01 -0.17184089063E+04  0.17189500879E+04  0.00000000000E+00 0. -1.
<mgrwt>
<rscale>  0 0.73554095E+02</rscale>
<asrwt>0</asrwt>
<pdfrwt beam="2">  1        2 0.35425003E+00 0.43130446E+02</pdfrwt>
<pdfrwt beam="1">  1        1 0.61946289E-02 0.12543819E+03</pdfrwt>
<totfact> 0.10223742E+03</totfact>
</mgrwt>
</event>
<event>
 7    1  0.5277388E-004  0.8110049E+02  0.7546771E-02  0.1445909E+00
         -2   -1    0    0    0  501 -0.00000000000E+00  0.00000000000E+00  0.17805102988E+03  0.17805102988E+03  0.00000000000E+00 0.  1.
          2   -1    0    0  503    0  0.00000000000E+00 -0.00000000000E+00 -0.21212912803E+04  0.21212912803E+04  0.00000000000E+00 0. -1.
         25    2    1    2    0    0  0.39254705659E+02  0.33548658921E+02 -0.25145522533E+03  0.28551987426E+03  0.12500169528E+03 0.  0.
          4    1    3    3  502    0  0.60895812542E+02  0.41466393251E+02 -0.66889322005E+02  0.99516611944E+02  0.12700000000E+01 0.  1.
         -4    1    3    3    0  502 -0.21641106883E+02 -0.79177343296E+01 -0.18456590332E+03  0.18600326232E+03  0.12700000000E+01 0.  1.
          1    1    1    2  503    0  0.25042801140E+02  0.17752066820E+02 -0.18421626261E+04  0.18424183615E+04  0.00000000000E+00 0. -1.
         -1    1    1    2    0  501 -0.64297506799E+02 -0.51300725742E+02  0.15037760101E+03  0.17140407442E+03  0.00000000000E+00 0.  1.
<mgrwt>
<rscale>  0 0.49894936E+02</rscale>
<asrwt>0</asrwt>
<pdfrwt beam="2">  1        2 0.32635250E+00 0.30696543E+02</pdfrwt>
<pdfrwt beam="1">  1       -2 0.27392466E-01 0.81100488E+02</pdfrwt>
<totfact> 0.98295011E+01</totfact>
</mgrwt>
</event>
<event>
 7    1  0.5277388E-004  0.8294175E+02  0.7546771E-02  0.1336626E+00
          1   -1    0    0  503    0  0.00000000000E+00  0.00000000000E+00  0.15295206458E+03  0.15295206458E+03  0.00000000000E+00 0. -1.
         -1   -1    0    0    0  501 -0.00000000000E+00 -0.00000000000E+00 -0.43326059338E+03  0.43326059338E+03  0.00000000000E+00 0.  1.
         25    2    1    2    0    0 -0.19817666410E+02  0.12407491924E+02  0.77052452024E+01  0.12739818669E+03  0.12499696561E+03 0.  0.
          4    1    3    3  502    0  0.50907282182E+02 -0.24866158041E+01 -0.12194248280E+02  0.52421820155E+02  0.12700000000E+01 0. -1.
         -4    1    3    3    0  502 -0.70724948591E+02  0.14894107728E+02  0.19899493483E+02  0.74976366537E+02  0.12700000000E+01 0. -1.
          2    1    1    2  503    0 -0.58510106400E+01  0.71972282254E+02  0.63650925314E+02  0.96258423172E+02  0.00000000000E+00 0. -1.
         -2    1    1    2    0  501  0.25668677049E+02 -0.84379774177E+02 -0.35166469931E+03  0.36255604810E+03  0.00000000000E+00 0.  1.
<mgrwt>
<rscale>  0 0.77389926E+02</rscale>
<asrwt>0</asrwt>
<pdfrwt beam="1">  1        1 0.23531087E-01 0.72209721E+02</pdfrwt>
<pdfrwt beam="2">  1       -1 0.66655476E-01 0.82941751E+02</pdfrwt>
<totfact> 0.48738640E+02</totfact>
</mgrwt>
</event>
<event>
 7    1  0.5277388E-004  0.7009662E+02  0.7546771E-02  0.1392509E+00
         -1   -1    0    0    0  501 -0.00000000000E+00  0.00000000000E+00  0.14957655597E+03  0.14957655597E+03  0.00000000000E+00 0.  1.
          1   -1    0    0  503    0  0.00000000000E+00 -0.00000000000E+00 -0.50607660148E+03  0.50607660148E+03  0.00000000000E+00 0. -1.
         25    2    1    2    0    0 -0.29690638378E+02 -0.72316820524E+02  0.69159520402E+02  0.16284452751E+03  0.12499617730E+03 0.  0.
          4    1    3    3  502    0 -0.61125844790E+02  0.94290475947E+00  0.66004917921E+01  0.61501523254E+02  0.12700000000E+01 0.  1.
         -4    1    3    3    0  502  0.31435206412E+02 -0.73259725283E+02  0.62559028610E+02  0.10134300425E+03  0.12700000000E+01 0.  1.
          2    1    1    2  503    0  0.53421656709E+02  0.41745400943E+01 -0.41666205442E+03  0.42009352267E+03  0.00000000000E+00 0. -1.
         -2    1    1    2    0  501 -0.23731018331E+02  0.68142280429E+02 -0.89975114872E+01  0.72715107275E+02  0.00000000000E+00 0.  1.
<mgrwt>
<rscale>  0 0.61286975E+02</rscale>
<asrwt>0</asrwt>
<pdfrwt beam="2">  1        1 0.77857937E-01 0.53584514E+02</pdfrwt>
<pdfrwt beam="1">  1       -1 0.23011778E-01 0.70096619E+02</pdfrwt>
<totfact> 0.71552840E+02</totfact>
</mgrwt>
</event>
<event>
 7    1  0.5277388E-004  0.5856163E+02  0.7546771E-02  0.1477513E+00
          2   -1    0    0  503    0  0.00000000000E+00  0.00000000000E+00  0.13913661556E+04  0.13913661556E+04  0.00000000000E+00 0. -1.
          1   -1    0    0  502    0 -0.00000000000E+00 -0.00000000000E+00 -0.85634386003E+03  0.85634386003E+03  0.00000000000E+00 0. -1.
         25    2    1    2    0    0 -0.23575065194E+02  0.10466779017E+02  0.26908576774E+03  0.29782200210E+03  0.12500182948E+03 0.  0.
          4    1    3    3  501    0 -0.46458448712E+02  0.42364983681E+02  0.24218139376E+03  0.25021314850E+03  0.12700000000E+01 0. -1.
         -4    1    3    3    0  501  0.22883383518E+02 -0.31898204664E+02  0.26904373986E+02  0.47608853605E+02  0.12700000000E+01 0. -1.
          2    1    1    2  502    0  0.57317855010E+02 -0.12578180908E+02 -0.84069480543E+03  0.84274035326E+03  0.00000000000E+00 0. -1.
          1    1    1    2  503    0 -0.33742789816E+02  0.21114018906E+01  0.11066313333E+04  0.11071476603E+04  0.00000000000E+00 0. -1.
<mgrwt>
<rscale>  0 0.44496037E+02</rscale>
<asrwt>0</asrwt>
<pdfrwt beam="1">  1        2 0.21405633E+00 0.33808784E+02</pdfrwt>
<pdfrwt beam="2">  1        1 0.13174521E+00 0.58561625E+02</pdfrwt>
<totfact> 0.56561804E+01</totfact>
</mgrwt>
</event>
<event>
 7    1  0.5277388E-004  0.5636178E+02  0.7546771E-02  0.1503720E+00
          2   -1    0    0  503    0  0.00000000000E+00  0.00000000000E+00  0.86073930983E+03  0.86073930983E+03  0.00000000000E+00 0. -1.
         -2   -1    0    0    0  501 -0.00000000000E+00 -0.00000000000E+00 -0.17591651541E+02  0.17591651541E+02  0.00000000000E+00 0.  1.
         25    2    1    2    0    0  0.25660771169E+02  0.38813021031E+02  0.34467667274E+03  0.36958321156E+03  0.12499926303E+03 0.  0.
          4    1    3    3  502    0  0.60848023391E+02  0.64507719811E+02  0.25244466259E+03  0.26756989448E+03  0.12700000000E+01 0. -1.
         -4    1    3    3    0  502 -0.35187252222E+02 -0.25694698780E+02  0.92232010149E+02  0.10201331707E+03  0.12700000000E+01 0. -1.
          1    1    1    2  503    0  0.29024997624E+02 -0.37821701237E+01  0.25822556523E+03  0.25987919855E+03  0.00000000000E+00 0. -1.
         -1    1    1    2    0  501 -0.54685768793E+02 -0.35030850907E+02  0.24024542032E+03  0.24886855127E+03  0.00000000000E+00 0.  1.
<mgrwt>
<rscale>  0 0.40616880E+02</rscale>
<asrwt>0</asrwt>
<pdfrwt beam="1">  1        2 0.13242140E+00 0.29270383E+02</pdfrwt>
<pdfrwt beam="2">  1       -2 0.27064086E-02 0.56361782E+02</pdfrwt>
<totfact> 0.14551103E+04</totfact>
</mgrwt>
</event>
<event>
 7    1  0.5277388E-004  0.1159290E+03  0.7546771E-02  0.1375619E+00
          2   -1    0    0  503    0  0.00000000000E+00  0.00000000000E+00  0.22065710844E+04  0.22065710844E+04  0.00000000000E+00 0. -1.
          1   -1    0    0  502    0 -0.00000000000E+00 -0.00000000000E+00 -0.20446394988E+02  0.20446394988E+02  0.00000000000E+00 0. -1.
         25    2    1    2    0    0  0.49314188579E+02 -0.79949017774E+02  0.16466610198E+04  0.16540678760E+04  0.12499715863E+03 0.  0.
          4    1    3    3  501    0  0.13599389417E+01 -0.81349470015E+01  0.11447880832E+04  0.11448184988E+04  0.12700000000E+01 0. -1.
         -4    1    3    3    0  501  0.47954249637E+02 -0.71814070772E+02  0.50187293660E+03  0.50924937723E+03  0.12700000000E+01 0. -1.
          2    1    1    2  502    0 -0.86392331905E+02  0.82323312171E+02  0.21113787828E+03  0.24252827955E+03  0.00000000000E+00 0. -1.
          1    1    1    2  503    0  0.37078143326E+02 -0.23742943976E+01  0.32832579135E+03  0.33042132384E+03  0.00000000000E+00 0. -1.
<mgrwt>
<rscale>  0 0.65629545E+02</rscale>
<asrwt>0</asrwt>
<pdfrwt beam="1">  1        2 0.33947229E+00 0.37154084E+02</pdfrwt>
<pdfrwt beam="2">  1        1 0.31456010E-02 0.11592904E+03</pdfrwt>
<totfact> 0.29163809E+03</totfact>
</mgrwt>
</event>
<event>
 7    1  0.5277388E-004  0.5954452E+02  0.7546771E-02  0.1496434E+00
          1   -1    0    0  502    0 -0.00000000000E+00  0.00000000000E+00  0.48551457566E+02  0.48551457566E+02  0.00000000000E+00 0. -1.
          2   -1    0    0  503    0  0.00000000000E+00 -0.00000000000E+00 -0.52084911738E+03  0.52084911738E+03  0.00000000000E+00 0. -1.
         25    2    1    2    0    0  0.72996217595E+02  0.47276720164E+02 -0.41498357953E+03  0.44204031956E+03  0.12499894714E+03 0.  0.
          4    1    3    3  501    0  0.97898691550E+02  0.16764672903E+02 -0.19812859974E+03  0.22163430015E+03  0.12700000000E+01 0. -1.
         -4    1    3    3    0  501 -0.24902473955E+02  0.30512047261E+02 -0.21685497978E+03  0.22040601941E+03  0.12700000000E+01 0. -1.
          2    1    1    2  502    0 -0.49046839677E+02 -0.30697370353E+02  0.54990978593E+01  0.58121950296E+02  0.00000000000E+00 0. -1.
          1    1    1    2  503    0 -0.23949377918E+02 -0.16579349811E+02 -0.62813178148E+02  0.69238305091E+02  0.00000000000E+00 0. -1.
<mgrwt>
<rscale>  0 0.41646371E+02</rscale>
<asrwt>0</asrwt>
<pdfrwt beam="2">  1        2 0.80130624E-01 0.29128123E+02</pdfrwt>
<pdfrwt beam="1">  1        1 0.74694559E-02 0.59544524E+02</pdfrwt>
<totfact> 0.71098419E+03</totfact>
</mgrwt>
</event>
<event>
 7    1  0.5277388E-004  0.2826639E+03  0.7546771E-02  0.1168353E+00
          2   -1    0    0  503    0  0.00000000000E+00  0.00000000000E+00  0.10123577842E+04  0.10123577842E+04  0.00000000000E+00 0. -1.
          1   -1    0    0  502    0 -0.00000000000E+00 -0.00000000000E+00 -0.16543636130E+04  0.16543636130E+04  0.00000000000E+00 0. -1.
         25    2    1    2    0    0 -0.29189441630E+03  0.14526714166E+03  0.19366795743E+03  0.39929675596E+03  0.12500291547E+03 0.  0.
          4    1    3    3  501    0 -0.17691721052E+03  0.95522167260E+02  0.18580200264E+03  0.27376665411E+03  0.12700000000E+01 0.  1.
         -4    1    3    3    0  501 -0.11497720578E+03  0.49744974399E+02  0.78659547865E+01  0.12553010185E+03  0.12700000000E+01 0.  1.
          2    1    1    2  502    0  0.27976827374E+03 -0.32011978253E+02 -0.15341210354E+04  0.15597507509E+04  0.00000000000E+00 0. -1.
          1    1    1    2  503    0  0.12126142555E+02 -0.11325516341E+03  0.69844724913E+03  0.70767389042E+03  0.00000000000E+00 0. -1.
<mgrwt>
<rscale>  0 0.17943277E+03</rscale>
<asrwt>0</asrwt>
<pdfrwt beam="1">  1        2 0.15574735E+00 0.11390248E+03</pdfrwt>
<pdfrwt beam="2">  1        1 0.25451748E+00 0.28266388E+03</pdfrwt>
<totfact> 0.20951500E+01</totfact>
</mgrwt>
</event>
<event>
 7    1  0.5277388E-004  0.1241761E+03  0.7546771E-02  0.1404891E+00
         -2   -1    0    0    0  501 -0.00000000000E+00  0.00000000000E+00  0.11663300109E+03  0.11663300109E+03  0.00000000000E+00 0.  1.
          2   -1    0    0  503    0  0.00000000000E+00 -0.00000000000E+00 -0.37762795434E+03  0.37762795434E+03  0.00000000000E+00 0. -1.
         25    2    1    2    0    0  0.10156808343E+03  0.12881958430E+02 -0.24834235266E+03  0.29627870090E+03  0.12500049623E+03 0.  0.
          4    1    3    3  502    0  0.13052639410E+03  0.18920290365E+02 -0.20616669042E+03  0.24474769474E+03  0.12700000000E+01 0. -1.
         -4    1    3    3    0  502 -0.28958310674E+02 -0.60383319353E+01 -0.42175662247E+02  0.51531006158E+02  0.12700000000E+01 0. -1.
          1    1    1    2  503    0  0.26228779622E+02 -0.79880865623E+01 -0.56485787571E+02  0.62788554729E+02  0.00000000000E+00 0. -1.
         -1    1    1    2    0  501 -0.12779686305E+03 -0.48938718672E+01  0.43833186986E+02  0.13519369981E+03  0.00000000000E+00 0.  1.
<mgrwt>
<rscale>  0 0.58349688E+02</rscale>
<asrwt>0</asrwt>
<pdfrwt beam="2">  1        2 0.58096609E-01 0.27418213E+02</pdfrwt>
<pdfrwt beam="1">  1       -2 0.17943538E-01 0.12417608E+03</pdfrwt>
<totfact> 0.20955024E+03</totfact>
</mgrwt>
</event>
<event>
 7    1  0.5277388E-004  0.7622143E+02  0.7546771E-02  0.1417346E+00
          1   -1    0    0  502    0 -0.00000000000E+00  0.00000000000E+00  0.61714962448E+02  0.61714962448E+02  0.00000000000E+00 0. -1.
          2   -1    0    0  503    0  0.00000000000E+00 -0.00000000000E+00 -0.16498661670E+04  0.16498661670E+04  0.00000000000E+00 0. -1.
         25    2    1    2    0    0  0.10045135315E+03 -0.15996377742E+02 -0.59728646364E+03  0.61864600942E+03  0.12500162744E+03 0.  0.
          4    1    3    3  501    0 -0.24144260366E+02  0.17318971709E+02 -0.15975712958E+03  0.16250183212E+03  0.12700000000E+01 0.  1.
         -4    1    3    3    0  501  0.12459561352E+03 -0.33315349451E+02 -0.43752933407E+03  0.45614417730E+03  0.12700000000E+01 0.  1.
          2    1    1    2  502    0 -0.65689191506E+02  0.36850918004E+02  0.22617635022E+02  0.78642338803E+02  0.00000000000E+00 0. -1.
          1    1    1    2  503    0 -0.34762161648E+02 -0.20854540261E+02 -0.10134823759E+04  0.10142927812E+04  0.00000000000E+00 0. -1.
<mgrwt>
<rscale>  0 0.55586467E+02</rscale>
<asrwt>0</asrwt>
<pdfrwt beam="2">  1        2 0.25382552E+00 0.40537880E+02</pdfrwt>
<pdfrwt beam="1">  1        1 0.94946112E-02 0.76221433E+02</pdfrwt>
<totfact> 0.11661382E+03</totfact>
</mgrwt>
</event>
<event>
 7    1  0.5277388E-004  0.5359951E+02  0.7546771E-02  0.1464339E+00
          1   -1    0    0  502    0 -0.00000000000E+00  0.00000000000E+00  0.44190175202E+03  0.44190175202E+03  0.00000000000E+00 0. -1.
          2   -1    0    0  503    0  0.00000000000E+00 -0.00000000000E+00 -0.18929725507E+03  0.18929725507E+03  0.00000000000E+00 0. -1.
         25    2    1    2    0    0 -0.46373615353E+01 -0.89986563238E+01 -0.95579621036E+02  0.15767905526E+03  0.12499895829E+03 0.  0.
          4    1    3    3  501    0 -0.30566584403E+02 -0.39881161285E+02 -0.10485707777E+03  0.11628173874E+03  0.12700000000E+01 0.  1.
         -4    1    3    3    0  501  0.25929222868E+02  0.30882504961E+02  0.92774567316E+01  0.41397316515E+02  0.12700000000E+01 0.  1.
          2    1    1    2  502    0  0.43734660231E+02 -0.30986881575E+02  0.39620130946E+03  0.39981043627E+03  0.00000000000E+00 0. -1.
          1    1    1    2  503    0 -0.39097298695E+02  0.39985537898E+02 -0.48017191480E+02  0.73709515559E+02  0.00000000000E+00 0. -1.
<mgrwt>
<rscale>  0 0.46642854E+02</rscale>
<asrwt>0</asrwt>
<pdfrwt beam="2">  1        2 0.29122655E-01 0.40589099E+02</pdfrwt>
<pdfrwt beam="1">  1        1 0.67984885E-01 0.53599509E+02</pdfrwt>
<totfact> 0.12868958E+03</totfact>
</mgrwt>
</event>
<event>
 7    1  0.5277388E-004  0.3673436E+02  0.7546771E-02  0.1543938E+00
          2   -1    0    0  503    0  0.00000000000E+00  0.00000000000E+00  0.67158993048E+03  0.67158993048E+03  0.00000000000E+00 0. -1.
          1   -1    0    0  502    0 -0.00000000000E+00 -0.00000000000E+00 -0.38052844993E+03  0.38052844993E+03  0.00000000000E+00 0. -1.
         25    2    1    2    0    0 -0.49763723140E+02  0.46649957006E+02 -0.98568271259E+02  0.17318536855E+03  0.12499928461E+03 0.  0.
          4    1    3    3  501    0 -0.84926045575E+02  0.60573156630E+02 -0.76669067278E+02  0.12946543669E+03  0.12700000000E+01 0.  1.
         -4    1    3    3    0  501  0.35162322435E+02 -0.13923199625E+02 -0.21899203981E+02  0.43719931860E+02  0.12700000000E+01 0.  1.
          2    1    1    2  502    0  0.30745841641E+02 -0.15353887300E+02 -0.24291253446E+03  0.24533150640E+03  0.00000000000E+00 0. -1.
          3    1    1    2  503    0  0.19017881499E+02 -0.31296069705E+02  0.63254228627E+03  0.63360150546E+03  0.00000000000E+00 0. -1.
<mgrwt>
<rscale>  0 0.35530654E+02</rscale>
<asrwt>0</asrwt>
<pdfrwt beam="1">  1        2 0.10332153E+00 0.36734362E+02</pdfrwt>
<pdfrwt beam="2">  1        1 0.58542838E-01 0.34366388E+02</pdfrwt>
<totfact> 0.41994971E+02</totfact>
</mgrwt>
</event>
<event>
 7    1  0.5277388E-004  0.9091989E+02  0.7546771E-02  0.1389101E+00
          2   -1    0    0  503    0  0.00000000000E+00  0.00000000000E+00  0.49097521361E+02  0.49097521361E+02  0.00000000000E+00 0. -1.
          1   -1    0    0  502    0 -0.00000000000E+00 -0.00000000000E+00 -0.61815181204E+03  0.61815181204E+03  0.00000000000E+00 0. -1.
         25    2    1    2    0    0 -0.92476865323E+02  0.20948360544E+02 -0.38070570368E+03  0.41176806862E+03  0.12500122037E+03 0.  0.
          4    1    3    3  501    0 -0.61960873494E+02  0.39078680665E+02 -0.36610791523E+03  0.37336699321E+03  0.12700000000E+01 0. -1.
         -4    1    3    3    0  501 -0.30515991829E+02 -0.18130320121E+02 -0.14597788449E+02  0.38401075409E+02  0.12700000000E+01 0. -1.
          2    1    1    2  502    0  0.71708593398E+02 -0.57979992833E+02 -0.19186765751E+03  0.21287789912E+03  0.00000000000E+00 0. -1.
          3    1    1    2  503    0  0.20768271926E+02  0.37031632288E+02  0.35190705026E+01  0.42603365664E+02  0.00000000000E+00 0. -1.
<mgrwt>
<rscale>  0 0.62130961E+02</rscale>
<asrwt>0</asrwt>
<pdfrwt beam="1">  1        2 0.75534648E-02 0.42457778E+02</pdfrwt>
<pdfrwt beam="2">  1        1 0.95100279E-01 0.90919886E+02</pdfrwt>
<totfact> 0.37840949E+03</totfact>
</mgrwt>
</event>
<event>
 7    1  0.5277388E-004  0.4908732E+02  0.7546771E-02  0.1490425E+00
          2   -1    0    0  503    0  0.00000000000E+00  0.00000000000E+00  0.82297481939E+03  0.82297481939E+03  0.00000000000E+00 0. -1.
          1   -1    0    0  502    0 -0.00000000000E+00 -0.00000000000E+00 -0.85932066486E+03  0.85932066486E+03  0.00000000000E+00 0. -1.
         25    2    1    2    0    0  0.26749725381E+02 -0.75788123774E+02  0.10995480806E+03  0.18486418328E+03  0.12500127572E+03 0.  0.
          4    1    3    3  501    0 -0.15329501597E+02 -0.12118340113E+02  0.10668277547E+03  0.10846508779E+03  0.12700000000E+01 0.  1.
         -4    1    3    3    0  501  0.42079226978E+02 -0.63669783661E+02  0.32720325869E+01  0.76399095490E+02  0.12700000000E+01 0.  1.
          2    1    1    2  502    0 -0.24625922516E+02  0.27395212873E+02 -0.82058394496E+03  0.82141033867E+03  0.00000000000E+00 0. -1.
          1    1    1    2  503    0 -0.21238028653E+01  0.48392910901E+02  0.67428329143E+03  0.67602096230E+03  0.00000000000E+00 0. -1.
<mgrwt>
<rscale>  0 0.42523041E+02</rscale>
<asrwt>0</asrwt>
<pdfrwt beam="1">  1        2 0.12661151E+00 0.49087319E+02</pdfrwt>
<pdfrwt beam="2">  1        1 0.13220318E+00 0.36836582E+02</pdfrwt>
<totfact> 0.11515098E+02</totfact>
</mgrwt>
</event>
<event>
 7    1  0.5277388E-004  0.4196994E+02  0.7546771E-02  0.1512290E+00
          1   -1    0    0  502    0 -0.00000000000E+00  0.00000000000E+00  0.35627826195E+03  0.35627826195E+03  0.00000000000E+00 0. -1.
          2   -1    0    0  503    0  0.00000000000E+00 -0.00000000000E+00 -0.26838622313E+03  0.26838622313E+03  0.00000000000E+00 0. -1.
         25    2    1    2    0    0 -0.23781894660E+02  0.22617011306E+02 -0.58931431209E+02  0.14203772855E+03  0.12499878012E+03 0.  0.
          4    1    3    3  501    0 -0.67713457977E-01  0.27167457490E+02 -0.94886983215E+02  0.98707790044E+02  0.12700000000E+01 0. -1.
         -4    1    3    3    0  501 -0.23714181202E+02 -0.45504461835E+01  0.35955552007E+02  0.43329938503E+02  0.12700000000E+01 0. -1.
          2    1    1    2  502    0 -0.18742360797E+02 -0.31998609372E+02  0.31078055888E+03  0.31298521190E+03  0.00000000000E+00 0. -1.
          1    1    1    2  503    0  0.42524255458E+02  0.93815980659E+01 -0.16395708885E+03  0.16964154464E+03  0.00000000000E+00 0. -1.
<mgrwt>
<rscale>  0 0.39451144E+02</rscale>
<asrwt>0</asrwt>
<pdfrwt beam="2">  1        2 0.41290188E-01 0.41969935E+02</pdfrwt>
<pdfrwt beam="1">  1        1 0.54812040E-01 0.37083515E+02</pdfrwt>
<totfact> 0.11708790E+03</totfact>
</mgrwt>
</event>
<event>
 7    1  0.5277388E-004  0.7068429E+02  0.7546771E-02  0.1428018E+00
         -2   -1    0    0    0  501  0.00000000000E+00  0.00000000000E+00  0.26809050949E+04  0.26809050949E+04  0.00000000000E+00 0.  1.
         -1   -1    0    0    0  502 -0.00000000000E+00 -0.00000000000E+00 -0.99624507669E+02  0.99624507669E+02  0.00000000000E+00 0.  1.
         25    2    1    2    0    0 -0.72477287385E+02  0.12958624968E+02  0.16245642267E+03  0.21780229437E+03  0.12499946808E+03 0.  0.
          4    1    3    3  503    0 -0.55288083806E+02  0.35691219838E+02  0.17475262416E+03  0.18673705560E+03  0.12700000000E+01 0. -1.
         -4    1    3    3    0  503 -0.17189203579E+02 -0.22732594870E+02 -0.12296201484E+02  0.31065238775E+02  0.12700000000E+01 0. -1.
         -2    1    1    2    0  502  0.68798168149E+01 -0.39689937468E+02 -0.65769072587E+02  0.77124535166E+02  0.00000000000E+00 0.  1.
         -1    1    1    2    0  501  0.65597470570E+02  0.26731312500E+02  0.24845932371E+04  0.24856027730E+04  0.00000000000E+00 0.  1.
<mgrwt>
<rscale>  0 0.53360005E+02</rscale>
<asrwt>0</asrwt>
<pdfrwt beam="1">  1       -2 0.41244688E+00 0.70684292E+02</pdfrwt>
<pdfrwt beam="2">  1       -1 0.15326849E-01 0.40281795E+02</pdfrwt>
<totfact> 0.19435284E+00</totfact>
</mgrwt>
</event>
<event>
 7    1  0.5277388E-004  0.1242838E+03  0.7546771E-02  0.1331348E+00
          1   -1    0    0  502    0 -0.00000000000E+00  0.00000000000E+00  0.93397866820E+03  0.93397866820E+03  0.00000000000E+00 0. -1.
          2   -1    0    0  503    0  0.00000000000E+00 -0.00000000000E+00 -0.10011199208E+03  0.10011199208E+03  0.00000000000E+00 0. -1.
         25    2    1    2    0    0 -0.51153156395E+02  0.11219356083E+03  0.51857874430E+03  0.54749210926E+03  0.12497861883E+03 0.  0.
          4    1    3    3  501    0 -0.35250927262E+02  0.11124198382E+03  0.22486768663E+03  0.25334659308E+03  0.12700000000E+01 0.  1.
         -4    1    3    3    0  501 -0.15902229133E+02  0.95157701199E+00  0.29371105767E+03  0.29414551618E+03  0.12700000000E+01 0.  1.
          2    1    1    2  502    0 -0.41777996135E+02 -0.28308135714E+02  0.35242101016E+03  0.35601589840E+03  0.00000000000E+00 0. -1.
          1    1    1    2  503    0  0.92931152530E+02 -0.83885425121E+02 -0.37133078335E+02  0.13058265262E+03  0.00000000000E+00 0. -1.
<mgrwt>
<rscale>  0 0.79196119E+02</rscale>
<asrwt>0</asrwt>
<pdfrwt beam="2">  1        2 0.15401846E-01 0.12428380E+03</pdfrwt>
<pdfrwt beam="1">  1        1 0.14368902E+00 0.50465350E+02</pdfrwt>
<totfact> 0.98602999E+02</totfact>
</mgrwt>
</event>
<event>
 7    1  0.5277388E-004  0.1287783E+03  0.7546771E-02  0.1318326E+00
          2   -1    0    0  503    0  0.00000000000E+00  0.00000000000E+00  0.53358391084E+03  0.53358391084E+03  0.00000000000E+00 0. -1.
          1   -1    0    0  502    0 -0.00000000000E+00 -0.00000000000E+00 -0.69247216473E+03  0.69247216473E+03  0.00000000000E+00 0. -1.
         25    2    1    2    0    0  0.28334844683E+02  0.17821771472E+03  0.94128837283E+02  0.23885081799E+03  0.12500023193E+03 0.  0.
          4    1    3    3  501    0  0.39171267670E+02  0.15480723844E+03  0.20718737254E+02  0.16102965025E+03  0.12700000000E+01 0. -1.
         -4    1    3    3    0  501 -0.10836422987E+02  0.23410476277E+02  0.73410100029E+02  0.77821167743E+02  0.12700000000E+01 0. -1.
          2    1    1    2  502    0 -0.28408759789E+02 -0.12355195885E+03 -0.61153808026E+03  0.62454060539E+03  0.00000000000E+00 0. -1.
          1    1    1    2  503    0  0.73915105361E-01 -0.54665755868E+02  0.35852098909E+03  0.36266465218E+03  0.00000000000E+00 0. -1.
<mgrwt>
<rscale>  0 0.83903349E+02</rscale>
<asrwt>0</asrwt>
<pdfrwt beam="1">  1        2 0.82089833E-01 0.54665806E+02</pdfrwt>
<pdfrwt beam="2">  1        1 0.10653418E+00 0.12877835E+03</pdfrwt>
<totfact> 0.23999958E+02</totfact>
</mgrwt>
</event>
<event>
 7    1  0.5277388E-004  0.6597130E+03  0.7546771E-02  0.1093630E+00
          2   -1    0    0  503    0  0.00000000000E+00  0.00000000000E+00  0.42313498131E+04  0.42313498131E+04  0.00000000000E+00 0. -1.
          1   -1    0    0  502    0 -0.00000000000E+00 -0.00000000000E+00 -0.15067600403E+04  0.15067600403E+04  0.00000000000E+00 0. -1.
         25    2    1    2    0    0  0.36619798906E+03 -0.55652078091E+03  0.35087348668E+03  0.76324665875E+03  0.12496764246E+03 0.  0.
          4    1    3    3  501    0  0.24618041750E+03 -0.45747643105E+03  0.29790979153E+03  0.59886671281E+03  0.12700000000E+01 0.  1.
         -4    1    3    3    0  501  0.12001757156E+03 -0.99044349864E+02  0.52963695152E+02  0.16437994594E+03  0.12700000000E+01 0.  1.
          2    1    1    2  502    0 -0.11041032643E+03 -0.52110714550E+02 -0.12679615408E+04  0.12738259048E+04  0.00000000000E+00 0. -1.
          1    1    1    2  503    0 -0.25578766263E+03  0.60863149546E+03  0.36416778269E+04  0.37010372898E+04  0.00000000000E+00 0. -1.
<mgrwt>
<rscale>  0 0.28380337E+03</rscale>
<asrwt>0</asrwt>
<pdfrwt beam="1">  1        2 0.65097689E+00 0.65971297E+03</pdfrwt>
<pdfrwt beam="2">  1        1 0.23180924E+00 0.12208999E+03</pdfrwt>
<totfact> 0.25883056E-01</totfact>
</mgrwt>
</event>
<event>
 7    1  0.5277388E-004  0.1054347E+03  0.7546771E-02  0.1270909E+00
         -1   -1    0    0    0  501 -0.00000000000E+00  0.00000000000E+00  0.73078672433E+03  0.73078672433E+03  0.00000000000E+00 0.  1.
          1   -1    0    0  503    0  0.00000000000E+00 -0.00000000000E+00 -0.20317424574E+03  0.20317424574E+03  0.00000000000E+00 0. -1.
         25    2    1    2    0    0 -0.96344384227E+02 -0.63810799869E+02  0.82176004340E+02  0.18902712775E+03  0.12499720310E+03 0.  0.
          4    1    3    3  502    0 -0.73087238550E+02  0.67037273144E+01  0.87930368696E+02  0.11454277383E+03  0.12700000000E+01 0. -1.
         -4    1    3    3    0  502 -0.23257145677E+02 -0.70514527183E+02 -0.57543643560E+01  0.74484353914E+02  0.12700000000E+01 0. -1.
          2    1    1    2  503    0  0.93512158314E+02 -0.44991020119E+02 -0.12599579866E+03  0.16322884832E+03  0.00000000000E+00 0. -1.
         -2    1    1    2    0  501  0.28322259128E+01  0.10880181999E+03  0.57143227290E+03  0.58170499400E+03  0.00000000000E+00 0.  1.
<mgrwt>
<rscale>  0 0.10460026E+03</rscale>
<asrwt>0</asrwt>
<pdfrwt beam="2">  1        1 0.31257576E-01 0.10377242E+03</pdfrwt>
<pdfrwt beam="1">  1       -1 0.11242873E+00 0.10543470E+03</pdfrwt>
<totfact> 0.11553046E+02</totfact>
</mgrwt>
</event>
<event>
 7    1  0.5277388E-004  0.9781864E+02  0.7546771E-02  0.1337192E+00
          2   -1    0    0  503    0  0.00000000000E+00  0.00000000000E+00  0.21850616825E+03  0.21850616825E+03  0.00000000000E+00 0. -1.
          1   -1    0    0  502    0 -0.00000000000E+00 -0.00000000000E+00 -0.43281281568E+03  0.43281281568E+03  0.00000000000E+00 0. -1.
         25    2    1    2    0    0 -0.49647904989E+02  0.28263408075E+02 -0.11151994064E+03  0.17698941078E+03  0.12499927865E+03 0.  0.
          4    1    3    3  501    0 -0.70277764472E+02  0.62420506953E+02 -0.58880238237E+02  0.11092240181E+03  0.12700000000E+01 0. -1.
         -4    1    3    3    0  501  0.20629859484E+02 -0.34157098878E+02 -0.52639702400E+02  0.66067008975E+02  0.12700000000E+01 0. -1.
          2    1    1    2  502    0 -0.11932562288E+01  0.60915143115E+02 -0.27072846550E+03  0.27749951451E+03  0.00000000000E+00 0. -1.
          1    1    1    2  503    0  0.50841161217E+02 -0.89178551190E+02  0.16794175871E+03  0.19683005864E+03  0.00000000000E+00 0. -1.
<mgrwt>
<rscale>  0 0.77199610E+02</rscale>
<asrwt>0</asrwt>
<pdfrwt beam="1">  1        2 0.33616334E-01 0.97818643E+02</pdfrwt>
<pdfrwt beam="2">  1        1 0.66586586E-01 0.60926829E+02</pdfrwt>
<totfact> 0.11586373E+03</totfact>
</mgrwt>
</event>
<event>
 7    1  0.5277388E-004  0.8540720E+02  0.7546771E-02  0.1426220E+00
         -2   -1    0    0    0  501 -0.00000000000E+00  0.00000000000E+00  0.12687658854E+04  0.12687658854E+04  0.00000000000E+00 0.  1.
          2   -1    0    0  503    0  0.00000000000E+00 -0.00000000000E+00 -0.53325485084E+03  0.53325485084E+03  0.00000000000E+00 0. -1.
         25    2    1    2    0    0  0.70097289784E+02 -0.30660458556E+02  0.14986594906E+03  0.20961671969E+03  0.12500269089E+03 0.  0.
          4    1    3    3  502    0  0.10429461567E+03 -0.35037610286E+02  0.98123388345E+02  0.14742731509E+03  0.12700000000E+01 0.  1.
         -4    1    3    3    0  502 -0.34197325889E+02  0.43771517306E+01  0.51742560717E+02  0.62189404602E+02  0.12700000000E+01 0.  1.
          1    1    1    2  503    0 -0.10844060086E+02 -0.32010304665E+02 -0.50110172602E+03  0.50224017468E+03  0.00000000000E+00 0. -1.
         -1    1    1    2    0  501 -0.59253229699E+02  0.62670763221E+02  0.10867468115E+04  0.10901638419E+04  0.00000000000E+00 0.  1.
<mgrwt>
<rscale>  0 0.53726412E+02</rscale>
<asrwt>0</asrwt>
<pdfrwt beam="2">  1        2 0.82039208E-01 0.33797237E+02</pdfrwt>
<pdfrwt beam="1">  1       -2 0.19519475E+00 0.85407199E+02</pdfrwt>
<totfact> 0.10126768E+01</totfact>
</mgrwt>
</event>
<event>
 7    1  0.5277388E-004  0.5146734E+02  0.7546771E-02  0.1502961E+00
          2   -1    0    0  503    0  0.00000000000E+00  0.00000000000E+00  0.16488876092E+04  0.16488876092E+04  0.00000000000E+00 0. -1.
         -2   -1    0    0    0  501 -0.00000000000E+00 -0.00000000000E+00 -0.46844870620E+02  0.46844870620E+02  0.00000000000E+00 0.  1.
         25    2    1    2    0    0 -0.24169149402E+02  0.14013278445E+02  0.11086153721E+03  0.16939080459E+03  0.12498977755E+03 0.  0.
          4    1    3    3  502    0  0.15406507267E+02  0.56755335782E+02  0.89972497720E+02  0.10749507827E+03  0.12700000000E+01 0.  1.
         -4    1    3    3    0  502 -0.39575656669E+02 -0.42742057336E+02  0.20889039492E+02  0.61895726323E+02  0.12700000000E+01 0.  1.
          1    1    1    2  503    0  0.23586269765E+02 -0.46228869739E+02  0.14931585467E+04  0.14940601950E+04  0.00000000000E+00 0. -1.
         -1    1    1    2    0  501  0.58287963721E+00  0.32215591294E+02 -0.19773453905E+01  0.32281480230E+02  0.00000000000E+00 0.  1.
<mgrwt>
<rscale>  0 0.40722503E+02</rscale>
<asrwt>0</asrwt>
<pdfrwt beam="1">  1        2 0.25367497E+00 0.51467344E+02</pdfrwt>
<pdfrwt beam="2">  1       -2 0.72069045E-02 0.32220864E+02</pdfrwt>
<totfact> 0.12290862E+03</totfact>
</mgrwt>
</event>
<event>
 7    1  0.5277388E-004  0.6574504E+02  0.7546771E-02  0.1428005E+00
          2   -1    0    0  503    0  0.00000000000E+00  0.00000000000E+00  0.61253907446E+03  0.61253907446E+03  0.00000000000E+00 0. -1.
          1   -1    0    0  502    0 -0.00000000000E+00 -0.00000000000E+00 -0.11643980677E+03  0.11643980677E+03  0.00000000000E+00 0. -1.
         25    2    1    2    0    0  0.28025839920E+02  0.96280978328E+01  0.36679245896E+03  0.38863690233E+03  0.12499514365E+03 0.  0.
          4    1    3    3  501    0  0.60429933583E+02 -0.32960282214E+02  0.14555405365E+03  0.16101475867E+03  0.12700000000E+01 0. -1.
         -4    1    3    3    0  501 -0.32404093663E+02  0.42588380046E+02  0.22123840531E+03  0.22762214366E+03  0.12700000000E+01 0. -1.
          2    1    1    2  502    0 -0.45008240591E+02 -0.49471965215E+02 -0.92611204713E+02  0.11423682551E+03  0.00000000000E+00 0. -1.
          1    1    1    2  503    0  0.16982400671E+02  0.39843867382E+02  0.22191801345E+03  0.22610515340E+03  0.00000000000E+00 0. -1.
<mgrwt>
<rscale>  0 0.53362479E+02</rscale>
<asrwt>0</asrwt>
<pdfrwt beam="1">  1        2 0.94236779E-01 0.43312073E+02</pdfrwt>
<pdfrwt beam="2">  1        1 0.17913817E-01 0.65745043E+02</pdfrwt>
<totfact> 0.19509415E+03</totfact>
</mgrwt>
</event>
<event>
 7    1  0.5277388E-004  0.4616557E+02  0.7546771E-02  0.1517692E+00
          1   -1    0    0  502    0 -0.00000000000E+00  0.00000000000E+00  0.19893790966E+02  0.19893790966E+02  0.00000000000E+00 0. -1.
          2   -1    0    0  503    0  0.00000000000E+00 -0.00000000000E+00 -0.98796515328E+03  0.98796515328E+03  0.00000000000E+00 0. -1.
         25    2    1    2    0    0  0.84453955479E+01 -0.59693857632E+02 -0.49086066085E+03  0.51010204556E+03  0.12500090866E+03 0.  0.
          4    1    3    3  501    0  0.19886793229E+02 -0.93756473411E+02 -0.27401456036E+03  0.29029528594E+03  0.12700000000E+01 0. -1.
         -4    1    3    3    0  501 -0.11441397681E+02  0.34062615779E+02 -0.21684610049E+03  0.21980675961E+03  0.12700000000E+01 0. -1.
          2    1    1    2  502    0  0.20851173839E+02  0.24941505445E+02 -0.19738856065E+02  0.38032520073E+02  0.00000000000E+00 0. -1.
          1    1    1    2  503    0 -0.29296569387E+02  0.34752352187E+02 -0.45747184540E+03  0.45972437861E+03  0.00000000000E+00 0. -1.
<mgrwt>
<rscale>  0 0.38740253E+02</rscale>
<asrwt>0</asrwt>
<pdfrwt beam="2">  1        2 0.15199464E+00 0.46165569E+02</pdfrwt>
<pdfrwt beam="1">  1        1 0.30605833E-02 0.32509232E+02</pdfrwt>
<totfact> 0.10235570E+04</totfact>
</mgrwt>
</event>
<event>
 7    1  0.5277388E-004  0.8775253E+02  0.7546771E-02  0.1439708E+00
          1   -1    0    0  503    0  0.00000000000E+00  0.00000000000E+00  0.17272554121E+04  0.17272554121E+04  0.00000000000E+00 0. -1.
         -1   -1    0    0    0  501 -0.00000000000E+00 -0.00000000000E+00 -0.21064333714E+02  0.21064333714E+02  0.00000000000E+00 0.  1.
         25    2    1    2    0    0 -0.67980024997E+02  0.33577275008E+02  0.75694614816E+03  0.77093292026E+03  0.12498551567E+03 0.  0.
          4    1    3    3  502    0 -0.50513080484E+02  0.80940423635E+02  0.51684820263E+03  0.52558215432E+03  0.12700000000E+01 0.  1.
         -4    1    3    3    0  502 -0.17466944513E+02 -0.47363148628E+02  0.24009794553E+03  0.24535076594E+03  0.12700000000E+01 0.  1.
          2    1    1    2  503    0 -0.21730176007E+02 -0.20259784185E+02  0.81403587292E+03  0.81457784270E+03  0.00000000000E+00 0. -1.
         -2    1    1    2    0  501  0.89710201004E+02 -0.13317490823E+02  0.13520905735E+03  0.16280898290E+03  0.00000000000E+00 0.  1.
<mgrwt>
<rscale>  0 0.51059684E+02</rscale>
<asrwt>0</asrwt>
<pdfrwt beam="1">  1        1 0.26573149E+00 0.29709584E+02</pdfrwt>
<pdfrwt beam="2">  1       -1 0.32406681E-02 0.87752533E+02</pdfrwt>
<totfact> 0.19458527E+03</totfact>
</mgrwt>
</event>
<event>
 7    1  0.5277388E-004  0.8127283E+02  0.7546771E-02  0.1359890E+00
          2   -1    0    0  503    0  0.00000000000E+00  0.00000000000E+00  0.27897844342E+04  0.27897844342E+04  0.00000000000E+00 0. -1.
         -2   -1    0    0    0  501 -0.00000000000E+00 -0.00000000000E+00 -0.43769041853E+02  0.43769041853E+02  0.00000000000E+00 0.  1.
         25    2    1    2    0    0  0.25231835484E+02  0.32862872023E+02  0.17345798800E+04  0.17395737522E+04  0.12503145724E+03 0.  0.
          4    1    3    3  502    0 -0.64723347566E+01  0.27778576429E+01  0.35449720694E+01  0.79866975189E+01  0.12700000000E+01 0.  1.
         -4    1    3    3    0  502  0.31704170241E+02  0.30085014380E+02  0.17310349080E+04  0.17315870547E+04  0.12700000000E+01 0.  1.
          3    1    1    2  503    0  0.56488563207E+02 -0.21364953864E+02  0.10096299696E+04  0.10114346714E+04  0.00000000000E+00 0. -1.
         -1    1    1    2    0  501 -0.81720398691E+02 -0.11497918160E+02  0.18055426473E+01  0.82545052357E+02  0.00000000000E+00 0.  1.
<mgrwt>
<rscale>  0 0.70059836E+02</rscale>
<asrwt>0</asrwt>
<pdfrwt beam="1">  1        2 0.42919746E+00 0.60393866E+02</pdfrwt>
<pdfrwt beam="2">  1       -2 0.67337010E-02 0.81272833E+02</pdfrwt>
<totfact> 0.38939921E+02</totfact>
</mgrwt>
</event>
<event>
 7    1  0.5529231E-004  0.1661944E+03  0.7546771E-02  0.1312865E+00
         -2   -1    0    0    0  501 -0.00000000000E+00  0.00000000000E+00  0.31380482176E+03  0.31380482176E+03  0.00000000000E+00 0.  1.
          2   -1    0    0  503    0  0.00000000000E+00 -0.00000000000E+00 -0.18100336609E+03  0.18100336609E+03  0.00000000000E+00 0. -1.
         25    2    1    2    0    0  0.19565052203E+03 -0.44825149513E+02 -0.21317378789E+01  0.23646928003E+03  0.12499902117E+03 0.  0.
          4    1    3    3  502    0  0.31540758975E+02 -0.56914811425E+00  0.49598913632E+02  0.58794630195E+02  0.12700000000E+01 0. -1.
         -4    1    3    3    0  502  0.16410976305E+03 -0.44256001399E+02 -0.51730651511E+02  0.17767464984E+03  0.12700000000E+01 0. -1.
          3    1    1    2  503    0 -0.42796712180E+02  0.12161410340E+02 -0.95285239523E+01  0.45500013666E+02  0.00000000000E+00 0. -1.
         -3    1    1    2    0  501 -0.15285380985E+03  0.32663739173E+02  0.14446171750E+03  0.21283889416E+03  0.00000000000E+00 0.  1.
<mgrwt>
<rscale>  0 0.85989381E+02</rscale>
<asrwt>0</asrwt>
<pdfrwt beam="2">  1        2 0.27846672E-01 0.44491106E+02</pdfrwt>
<pdfrwt beam="1">  1       -2 0.48277665E-01 0.16619442E+03</pdfrwt>
<totfact> 0.75375249E+02</totfact>
</mgrwt>
</event>
<event>
 7    1  0.5277388E-004  0.4546620E+02  0.7546771E-02  0.1525598E+00
          2   -1    0    0  503    0  0.00000000000E+00  0.00000000000E+00  0.50365437549E+03  0.50365437549E+03  0.00000000000E+00 0. -1.
         -2   -1    0    0    0  501 -0.00000000000E+00 -0.00000000000E+00 -0.11992594770E+03  0.11992594770E+03  0.00000000000E+00 0.  1.
         25    2    1    2    0    0 -0.37301917372E+02  0.27029283793E+02  0.74252500341E+02  0.15251191795E+03  0.12499774433E+03 0.  0.
          4    1    3    3  502    0 -0.49223040310E+02  0.48417644483E+02  0.96996902013E+02  0.11906799694E+03  0.12700000000E+01 0.  1.
         -4    1    3    3    0  502  0.11921122938E+02 -0.21388360690E+02 -0.22744401672E+02  0.33443921010E+02  0.12700000000E+01 0.  1.
          1    1    1    2  503    0  0.25923868037E+02  0.17563322232E+02  0.38302761784E+03  0.38430544265E+03  0.00000000000E+00 0. -1.
         -1    1    1    2    0  501  0.11378049336E+02 -0.44592606025E+02 -0.73551690389E+02  0.86762962592E+02  0.00000000000E+00 0.  1.
<mgrwt>
<rscale>  0 0.37731854E+02</rscale>
<asrwt>0</asrwt>
<pdfrwt beam="1">  1        2 0.77485287E-01 0.31313212E+02</pdfrwt>
<pdfrwt beam="2">  1       -2 0.18450146E-01 0.45466202E+02</pdfrwt>
<totfact> 0.14277021E+03</totfact>
</mgrwt>
</event>
<event>
 7    1  0.7028341E-004  0.1652755E+03  0.7546771E-02  0.1339147E+00
         -2   -1    0    0    0  501 -0.00000000000E+00  0.00000000000E+00  0.28843017722E+02  0.28843017722E+02  0.00000000000E+00 0.  1.
          2   -1    0    0  503    0  0.00000000000E+00 -0.00000000000E+00 -0.15481407353E+04  0.15481407353E+04  0.00000000000E+00 0. -1.
         25    2    1    2    0    0 -0.35220661971E+02  0.16806282578E+03 -0.10049018022E+04  0.10271018818E+04  0.12500013996E+03 0.  0.
          4    1    3    3  502    0 -0.48514118159E+02  0.17279221424E+03 -0.99145663434E+03  0.10075706624E+04  0.12700000000E+01 0.  1.
         -4    1    3    3    0  502  0.13293456187E+02 -0.47293884627E+01 -0.13445167896E+02  0.19531219429E+02  0.12700000000E+01 0.  1.
          3    1    1    2  503    0  0.62644775062E+02 -0.14559523791E+03 -0.40634671050E+03  0.43616509521E+03  0.00000000000E+00 0. -1.
         -3    1    1    2    0  501 -0.27424113091E+02 -0.22467587871E+02 -0.10804920482E+03  0.11371677601E+03  0.00000000000E+00 0.  1.
<mgrwt>
<rscale>  0 0.76546841E+02</rscale>
<asrwt>0</asrwt>
<pdfrwt beam="2">  1        2 0.23817554E+00 0.16527554E+03</pdfrwt>
<pdfrwt beam="1">  1       -2 0.44373866E-02 0.35452426E+02</pdfrwt>
<totfact> 0.25524327E+03</totfact>
</mgrwt>
</event>
<event>
 7    1  0.5277388E-004  0.4604302E+02  0.7546771E-02  0.1508590E+00
         -2   -1    0    0    0  501  0.00000000000E+00  0.00000000000E+00  0.46014713921E+03  0.46014713921E+03  0.00000000000E+00 0.  1.
         -1   -1    0    0    0  502 -0.00000000000E+00 -0.00000000000E+00 -0.11829644746E+03  0.11829644746E+03  0.00000000000E+00 0.  1.
         25    2    1    2    0    0 -0.67809340035E+02 -0.37027911854E+02  0.19600365441E+03  0.24497553393E+03  0.12500562718E+03 0.  0.
          4    1    3    3  503    0 -0.10204620103E+03 -0.31583352137E+02  0.17308351785E+03  0.20339727709E+03  0.12700000000E+01 0. -1.
         -4    1    3    3    0  503  0.34236860996E+02 -0.54445597172E+01  0.22920136567E+02  0.41578256837E+02  0.12700000000E+01 0. -1.
         -2    1    1    2    0  502  0.32838939813E+02  0.11089843892E+02 -0.88534083731E+02  0.95077150713E+02  0.00000000000E+00 0.  1.
         -1    1    1    2    0  501  0.34970400221E+02  0.25938067962E+02  0.23438112106E+03  0.23839090203E+03  0.00000000000E+00 0.  1.
<mgrwt>
<rscale>  0 0.39948645E+02</rscale>
<asrwt>0</asrwt>
<pdfrwt beam="1">  1       -2 0.70791866E-01 0.46043019E+02</pdfrwt>
<pdfrwt beam="2">  1       -1 0.18199454E-01 0.34660938E+02</pdfrwt>
<totfact> 0.30519252E+02</totfact>
</mgrwt>
</event>
<event>
 7    1  0.5277388E-004  0.1087236E+03  0.7546771E-02  0.1303855E+00
         -2   -1    0    0    0  501 -0.00000000000E+00  0.00000000000E+00  0.10276127218E+04  0.10276127218E+04  0.00000000000E+00 0.  1.
          2   -1    0    0  503    0  0.00000000000E+00 -0.00000000000E+00 -0.12097046923E+04  0.12097046923E+04  0.00000000000E+00 0. -1.
         25    2    1    2    0    0 -0.12600081658E+03  0.12246721092E+03  0.10746153429E+03  0.24092703269E+03  0.12499372065E+03 0.  0.
          4    1    3    3  502    0 -0.44255093306E+02  0.12530760116E+03  0.55550847994E+02  0.14404172244E+03  0.12700000000E+01 0. -1.
         -4    1    3    3    0  502 -0.81745723271E+02 -0.28403902427E+01  0.51910686298E+02  0.96885310247E+02  0.12700000000E+01 0. -1.
          1    1    1    2  503    0  0.63745849631E+02 -0.37224355417E+02 -0.11385081176E+04  0.11408987334E+04  0.00000000000E+00 0. -1.
         -3    1    1    2    0  501  0.62254966945E+02 -0.85242855500E+02  0.84895461283E+03  0.85549164810E+03  0.00000000000E+00 0.  1.
<mgrwt>
<rscale>  0 0.89586964E+02</rscale>
<asrwt>0</asrwt>
<pdfrwt beam="2">  1        2 0.18610841E+00 0.73818602E+02</pdfrwt>
<pdfrwt beam="1">  1       -2 0.15809426E+00 0.10872360E+03</pdfrwt>
<totfact> 0.63109025E+00</totfact>
</mgrwt>
</event>
<event>
 7    1  0.5277388E-004  0.5328078E+03  0.7546771E-02  0.1072657E+00
          1   -1    0    0  502    0 -0.00000000000E+00  0.00000000000E+00  0.25009379277E+04  0.25009379277E+04  0.00000000000E+00 0. -1.
          2   -1    0    0  503    0  0.00000000000E+00 -0.00000000000E+00 -0.82921068622E+03  0.82921068622E+03  0.00000000000E+00 0. -1.
         25    2    1    2    0    0  0.34539601865E+03  0.12386671539E+03 -0.90187518798E+02  0.39799576828E+03  0.12500188055E+03 0.  0.
          4    1    3    3  501    0  0.10062905814E+03  0.53276635118E+02  0.27859718579E+02  0.11722791481E+03  0.12700000000E+01 0. -1.
         -4    1    3    3    0  501  0.24476696051E+03  0.70590080277E+02 -0.11804723738E+03  0.28076785347E+03  0.12700000000E+01 0. -1.
          2    1    1    2  502    0 -0.49012847662E+03 -0.26216427920E+03  0.22957172589E+04  0.23620486375E+04  0.00000000000E+00 0. -1.
          1    1    1    2  503    0  0.14473245797E+03  0.13829756381E+03 -0.53380249867E+03  0.57010420813E+03  0.00000000000E+00 0. -1.
<mgrwt>
<rscale>  0 0.32658795E+03</rscale>
<asrwt>0</asrwt>
<pdfrwt beam="2">  1        2 0.12757088E+00 0.20018417E+03</pdfrwt>
<pdfrwt beam="1">  1        1 0.38475968E+00 0.53280783E+03</pdfrwt>
<totfact> 0.68568453E+00</totfact>
</mgrwt>
</event>
<event>
 7    1  0.5277388E-004  0.8585456E+02  0.7546771E-02  0.1428718E+00
          2   -1    0    0  503    0  0.00000000000E+00  0.00000000000E+00  0.78293418102E+03  0.78293418102E+03  0.00000000000E+00 0. -1.
          1   -1    0    0  502    0 -0.00000000000E+00 -0.00000000000E+00 -0.15703088433E+04  0.15703088433E+04  0.00000000000E+00 0. -1.
         25    2    1    2    0    0 -0.10979404170E+03 -0.26234223925E+02 -0.10628486006E+02  0.16876448310E+03  0.12500207976E+03 0.  0.
          4    1    3    3  501    0  0.91713743913E+01  0.17172193093E+02  0.29980938419E+02  0.35769650436E+02  0.12700000000E+01 0.  1.
         -4    1    3    3    0  501 -0.11896541609E+03 -0.43406417018E+02 -0.40609424425E+02  0.13299483266E+03  0.12700000000E+01 0.  1.
          2    1    1    2  502    0  0.77982607974E+02  0.34966051270E+02 -0.14789915865E+04  0.14814587490E+04  0.00000000000E+00 0. -1.
          1    1    1    2  503    0  0.31811433722E+02 -0.87318273452E+01  0.70224541023E+03  0.70301979227E+03  0.00000000000E+00 0. -1.
<mgrwt>
<rscale>  0 0.53218187E+02</rscale>
<asrwt>0</asrwt>
<pdfrwt beam="1">  1        2 0.12045141E+00 0.32988060E+02</pdfrwt>
<pdfrwt beam="2">  1        1 0.24158597E+00 0.85854561E+02</pdfrwt>
<totfact> 0.38866499E+01</totfact>
</mgrwt>
</event>
<event>
 7    1  0.5277388E-004  0.8276904E+02  0.7546771E-02  0.1338495E+00
          1   -1    0    0  502    0 -0.00000000000E+00  0.00000000000E+00  0.32737196905E+03  0.32737196905E+03  0.00000000000E+00 0. -1.
          2   -1    0    0  503    0  0.00000000000E+00 -0.00000000000E+00 -0.62195855358E+03  0.62195855358E+03  0.00000000000E+00 0. -1.
         25    2    1    2    0    0 -0.34512276058E+01  0.46765585483E+01  0.54313982067E+02  0.13641439438E+03  0.12500038869E+03 0.  0.
          4    1    3    3  501    0 -0.29974411643E+02 -0.46564334866E+02 -0.24742130131E+01  0.55447608288E+02  0.12700000000E+01 0. -1.
         -4    1    3    3    0  501  0.26523184037E+02  0.51240893414E+02  0.56788195080E+02  0.80966786090E+02  0.12700000000E+01 0. -1.
          2    1    1    2  502    0 -0.49792971035E+02 -0.68046654631E+02  0.22125857804E+03  0.23678058519E+03  0.00000000000E+00 0. -1.
          1    1    1    2  503    0  0.53244198641E+02  0.63370096083E+02 -0.57015914463E+03  0.57613554306E+03  0.00000000000E+00 0. -1.
<mgrwt>
<rscale>  0 0.76763493E+02</rscale>
<asrwt>0</asrwt>
<pdfrwt beam="2">  1        2 0.95685931E-01 0.82769039E+02</pdfrwt>
<pdfrwt beam="1">  1        1 0.50364919E-01 0.71193696E+02</pdfrwt>
<totfact> 0.53552372E+02</totfact>
</mgrwt>
</event>
<event>
 7    1  0.5277388E-004  0.5735570E+02  0.7546771E-02  0.1468061E+00
          2   -1    0    0  503    0  0.00000000000E+00  0.00000000000E+00  0.28756031206E+03  0.28756031206E+03  0.00000000000E+00 0. -1.
          1   -1    0    0  502    0 -0.00000000000E+00 -0.00000000000E+00 -0.48052764424E+03  0.48052764424E+03  0.00000000000E+00 0. -1.
         25    2    1    2    0    0  0.63287460877E+02 -0.78182116477E+01 -0.26464612299E+03  0.29956290991E+03  0.12503575265E+03 0.  0.
          4    1    3    3  501    0  0.91189762199E+02 -0.26245081531E+02 -0.13081760460E+03  0.16161446596E+03  0.12700000000E+01 0. -1.
         -4    1    3    3    0  501 -0.27902301322E+02  0.18426869883E+02 -0.13382851839E+03  0.13794844394E+03  0.12700000000E+01 0. -1.
          2    1    1    2  502    0 -0.20643473744E+02 -0.30618686315E+02 -0.19360755563E+03  0.19709779947E+03  0.00000000000E+00 0. -1.
          1    1    1    2  503    0 -0.42643987133E+02  0.38436897962E+02  0.26528634644E+03  0.27142724692E+03  0.00000000000E+00 0. -1.
<mgrwt>
<rscale>  0 0.46021904E+02</rscale>
<asrwt>0</asrwt>
<pdfrwt beam="1">  1        2 0.44240048E-01 0.57355703E+02</pdfrwt>
<pdfrwt beam="2">  1        1 0.73927329E-01 0.36927726E+02</pdfrwt>
<totfact> 0.76496734E+02</totfact>
</mgrwt>
</event>
<event>
 7    1  0.5277388E-004  0.1336315E+03  0.7546771E-02  0.1325041E+00
          2   -1    0    0  503    0  0.00000000000E+00  0.00000000000E+00  0.10774853299E+04  0.10774853299E+04  0.00000000000E+00 0. -1.
         -2   -1    0    0    0  501 -0.00000000000E+00 -0.00000000000E+00 -0.30912362597E+03  0.30912362597E+03  0.00000000000E+00 0.  1.
         25    2    1    2    0    0 -0.63373028536E+02 -0.15429006514E+03  0.13030645270E+03  0.24581820697E+03  0.12500101726E+03 0.  0.
          4    1    3    3  502    0  0.32970988854E+02 -0.21319206756E+02  0.57265835897E+01  0.39698883389E+02  0.12700000000E+01 0.  1.
         -4    1    3    3    0  502 -0.96344017391E+02 -0.13297085839E+03  0.12457986911E+03  0.20611932358E+03  0.12700000000E+01 0.  1.
          1    1    1    2  503    0  0.42911079171E+02  0.24916809563E+02  0.87160652957E+03  0.87301784089E+03  0.00000000000E+00 0. -1.
         -1    1    1    2    0  501  0.20461949366E+02  0.12937325558E+03 -0.23355127836E+03  0.26777290799E+03  0.00000000000E+00 0.  1.
<mgrwt>
<rscale>  0 0.81430222E+02</rscale>
<asrwt>0</asrwt>
<pdfrwt beam="1">  1        2 0.16576697E+00 0.49620642E+02</pdfrwt>
<pdfrwt beam="2">  1       -2 0.47557481E-01 0.13363151E+03</pdfrwt>
<totfact> 0.11141793E+02</totfact>
</mgrwt>
</event>
<event>
 7    1  0.5277388E-004  0.1598299E+03  0.7546771E-02  0.1314894E+00
         -2   -1    0    0    0  501 -0.00000000000E+00  0.00000000000E+00  0.41028328961E+03  0.41028328961E+03  0.00000000000E+00 0.  1.
          2   -1    0    0  503    0  0.00000000000E+00 -0.00000000000E+00 -0.94937735462E+03  0.94937735462E+03  0.00000000000E+00 0. -1.
         25    2    1    2    0    0 -0.12939206722E+03 -0.93583372729E+02 -0.49612332458E+02  0.20877277771E+03  0.12499813786E+03 0.  0.
          4    1    3    3  502    0 -0.60351805457E+02 -0.20181493821E+02 -0.81189133316E+02  0.10316453549E+03  0.12700000000E+01 0. -1.
         -4    1    3    3    0  502 -0.69040261767E+02 -0.73401878908E+02  0.31576800858E+02  0.10560824222E+03  0.12700000000E+01 0. -1.
          1    1    1    2  503    0  0.15116261706E+03  0.53716120795E+02 -0.81072725024E+03  0.82644675128E+03  0.00000000000E+00 0. -1.
         -1    1    1    2    0  501 -0.21770549840E+02  0.39867251934E+02  0.32124551769E+03  0.32444111523E+03  0.00000000000E+00 0.  1.
<mgrwt>
<rscale>  0 0.85206455E+02</rscale>
<asrwt>0</asrwt>
<pdfrwt beam="2">  1        2 0.14605805E+00 0.15982991E+03</pdfrwt>
<pdfrwt beam="1">  1       -2 0.63120507E-01 0.45424163E+02</pdfrwt>
<totfact> 0.70826747E+01</totfact>
</mgrwt>
</event>
<event>
 7    1  0.5277388E-004  0.2831209E+02  0.7546771E-02  0.1623263E+00
          1   -1    0    0  503    0  0.00000000000E+00  0.00000000000E+00  0.20011059593E+03  0.20011059593E+03  0.00000000000E+00 0. -1.
         -1   -1    0    0    0  501 -0.00000000000E+00 -0.00000000000E+00 -0.78534570890E+03  0.78534570890E+03  0.00000000000E+00 0.  1.
         25    2    1    2    0    0  0.33549265856E+02 -0.39279998287E+02  0.78774073639E+02  0.15652054233E+03  0.12499941596E+03 0.  0.
          4    1    3    3  502    0  0.71342715316E+02 -0.57278457920E+01  0.78127019238E+02  0.10596242391E+03  0.12700000000E+01 0. -1.
         -4    1    3    3    0  502 -0.37793449460E+02 -0.33552152495E+02  0.64705440130E+00  0.50558118423E+02  0.12700000000E+01 0. -1.
          2    1    1    2  503    0 -0.86009609225E+01  0.25990783219E+02  0.79915233801E+02  0.84474504643E+02  0.00000000000E+00 0. -1.
         -2    1    1    2    0  501 -0.24948304933E+02  0.13289215067E+02 -0.74392442041E+03  0.74446125785E+03  0.00000000000E+00 0.  1.
<mgrwt>
<rscale>  0 0.27840594E+02</rscale>
<asrwt>0</asrwt>
<pdfrwt beam="1">  1        1 0.30786245E-01 0.27376949E+02</pdfrwt>
<pdfrwt beam="2">  1       -1 0.12082242E+00 0.28312090E+02</pdfrwt>
<totfact> 0.10362717E+02</totfact>
</mgrwt>
</event>
<event>
 7    1  0.5277388E-004  0.7964748E+02  0.7546771E-02  0.1333456E+00
          2   -1    0    0  503    0  0.00000000000E+00  0.00000000000E+00  0.26420844848E+04  0.26420844848E+04  0.00000000000E+00 0. -1.
          1   -1    0    0  502    0 -0.00000000000E+00 -0.00000000000E+00 -0.35720523779E+03  0.35720523779E+03  0.00000000000E+00 0. -1.
         25    2    1    2    0    0 -0.90596449994E+02  0.10383651211E+03  0.57320455951E+03  0.60264277169E+03  0.12500042087E+03 0.  0.
          4    1    3    3  501    0 -0.98081256956E+02  0.23404513898E+02  0.38165612609E+03  0.39475399392E+03  0.12700000000E+01 0. -1.
         -4    1    3    3    0  501  0.74848069623E+01  0.80431998217E+02  0.19154843343E+03  0.20788877777E+03  0.12700000000E+01 0. -1.
          2    1    1    2  502    0  0.18007251394E+02 -0.77245638286E+02 -0.33715510046E+03  0.34635922321E+03  0.00000000000E+00 0. -1.
          1    1    1    2  503    0  0.72589198600E+02 -0.26590873828E+02  0.20488297879E+04  0.20502877277E+04  0.00000000000E+00 0. -1.
<mgrwt>
<rscale>  0 0.78468168E+02</rscale>
<asrwt>0</asrwt>
<pdfrwt beam="1">  1        2 0.40647452E+00 0.77306315E+02</pdfrwt>
<pdfrwt beam="2">  1        1 0.54954654E-01 0.79647483E+02</pdfrwt>
<totfact> 0.38593739E+01</totfact>
</mgrwt>
</event>
<event>
 7    1  0.5277388E-004  0.4902449E+02  0.7546771E-02  0.1498363E+00
          1   -1    0    0  503    0  0.00000000000E+00  0.00000000000E+00  0.59886618935E+02  0.59886618935E+02  0.00000000000E+00 0. -1.
         -1   -1    0    0    0  501 -0.00000000000E+00 -0.00000000000E+00 -0.94231072814E+03  0.94231072814E+03  0.00000000000E+00 0.  1.
         25    2    1    2    0    0 -0.79648399805E+02  0.72434032948E+01 -0.35763677333E+03  0.38720211413E+03  0.12500032428E+03 0.  0.
          4    1    3    3  502    0 -0.61955724148E+02  0.20188966826E+02 -0.35931527564E+03  0.36517829391E+03  0.12700000000E+01 0. -1.
         -4    1    3    3    0  502 -0.17692675658E+02 -0.12945563532E+02  0.16785023117E+01  0.22023820220E+02  0.12700000000E+01 0. -1.
          2    1    1    2  503    0  0.45611436565E+02 -0.15007107411E+02  0.31620502520E+02  0.57493239585E+02  0.00000000000E+00 0. -1.
         -2    1    1    2    0  501  0.34036963241E+02  0.77637041167E+01 -0.55640783839E+03  0.55750199335E+03  0.00000000000E+00 0.  1.
<mgrwt>
<rscale>  0 0.41370307E+02</rscale>
<asrwt>0</asrwt>
<pdfrwt beam="1">  1        1 0.92133262E-02 0.49024487E+02</pdfrwt>
<pdfrwt beam="2">  1       -1 0.14497088E+00 0.34911173E+02</pdfrwt>
<totfact> 0.30340048E+02</totfact>
</mgrwt>
</event>
<event>
 7    1  0.5277388E-004  0.6711077E+02  0.7546771E-02  0.1441251E+00
          1   -1    0    0  502    0 -0.00000000000E+00  0.00000000000E+00  0.21348290546E+03  0.21348290546E+03  0.00000000000E+00 0. -1.
          2   -1    0    0  503    0  0.00000000000E+00 -0.00000000000E+00 -0.10907447362E+04  0.10907447362E+04  0.00000000000E+00 0. -1.
         25    2    1    2    0    0 -0.33136258198E+02 -0.75278319857E+00 -0.41529339220E+01  0.12938561554E+03  0.12499924944E+03 0.  0.
          4    1    3    3  501    0  0.26063093617E+02 -0.30266897382E+02 -0.37933914597E+02  0.55099588952E+02  0.12700000000E+01 0.  1.
         -4    1    3    3    0  501 -0.59199351815E+02  0.29514114183E+02  0.33780980675E+02  0.74286026591E+02  0.12700000000E+01 0.  1.
          2    1    1    2  502    0  0.71175232853E+02  0.60245571278E+01  0.14202827034E+03  0.15897873643E+03  0.00000000000E+00 0. -1.
          1    1    1    2  503    0 -0.38038974655E+02 -0.52717739293E+01 -0.10151371672E+04  0.10158632897E+04  0.00000000000E+00 0. -1.
<mgrwt>
<rscale>  0 0.50766370E+02</rscale>
<asrwt>0</asrwt>
<pdfrwt beam="2">  1        2 0.16780688E+00 0.38402541E+02</pdfrwt>
<pdfrwt beam="1">  1        1 0.32843524E-01 0.67110775E+02</pdfrwt>
<totfact> 0.46752275E+02</totfact>
</mgrwt>
</event>
<event>
 7    1  0.5277388E-004  0.5877038E+02  0.7546771E-02  0.1460998E+00
          2   -1    0    0  503    0  0.00000000000E+00  0.00000000000E+00  0.19099973779E+03  0.19099973779E+03  0.00000000000E+00 0. -1.
          1   -1    0    0  502    0 -0.00000000000E+00 -0.00000000000E+00 -0.46636692386E+03  0.46636692386E+03  0.00000000000E+00 0. -1.
         25    2    1    2    0    0  0.16077031203E+02 -0.16905405909E+02 -0.10458109675E+03  0.16464079979E+03  0.12500049391E+03 0.  0.
          4    1    3    3  501    0  0.14148692639E+02 -0.67962906207E+02 -0.85369701372E+02  0.11003972435E+03  0.12700000000E+01 0. -1.
         -4    1    3    3    0  501  0.19283385642E+01  0.51057500298E+02 -0.19211395374E+02  0.54601075434E+02  0.12700000000E+01 0. -1.
          2    1    1    2  502    0  0.34229699732E+02 -0.16326215609E+02 -0.32496871525E+03  0.32717408753E+03  0.00000000000E+00 0. -1.
          1    1    1    2  503    0 -0.50306730935E+02  0.33231621518E+02  0.15418262593E+03  0.16555177433E+03  0.00000000000E+00 0. -1.
<mgrwt>
<rscale>  0 0.47210154E+02</rscale>
<asrwt>0</asrwt>
<pdfrwt beam="1">  1        2 0.29384575E-01 0.58770383E+02</pdfrwt>
<pdfrwt beam="2">  1        1 0.71748757E-01 0.37923840E+02</pdfrwt>
<totfact> 0.12138024E+03</totfact>
</mgrwt>
</event>
<event>
 7    1  0.5277388E-004  0.4620376E+02  0.7546771E-02  0.1516457E+00
          2   -1    0    0  503    0  0.00000000000E+00  0.00000000000E+00  0.13731311811E+04  0.13731311811E+04  0.00000000000E+00 0. -1.
          1   -1    0    0  502    0 -0.00000000000E+00 -0.00000000000E+00 -0.19007898044E+03  0.19007898044E+03  0.00000000000E+00 0. -1.
         25    2    1    2    0    0  0.10742229412E+02  0.12004661035E+02  0.11750032173E+03  0.17231216996E+03  0.12500260369E+03 0.  0.
          4    1    3    3  501    0  0.19341712637E+02 -0.91746828472E+01 -0.22130845627E+02  0.30816616967E+02  0.12700000000E+01 0. -1.
         -4    1    3    3    0  501 -0.85994832250E+01  0.21179343882E+02  0.13963116736E+03  0.14149555300E+03  0.12700000000E+01 0. -1.
          2    1    1    2  502    0  0.31349240660E+01  0.32602305794E+02 -0.16057511724E+03  0.16388137896E+03  0.00000000000E+00 0. -1.
          1    1    1    2  503    0 -0.13877153478E+02 -0.44606966828E+02  0.12261269962E+04  0.12270166126E+04  0.00000000000E+00 0. -1.
<mgrwt>
<rscale>  0 0.38901119E+02</rscale>
<asrwt>0</asrwt>
<pdfrwt beam="1">  1        2 0.21125094E+00 0.46203761E+02</pdfrwt>
<pdfrwt beam="2">  1        1 0.29242921E-01 0.32752681E+02</pdfrwt>
<totfact> 0.37223773E+02</totfact>
</mgrwt>
</event>
<event>
 7    1  0.5277388E-004  0.6724510E+02  0.7546771E-02  0.1507234E+00
         -2   -1    0    0    0  501 -0.00000000000E+00  0.00000000000E+00  0.73863700439E+02  0.73863700439E+02  0.00000000000E+00 0.  1.
          2   -1    0    0  503    0  0.00000000000E+00 -0.00000000000E+00 -0.17302956789E+04  0.17302956789E+04  0.00000000000E+00 0. -1.
         25    2    1    2    0    0 -0.66148962071E+02 -0.84714245708E+01 -0.37909526453E+02  0.14667077522E+03  0.12501093509E+03 0.  0.
          4    1    3    3  502    0  0.37514619876E+02 -0.11927251284E+00 -0.12984042494E+02  0.39718499340E+02  0.12700000000E+01 0.  1.
         -4    1    3    3    0  502 -0.10366358195E+03 -0.83521520580E+01 -0.24925483959E+02  0.10695227588E+03  0.12700000000E+01 0.  1.
          1    1    1    2  503    0  0.59490547207E+02  0.31479605429E+02 -0.16296770574E+04  0.16310663390E+04  0.00000000000E+00 0. -1.
         -1    1    1    2    0  501  0.66584148632E+01 -0.23008180858E+02  0.11154605367E+02  0.26422265152E+02  0.00000000000E+00 0.  1.
<mgrwt>
<rscale>  0 0.40133182E+02</rscale>
<asrwt>0</asrwt>
<pdfrwt beam="2">  1        2 0.26619931E+00 0.67245102E+02</pdfrwt>
<pdfrwt beam="1">  1       -2 0.11363647E-01 0.23952262E+02</pdfrwt>
<totfact> 0.53775786E+02</totfact>
</mgrwt>
</event>
<event>
 7    1  0.5277388E-004  0.5150333E+02  0.7546771E-02  0.1479321E+00
          2   -1    0    0  503    0  0.00000000000E+00  0.00000000000E+00  0.22827418186E+04  0.22827418186E+04  0.00000000000E+00 0. -1.
          1   -1    0    0  502    0 -0.00000000000E+00 -0.00000000000E+00 -0.16708040012E+04  0.16708040012E+04  0.00000000000E+00 0. -1.
         25    2    1    2    0    0 -0.16688752961E+02 -0.74467019817E+02  0.15151423780E+04  0.15222048416E+04  0.12500921097E+03 0.  0.
          4    1    3    3  501    0  0.95638168729E+01 -0.33818109863E+02  0.96024955532E+02  0.10226209529E+03  0.12700000000E+01 0.  1.
         -4    1    3    3    0  501 -0.26252569834E+02 -0.40648909954E+02  0.14191174224E+04  0.14199427463E+04  0.12700000000E+01 0.  1.
          2    1    1    2  502    0  0.32487693941E+02  0.39958590036E+02 -0.16664034296E+04  0.16671990071E+04  0.00000000000E+00 0. -1.
          1    1    1    2  503    0 -0.15798940981E+02  0.34508429781E+02  0.76319886901E+03  0.76414197105E+03  0.00000000000E+00 0. -1.
<mgrwt>
<rscale>  0 0.44212116E+02</rscale>
<asrwt>0</asrwt>
<pdfrwt beam="1">  1        2 0.35119105E+00 0.37953106E+02</pdfrwt>
<pdfrwt beam="2">  1        1 0.25704677E+00 0.51503326E+02</pdfrwt>
<totfact> 0.60872090E+00</totfact>
</mgrwt>
</event>
<event>
 7    1  0.5277388E-004  0.1113071E+03  0.7546771E-02  0.1356791E+00
          2   -1    0    0  503    0  0.00000000000E+00  0.00000000000E+00  0.17205779742E+04  0.17205779742E+04  0.00000000000E+00 0. -1.
         -2   -1    0    0    0  501 -0.00000000000E+00 -0.00000000000E+00 -0.15318286589E+03  0.15318286589E+03  0.00000000000E+00 0.  1.
         25    2    1    2    0    0 -0.34907506991E+02  0.10216960766E+03  0.19427261056E+03  0.25499793112E+03  0.12499973957E+03 0.  0.
          4    1    3    3  502    0 -0.28108842818E+01  0.15580148555E+02  0.15303006113E+03  0.15385205429E+03  0.12700000000E+01 0. -1.
         -4    1    3    3    0  502 -0.32096622709E+02  0.86589459103E+02  0.41242549422E+02  0.10114587683E+03  0.12700000000E+01 0. -1.
          1    1    1    2  503    0 -0.41070757624E+02 -0.19026702190E+02  0.14696996580E+04  0.14703965136E+04  0.00000000000E+00 0. -1.
         -1    1    1    2    0  501  0.75978264615E+02 -0.83142905469E+02 -0.96577160177E+02  0.14836639543E+03  0.00000000000E+00 0.  1.
<mgrwt>
<rscale>  0 0.70980263E+02</rscale>
<asrwt>0</asrwt>
<pdfrwt beam="1">  1        2 0.26470429E+00 0.45263921E+02</pdfrwt>
<pdfrwt beam="2">  1       -2 0.23566596E-01 0.11130714E+03</pdfrwt>
<totfact> 0.19149588E+02</totfact>
</mgrwt>
</event>
<event>
 7    1  0.5277388E-004  0.4749814E+02  0.7546771E-02  0.1482821E+00
          2   -1    0    0  503    0  0.00000000000E+00  0.00000000000E+00  0.10463769052E+04  0.10463769052E+04  0.00000000000E+00 0. -1.
         -2   -1    0    0    0  501 -0.00000000000E+00 -0.00000000000E+00 -0.23335410650E+02  0.23335410650E+02  0.00000000000E+00 0.  1.
         25    2    1    2    0    0  0.37125818240E+02  0.15759458801E+02  0.45445551824E+03  0.47305584581E+03  0.12500131310E+03 0.  0.
          4    1    3    3  502    0  0.18653214851E+02 -0.14493926953E+02  0.76761674339E+01  0.24870721527E+02  0.12700000000E+01 0.  1.
         -4    1    3    3    0  502  0.18472603389E+02  0.30253385754E+02  0.44677935080E+03  0.44818512428E+03  0.12700000000E+01 0.  1.
          1    1    1    2  503    0 -0.24056067704E+02  0.32145257979E+02  0.53546534044E+03  0.53696847469E+03  0.00000000000E+00 0. -1.
         -1    1    1    2    0  501 -0.13069750536E+02 -0.47904716780E+02  0.33120635895E+02  0.59687995367E+02  0.00000000000E+00 0.  1.
<mgrwt>
<rscale>  0 0.43669717E+02</rscale>
<asrwt>0</asrwt>
<pdfrwt beam="1">  1        2 0.16098103E+00 0.40149869E+02</pdfrwt>
<pdfrwt beam="2">  1       -2 0.35900640E-02 0.47498142E+02</pdfrwt>
<totfact> 0.73161473E+03</totfact>
</mgrwt>
</event>
<event>
 7    1  0.5277388E-004  0.2270629E+03  0.7546771E-02  0.1227287E+00
          2   -1    0    0  503    0  0.00000000000E+00  0.00000000000E+00  0.37264591495E+04  0.37264591495E+04  0.00000000000E+00 0. -1.
          1   -1    0    0  502    0 -0.00000000000E+00 -0.00000000000E+00 -0.12133899873E+03  0.12133899873E+03  0.00000000000E+00 0. -1.
         25    2    1    2    0    0 -0.13912326538E+03 -0.78485439681E+02  0.20279031548E+03  0.28682380931E+03  0.12501495239E+03 0.  0.
          4    1    3    3  501    0 -0.10933908017E+03 -0.83635834372E+02  0.77599261557E+02  0.15802925532E+03  0.12700000000E+01 0.  1.
         -4    1    3    3    0  501 -0.29784185211E+02  0.51503946902E+01  0.12519105393E+03  0.12879455399E+03  0.12700000000E+01 0.  1.
          2    1    1    2  502    0 -0.56907108274E+02 -0.48173470381E+02 -0.56955751138E+02  0.93824622612E+02  0.00000000000E+00 0. -1.
          1    1    1    2  503    0  0.19603037366E+03  0.12665891006E+03  0.34592855864E+04  0.34671497163E+04  0.00000000000E+00 0. -1.
<mgrwt>
<rscale>  0 0.13011406E+03</rscale>
<asrwt>0</asrwt>
<pdfrwt beam="1">  1        2 0.57330132E+00 0.22706286E+03</pdfrwt>
<pdfrwt beam="2">  1        1 0.18667541E-01 0.74559387E+02</pdfrwt>
<totfact> 0.26733941E+01</totfact>
</mgrwt>
</event>
<event>
 7    1  0.5277388E-004  0.1333325E+03  0.7546771E-02  0.1324661E+00
          2   -1    0    0  503    0  0.00000000000E+00  0.00000000000E+00  0.23157949907E+04  0.23157949907E+04  0.00000000000E+00 0. -1.
          1   -1    0    0  502    0 -0.00000000000E+00 -0.00000000000E+00 -0.54926504196E+03  0.54926504196E+03  0.00000000000E+00 0. -1.
         25    2    1    2    0    0 -0.49838782100E+02 -0.10239621010E+03  0.89799186250E+03  0.91377384677E+03  0.12499747951E+03 0.  0.
          4    1    3    3  501    0 -0.33649659430E+02 -0.10661036236E+03  0.39541125581E+03  0.41091330359E+03  0.12700000000E+01 0. -1.
         -4    1    3    3    0  501 -0.16189122670E+02  0.42141522631E+01  0.50258060669E+03  0.50286054318E+03  0.12700000000E+01 0. -1.
          2    1    1    2  502    0  0.29245837417E+02 -0.40430915069E+02 -0.53652090303E+03  0.53883639195E+03  0.00000000000E+00 0. -1.
          1    1    1    2  503    0  0.20592944683E+02  0.14282712517E+03  0.14050589893E+04  0.14124497940E+04  0.00000000000E+00 0. -1.
<mgrwt>
<rscale>  0 0.81567458E+02</rscale>
<asrwt>0</asrwt>
<pdfrwt beam="1">  1        2 0.35627615E+00 0.13333253E+03</pdfrwt>
<pdfrwt beam="2">  1        1 0.84502316E-01 0.49899678E+02</pdfrwt>
<totfact> 0.31438281E+01</totfact>
</mgrwt>
</event>
<event>
 7    1  0.5277388E-004  0.3509111E+02  0.7546771E-02  0.1635292E+00
          2   -1    0    0  503    0  0.00000000000E+00  0.00000000000E+00  0.88956459632E+02  0.88956459632E+02  0.00000000000E+00 0. -1.
          1   -1    0    0  502    0 -0.00000000000E+00 -0.00000000000E+00 -0.15748094422E+04  0.15748094422E+04  0.00000000000E+00 0. -1.
         25    2    1    2    0    0  0.30410817819E+02  0.44437152690E+02 -0.47108735578E+03  0.49035419880E+03  0.12499786048E+03 0.  0.
          4    1    3    3  501    0 -0.31139719493E+02 -0.23454105779E+02 -0.21142657486E+03  0.21499438752E+03  0.12700000000E+01 0. -1.
         -4    1    3    3    0  501  0.61550537312E+02  0.67891258469E+02 -0.25966078092E+03  0.27535981128E+03  0.12700000000E+01 0. -1.
          2    1    1    2  502    0 -0.24054919499E+02 -0.24841423895E+02 -0.10924729371E+04  0.10930200610E+04  0.00000000000E+00 0. -1.
          1    1    1    2  503    0 -0.63558983203E+01 -0.19595728795E+02  0.77707310310E+02  0.80391642017E+02  0.00000000000E+00 0. -1.
<mgrwt>
<rscale>  0 0.26886845E+02</rscale>
<asrwt>0</asrwt>
<pdfrwt beam="1">  1        2 0.13685611E-01 0.20600729E+02</pdfrwt>
<pdfrwt beam="2">  1        1 0.24227834E+00 0.35091109E+02</pdfrwt>
<totfact> 0.40111383E+02</totfact>
</mgrwt>
</event>
<event>
 7    1  0.5277388E-004  0.9003264E+02  0.7546771E-02  0.1328136E+00
          2   -1    0    0  503    0  0.00000000000E+00  0.00000000000E+00  0.12566325507E+04  0.12566325507E+04  0.00000000000E+00 0. -1.
         -2   -1    0    0    0  501 -0.00000000000E+00 -0.00000000000E+00 -0.54721730658E+03  0.54721730658E+03  0.00000000000E+00 0.  1.
         25    2    1    2    0    0  0.11741557099E+02 -0.33968743357E+02 -0.94159721344E+02  0.16057866009E+03  0.12501085258E+03 0.  0.
          4    1    3    3  502    0  0.35919866717E+02 -0.68478205833E+02 -0.28240351960E+02  0.82332447296E+02  0.12700000000E+01 0.  1.
         -4    1    3    3    0  502 -0.24178309618E+02  0.34509462476E+02 -0.65919369385E+02  0.78246212793E+02  0.12700000000E+01 0.  1.
          1    1    1    2  503    0  0.43188063481E+02  0.79991229075E+02  0.12186599371E+04  0.12220457634E+04  0.00000000000E+00 0. -1.
         -1    1    1    2    0  501 -0.54929620580E+02 -0.46022485718E+02 -0.41508497163E+03  0.42122543380E+03  0.00000000000E+00 0.  1.
<mgrwt>
<rscale>  0 0.80323408E+02</rscale>
<asrwt>0</asrwt>
<pdfrwt beam="1">  1        2 0.19332808E+00 0.90032638E+02</pdfrwt>
<pdfrwt beam="2">  1       -2 0.84187278E-01 0.71661234E+02</pdfrwt>
<totfact> 0.26500569E+01</totfact>
</mgrwt>
</event>
<event>
 7    1  0.5277388E-004  0.1552402E+03  0.7546771E-02  0.1328065E+00
          2   -1    0    0  503    0  0.00000000000E+00  0.00000000000E+00  0.23116203893E+03  0.23116203893E+03  0.00000000000E+00 0. -1.
          1   -1    0    0  502    0 -0.00000000000E+00 -0.00000000000E+00 -0.36671514424E+03  0.36671514424E+03  0.00000000000E+00 0. -1.
         25    2    1    2    0    0 -0.83161954297E+02 -0.12097667757E+03  0.53760594343E+02  0.20018525177E+03  0.12503066169E+03 0.  0.
          4    1    3    3  501    0  0.30255785456E+02 -0.62354534470E+01  0.14433836472E+02  0.34120990146E+02  0.12700000000E+01 0. -1.
         -4    1    3    3    0  501 -0.11341773975E+03 -0.11474122412E+03  0.39326757871E+02  0.16606426162E+03  0.12700000000E+01 0. -1.
          2    1    1    2  502    0  0.52046330241E+02  0.14856765838E+03 -0.26678369577E+03  0.30976557255E+03  0.00000000000E+00 0. -1.
          1    1    1    2  503    0  0.31115624056E+02 -0.27590980809E+02  0.77469996117E+02  0.87926358851E+02  0.00000000000E+00 0. -1.
<mgrwt>
<rscale>  0 0.80348676E+02</rscale>
<asrwt>0</asrwt>
<pdfrwt beam="1">  1        2 0.35563391E-01 0.41586588E+02</pdfrwt>
<pdfrwt beam="2">  1        1 0.56417714E-01 0.15524019E+03</pdfrwt>
<totfact> 0.13035509E+03</totfact>
</mgrwt>
</event>
<event>
 7    1  0.5277388E-004  0.6248764E+02  0.7546771E-02  0.1444430E+00
          1   -1    0    0  502    0 -0.00000000000E+00  0.00000000000E+00  0.87433576345E+03  0.87433576345E+03  0.00000000000E+00 0. -1.
          2   -1    0    0  503    0  0.00000000000E+00 -0.00000000000E+00 -0.34881339759E+03  0.34881339759E+03  0.00000000000E+00 0. -1.
         25    2    1    2    0    0  0.37234217263E+02  0.47392125580E+02  0.67044038309E+02  0.15412120860E+03  0.12500417339E+03 0.  0.
          4    1    3    3  501    0 -0.10559820483E+02  0.39417696173E+02 -0.26563628388E+02  0.48708354862E+02  0.12700000000E+01 0. -1.
         -4    1    3    3    0  501  0.47794037746E+02  0.79744294063E+01  0.93607666697E+02  0.10541285374E+03  0.12700000000E+01 0. -1.
          2    1    1    2  502    0  0.23882820230E+02 -0.32435424756E+02  0.75997196428E+03  0.76103865366E+03  0.00000000000E+00 0. -1.
          1    1    1    2  503    0 -0.61117037493E+02 -0.14956700823E+02 -0.30149363673E+03  0.30798929878E+03  0.00000000000E+00 0. -1.
<mgrwt>
<rscale>  0 0.50169483E+02</rscale>
<asrwt>0</asrwt>
<pdfrwt beam="2">  1        2 0.53663600E-01 0.62487644E+02</pdfrwt>
<pdfrwt beam="1">  1        1 0.13451319E+00 0.40279596E+02</pdfrwt>
<totfact> 0.28201434E+02</totfact>
</mgrwt>
</event>
<event>
 7    1  0.5277388E-004  0.7305855E+02  0.7546771E-02  0.1449939E+00
         -2   -1    0    0    0  501 -0.00000000000E+00  0.00000000000E+00  0.93732828738E+02  0.93732828738E+02  0.00000000000E+00 0.  1.
          2   -1    0    0  503    0  0.00000000000E+00 -0.00000000000E+00 -0.16240723242E+04  0.16240723242E+04  0.00000000000E+00 0. -1.
         25    2    1    2    0    0 -0.64626069772E+02 -0.13601096917E+02 -0.11484183581E+03  0.18214413191E+03  0.12500527511E+03 0.  0.
          4    1    3    3  502    0 -0.76258146775E+02 -0.32268809891E+02 -0.13088916938E+03  0.15488759990E+03  0.12700000000E+01 0. -1.
         -4    1    3    3    0  502  0.11632077003E+02  0.18667712974E+02  0.16047333564E+02  0.27256532017E+02  0.12700000000E+01 0. -1.
          1    1    1    2  503    0  0.70975047543E+02 -0.18859722357E+02 -0.14700400151E+04  0.14718732257E+04  0.00000000000E+00 0. -1.
         -1    1    1    2    0  501 -0.63489777710E+01  0.32460819275E+02  0.54542355406E+02  0.63787795384E+02  0.00000000000E+00 0.  1.
<mgrwt>
<rscale>  0 0.49157668E+02</rscale>
<asrwt>0</asrwt>
<pdfrwt beam="2">  1        2 0.24985727E+00 0.73058550E+02</pdfrwt>
<pdfrwt beam="1">  1       -2 0.14420436E-01 0.33075887E+02</pdfrwt>
<totfact> 0.42956088E+02</totfact>
</mgrwt>
</event>
<event>
 7    1  0.5277388E-004  0.3756999E+02  0.7546771E-02  0.1529937E+00
         -1   -1    0    0    0  501 -0.00000000000E+00  0.00000000000E+00  0.11717055940E+03  0.11717055940E+03  0.00000000000E+00 0.  1.
          1   -1    0    0  503    0  0.00000000000E+00 -0.00000000000E+00 -0.58149273623E+03  0.58149273623E+03  0.00000000000E+00 0. -1.
         25    2    1    2    0    0 -0.23078169765E+00 -0.40961178593E+02 -0.33765238294E+02  0.13574454177E+03  0.12493445438E+03 0.  0.
          4    1    3    3  502    0 -0.56601798966E+02 -0.31653925649E+02 -0.43045414040E+02  0.77847641101E+02  0.12700000000E+01 0. -1.
         -4    1    3    3    0  502  0.56371017268E+02 -0.93072529445E+01  0.92801757457E+01  0.57896900669E+02  0.12700000000E+01 0. -1.
          2    1    1    2  503    0  0.31679265838E+02  0.20197233289E+02 -0.49059611291E+03  0.49203257018E+03  0.00000000000E+00 0. -1.
         -2    1    1    2    0  501 -0.31448484140E+02  0.20763945304E+02  0.60039174369E+02  0.70886183690E+02  0.00000000000E+00 0.  1.
<mgrwt>
<rscale>  0 0.37194140E+02</rscale>
<asrwt>0</asrwt>
<pdfrwt beam="2">  1        1 0.89460419E-01 0.37569990E+02</pdfrwt>
<pdfrwt beam="1">  1       -1 0.18026240E-01 0.36822051E+02</pdfrwt>
<totfact> 0.86160351E+02</totfact>
</mgrwt>
</event>
<event>
 7    1  0.5277388E-004  0.6930780E+02  0.7546771E-02  0.1440191E+00
          1   -1    0    0  502    0 -0.00000000000E+00  0.00000000000E+00  0.13776634081E+04  0.13776634081E+04  0.00000000000E+00 0. -1.
          2   -1    0    0  503    0  0.00000000000E+00 -0.00000000000E+00 -0.74653426086E+02  0.74653426086E+02  0.00000000000E+00 0. -1.
         25    2    1    2    0    0 -0.65962333099E+01  0.10470579569E+03  0.24025724489E+03  0.29044010833E+03  0.12500039545E+03 0.  0.
          4    1    3    3  501    0 -0.40136517803E+02  0.33264539215E+02  0.18956082242E+02  0.55483471273E+02  0.12700000000E+01 0. -1.
         -4    1    3    3    0  501  0.33540284493E+02  0.71441256478E+02  0.22130116264E+03  0.23495663706E+03  0.12700000000E+01 0. -1.
          2    1    1    2  502    0  0.86709457293E+01 -0.67282676343E+02  0.11040354997E+04  0.11061177733E+04  0.00000000000E+00 0. -1.
          1    1    1    2  503    0 -0.20747124194E+01 -0.37423119350E+02 -0.41282762621E+02  0.55758952493E+02  0.00000000000E+00 0. -1.
<mgrwt>
<rscale>  0 0.50967608E+02</rscale>
<asrwt>0</asrwt>
<pdfrwt beam="2">  1        2 0.11485143E-01 0.37480586E+02</pdfrwt>
<pdfrwt beam="1">  1        1 0.21194820E+00 0.69307803E+02</pdfrwt>
<totfact> 0.63465377E+02</totfact>
</mgrwt>
</event>
<event>
 7    1  0.5277388E-004  0.8561846E+02  0.7546771E-02  0.1337726E+00
          1   -1    0    0  502    0 -0.00000000000E+00  0.00000000000E+00  0.68509110867E+03  0.68509110867E+03  0.00000000000E+00 0. -1.
          2   -1    0    0  503    0  0.00000000000E+00 -0.00000000000E+00 -0.11814240746E+04  0.11814240746E+04  0.00000000000E+00 0. -1.
         25    2    1    2    0    0 -0.18286866344E+02 -0.85470618874E+02  0.33055725500E+02  0.15606764089E+03  0.12499916548E+03 0.  0.
          4    1    3    3  501    0  0.25135442725E+02 -0.67291042522E+02  0.66826594636E+02  0.98118711444E+02  0.12700000000E+01 0. -1.
         -4    1    3    3    0  501 -0.43422309069E+02 -0.18179576352E+02 -0.33770869136E+02  0.57948929442E+02  0.12700000000E+01 0. -1.
          2    1    1    2  502    0 -0.55604282126E+02  0.41336083327E+02  0.58683476491E+03  0.59091077946E+03  0.00000000000E+00 0. -1.
          1    1    1    2  503    0  0.73891148470E+02  0.44134535547E+02 -0.11162234563E+04  0.11195367629E+04  0.00000000000E+00 0. -1.
<mgrwt>
<rscale>  0 0.77020354E+02</rscale>
<asrwt>0</asrwt>
<pdfrwt beam="2">  1        2 0.18175755E+00 0.85618462E+02</pdfrwt>
<pdfrwt beam="1">  1        1 0.10539863E+00 0.69285698E+02</pdfrwt>
<totfact> 0.92732067E+01</totfact>
</mgrwt>
</event>
<event>
 7    1  0.5277388E-004  0.1549069E+03  0.7546771E-02  0.1330004E+00
          1   -1    0    0  502    0 -0.00000000000E+00  0.00000000000E+00  0.76074779700E+03  0.76074779700E+03  0.00000000000E+00 0. -1.
          2   -1    0    0  503    0  0.00000000000E+00 -0.00000000000E+00 -0.22570730386E+03  0.22570730386E+03  0.00000000000E+00 0. -1.
         25    2    1    2    0    0  0.10256790356E+03 -0.61086534583E+02  0.21497661051E+03  0.27584746370E+03  0.12500056246E+03 0.  0.
          4    1    3    3  501    0  0.10885795954E+03 -0.16132305612E+02  0.87734989379E+02  0.14074568520E+03  0.12700000000E+01 0. -1.
         -4    1    3    3    0  501 -0.62900559794E+01 -0.44954228971E+02  0.12724162113E+03  0.13510177850E+03  0.12700000000E+01 0. -1.
          2    1    1    2  502    0  0.38807822224E+02 -0.13134312051E+02  0.48167865978E+03  0.48341792324E+03  0.00000000000E+00 0. -1.
          1    1    1    2  503    0 -0.14137572579E+03  0.74220846633E+02 -0.16161477716E+03  0.22718971392E+03  0.00000000000E+00 0. -1.
<mgrwt>
<rscale>  0 0.79665330E+02</rscale>
<asrwt>0</asrwt>
<pdfrwt beam="2">  1        2 0.34724201E-01 0.15490686E+03</pdfrwt>
<pdfrwt beam="1">  1        1 0.11703812E+00 0.40970199E+02</pdfrwt>
<totfact> 0.54836051E+02</totfact>
</mgrwt>
</event>
<event>
 7    1  0.5277388E-004  0.1267350E+03  0.7546771E-02  0.1345522E+00
          2   -1    0    0  503    0  0.00000000000E+00  0.00000000000E+00  0.18261046000E+04  0.18261046000E+04  0.00000000000E+00 0. -1.
          1   -1    0    0  502    0 -0.00000000000E+00 -0.00000000000E+00 -0.37037501765E+03  0.37037501765E+03  0.00000000000E+00 0. -1.
         25    2    1    2    0    0 -0.14642703568E+02 -0.14431079588E+03  0.19496174516E+03  0.27326771303E+03  0.12500058533E+03 0.  0.
          4    1    3    3  501    0 -0.37530526020E+02 -0.11531156057E+03  0.20202963580E+03  0.23563294130E+03  0.12700000000E+01 0. -1.
         -4    1    3    3    0  501  0.22887822452E+02 -0.28999235309E+02 -0.70678906384E+01  0.37634771730E+02  0.12700000000E+01 0. -1.
          2    1    1    2  502    0  0.38568501648E+02  0.20670325673E+02 -0.32727304526E+03  0.33018545976E+03  0.00000000000E+00 0. -1.
          1    1    1    2  503    0 -0.23925798080E+02  0.12364047020E+03  0.15880408824E+04  0.15930264449E+04  0.00000000000E+00 0. -1.
<mgrwt>
<rscale>  0 0.74469529E+02</rscale>
<asrwt>0</asrwt>
<pdfrwt beam="1">  1        2 0.28093917E+00 0.12673496E+03</pdfrwt>
<pdfrwt beam="2">  1        1 0.56980773E-01 0.43758333E+02</pdfrwt>
<totfact> 0.91833099E+01</totfact>
</mgrwt>
</event>
<event>
 7    1  0.5277388E-004  0.1127977E+03  0.7546771E-02  0.1285152E+00
          2   -1    0    0  503    0  0.00000000000E+00  0.00000000000E+00  0.25130298380E+04  0.25130298380E+04  0.00000000000E+00 0. -1.
          1   -1    0    0  502    0 -0.00000000000E+00 -0.00000000000E+00 -0.14236959554E+03  0.14236959554E+03  0.00000000000E+00 0. -1.
         25    2    1    2    0    0 -0.58586573009E+01 -0.88625865727E+02  0.96689331420E+02  0.18127930352E+03  0.12499796452E+03 0.  0.
          4    1    3    3  501    0 -0.24655994536E+02  0.26312727354E+02  0.30936771866E+02  0.47528669673E+02  0.12700000000E+01 0.  1.
         -4    1    3    3    0  501  0.18797337235E+02 -0.11493859308E+03  0.65752559554E+02  0.13375063385E+03  0.12700000000E+01 0.  1.
          2    1    1    2  502    0  0.90501070874E+02  0.86556174649E+02 -0.59827295996E+02  0.13878660074E+03  0.00000000000E+00 0. -1.
          1    1    1    2  503    0 -0.84642413573E+02  0.20696910778E+01  0.23337982070E+04  0.23353335292E+04  0.00000000000E+00 0. -1.
<mgrwt>
<rscale>  0 0.97725742E+02</rscale>
<asrwt>0</asrwt>
<pdfrwt beam="1">  1        2 0.38661994E+00 0.84667714E+02</pdfrwt>
<pdfrwt beam="2">  1        1 0.21903017E-01 0.11279767E+03</pdfrwt>
<totfact> 0.13869879E+02</totfact>
</mgrwt>
</event>
<event>
 7    1  0.5277388E-004  0.7323482E+03  0.7546771E-02  0.9663458E-01
         -2   -1    0    0    0  501 -0.00000000000E+00  0.00000000000E+00  0.22305548497E+03  0.22305548497E+03  0.00000000000E+00 0.  1.
          2   -1    0    0  503    0  0.00000000000E+00 -0.00000000000E+00 -0.60112158775E+03  0.60112158775E+03  0.00000000000E+00 0. -1.
         25    2    1    2    0    0 -0.64134576501E+02 -0.18748707305E+03 -0.51622169310E+03  0.56689839237E+03  0.12499721747E+03 0.  0.
          4    1    3    3  502    0 -0.13612367060E+02  0.74678090183E+01 -0.33971847639E+01  0.15944230080E+02  0.12700000000E+01 0. -1.
         -4    1    3    3    0  502 -0.50522209441E+02 -0.19495488206E+03 -0.51282450834E+03  0.55095416229E+03  0.12700000000E+01 0. -1.
          1    1    1    2  503    0  0.45171642534E+02  0.27919083021E+02  0.16104041904E+02  0.55491374570E+02  0.00000000000E+00 0. -1.
         -1    1    1    2    0  501  0.18962933967E+02  0.15956799002E+03  0.12205154842E+03  0.20178730578E+03  0.00000000000E+00 0.  1.
<mgrwt>
<rscale>  0 0.73234819E+03</rscale>
<asrwt>0</asrwt>
<pdfrwt beam="2">  1        2 0.92480243E-01 0.73234819E+03</pdfrwt>
<pdfrwt beam="1">  1       -2 0.34316229E-01 0.73234819E+03</pdfrwt>
<totfact> 0.39623289E+02</totfact>
</mgrwt>
</event>
<event>
 7    1  0.5277388E-004  0.3904583E+02  0.7546771E-02  0.1577993E+00
          2   -1    0    0  503    0  0.00000000000E+00  0.00000000000E+00  0.82343609414E+03  0.82343609414E+03  0.00000000000E+00 0. -1.
          1   -1    0    0  502    0 -0.00000000000E+00 -0.00000000000E+00 -0.20002535497E+03  0.20002535497E+03  0.00000000000E+00 0. -1.
         25    2    1    2    0    0 -0.20534612077E+02  0.22765291945E+02  0.81201669774E+02  0.15218224623E+03  0.12500318430E+03 0.  0.
          4    1    3    3  501    0  0.32474632049E+02 -0.32775781563E+02  0.95039454230E+01  0.47125274136E+02  0.12700000000E+01 0. -1.
         -4    1    3    3    0  501 -0.53009244126E+02  0.55541073508E+02  0.71697724351E+02  0.10505697210E+03  0.12700000000E+01 0. -1.
          2    1    1    2  502    0  0.20152013022E+02  0.16525265127E+02 -0.16295271384E+03  0.16502355881E+03  0.00000000000E+00 0. -1.
          1    1    1    2  503    0  0.38259905505E+00 -0.39290557072E+02  0.70516178323E+03  0.70625564407E+03  0.00000000000E+00 0. -1.
<mgrwt>
<rscale>  0 0.31899569E+02</rscale>
<asrwt>0</asrwt>
<pdfrwt beam="1">  1        2 0.12668247E+00 0.39045826E+02</pdfrwt>
<pdfrwt beam="2">  1        1 0.30773132E-01 0.26061236E+02</pdfrwt>
<totfact> 0.70270632E+02</totfact>
</mgrwt>
</event>
<event>
 7    1  0.5277388E-004  0.6807398E+02  0.7546771E-02  0.1450155E+00
          1   -1    0    0  502    0 -0.00000000000E+00  0.00000000000E+00  0.24857973074E+04  0.24857973074E+04  0.00000000000E+00 0. -1.
          2   -1    0    0  503    0  0.00000000000E+00 -0.00000000000E+00 -0.12844433217E+02  0.12844433217E+02  0.00000000000E+00 0. -1.
         25    2    1    2    0    0  0.80453965108E+02  0.11575395263E+02  0.71707560466E+03  0.73240399242E+03  0.12494540826E+03 0.  0.
          4    1    3    3  501    0  0.51990428568E+02  0.68140051769E+02  0.41497367801E+03  0.42373439518E+03  0.12700000000E+01 0. -1.
         -4    1    3    3    0  501  0.28463536540E+02 -0.56564656507E+02  0.30210192665E+03  0.30866959724E+03  0.12700000000E+01 0. -1.
          2    1    1    2  502    0 -0.64492939908E+02  0.20068239402E+02  0.16906930175E+04  0.16920416523E+04  0.00000000000E+00 0. -1.
          1    1    1    2  503    0 -0.15961025200E+02 -0.31643634664E+02  0.65184251982E+02  0.74196095899E+02  0.00000000000E+00 0. -1.
<mgrwt>
<rscale>  0 0.49118418E+02</rscale>
<asrwt>0</asrwt>
<pdfrwt beam="2">  1        2 0.19760686E-02 0.35441133E+02</pdfrwt>
<pdfrwt beam="1">  1        1 0.38242997E+00 0.68073981E+02</pdfrwt>
<totfact> 0.11444837E+03</totfact>
</mgrwt>
</event>
<event>
 7    1  0.5277388E-004  0.1042680E+03  0.7546771E-02  0.1392649E+00
         -1   -1    0    0    0  501 -0.00000000000E+00  0.00000000000E+00  0.21553185090E+03  0.21553185090E+03  0.00000000000E+00 0.  1.
          1   -1    0    0  503    0  0.00000000000E+00 -0.00000000000E+00 -0.97296097330E+03  0.97296097330E+03  0.00000000000E+00 0. -1.
         25    2    1    2    0    0  0.71409366044E+02  0.10608671927E+03 -0.61550865142E+03  0.64096045233E+03  0.12500284761E+03 0.  0.
          4    1    3    3  502    0  0.41621575180E+02  0.49994288860E+02 -0.53236873551E+03  0.53632999906E+03  0.12700000000E+01 0. -1.
         -4    1    3    3    0  502  0.29787790864E+02  0.56092430412E+02 -0.83139915907E+02  0.10463045327E+03  0.12700000000E+01 0. -1.
          2    1    1    2  503    0 -0.57097086103E+02 -0.73072350289E+02 -0.33681292458E+03  0.34934594857E+03  0.00000000000E+00 0. -1.
         -2    1    1    2    0  501 -0.14312279941E+02 -0.33014368983E+02  0.19489245359E+03  0.19818642331E+03  0.00000000000E+00 0.  1.
<mgrwt>
<rscale>  0 0.61252726E+02</rscale>
<asrwt>0</asrwt>
<pdfrwt beam="2">  1        1 0.14968630E+00 0.10426803E+03</pdfrwt>
<pdfrwt beam="1">  1       -1 0.33158747E-01 0.35983189E+02</pdfrwt>
<totfact> 0.14989449E+02</totfact>
</mgrwt>
</event>
<event>
 7    1  0.5277388E-004  0.9222578E+02  0.7546771E-02  0.1319274E+00
          2   -1    0    0  503    0  0.00000000000E+00  0.00000000000E+00  0.32701787548E+03  0.32701787548E+03  0.00000000000E+00 0. -1.
          1   -1    0    0  502    0 -0.00000000000E+00 -0.00000000000E+00 -0.20173170212E+04  0.20173170212E+04  0.00000000000E+00 0. -1.
         25    2    1    2    0    0 -0.46683100018E+02  0.54745847762E+02 -0.21958300877E+03  0.26271023069E+03  0.12499419144E+03 0.  0.
          4    1    3    3  501    0 -0.48259703869E+02  0.61209242715E+02 -0.49180635291E+02  0.92173305240E+02  0.12700000000E+01 0. -1.
         -4    1    3    3    0  501  0.15766038515E+01 -0.64633949529E+01 -0.17040237348E+03  0.17053692545E+03  0.12700000000E+01 0. -1.
          2    1    1    2  502    0  0.94914115022E+02  0.35829664276E+01 -0.17701891087E+04  0.17727354589E+04  0.00000000000E+00 0. -1.
          1    1    1    2  503    0 -0.48231015004E+02 -0.58328814189E+02  0.29947297179E+03  0.30888920700E+03  0.00000000000E+00 0. -1.
<mgrwt>
<rscale>  0 0.83547997E+02</rscale>
<asrwt>0</asrwt>
<pdfrwt beam="1">  1        2 0.50310442E-01 0.75686732E+02</pdfrwt>
<pdfrwt beam="2">  1        1 0.31035647E+00 0.92225779E+02</pdfrwt>
<totfact> 0.50724471E+01</totfact>
</mgrwt>
</event>
<event>
 7    1  0.5277388E-004  0.1212445E+03  0.7546771E-02  0.1307115E+00
          2   -1    0    0  503    0  0.00000000000E+00  0.00000000000E+00  0.72559647878E+03  0.72559647878E+03  0.00000000000E+00 0. -1.
          1   -1    0    0  502    0 -0.00000000000E+00 -0.00000000000E+00 -0.17526338214E+03  0.17526338214E+03  0.00000000000E+00 0. -1.
         25    2    1    2    0    0 -0.76864140026E+01  0.11877049934E+03 -0.46039616326E+02  0.17859919023E+03  0.12495003804E+03 0.  0.
          4    1    3    3  501    0  0.93448204505E+01 -0.19742845126E+02  0.14734603568E+02  0.26378533796E+02  0.12700000000E+01 0. -1.
         -4    1    3    3    0  501 -0.17031234453E+02  0.13851334447E+03 -0.60774219894E+02  0.15222065644E+03  0.12700000000E+01 0. -1.
          2    1    1    2  502    0  0.71458195834E+02 -0.11092781464E+03  0.99476147214E+01  0.13232614576E+03  0.00000000000E+00 0. -1.
          1    1    1    2  503    0 -0.63771781831E+02 -0.78426847005E+01  0.58642509824E+03  0.58993452493E+03  0.00000000000E+00 0. -1.
<mgrwt>
<rscale>  0 0.88262263E+02</rscale>
<asrwt>0</asrwt>
<pdfrwt beam="1">  1        2 0.11163023E+00 0.64252221E+02</pdfrwt>
<pdfrwt beam="2">  1        1 0.26963598E-01 0.12124448E+03</pdfrwt>
<totfact> 0.97694082E+02</totfact>
</mgrwt>
</event>
<event>
 7    1  0.5277388E-004  0.3888161E+02  0.7546771E-02  0.1535259E+00
         -3   -1    0    0    0  501 -0.00000000000E+00  0.00000000000E+00  0.88927500240E+02  0.88927500240E+02  0.00000000000E+00 0.  1.
          3   -1    0    0  503    0  0.00000000000E+00 -0.00000000000E+00 -0.17483185746E+03  0.17483185746E+03  0.00000000000E+00 0. -1.
         25    2    1    2    0    0 -0.46615102403E+01 -0.23863361030E+02 -0.10901563568E+03  0.16763969004E+03  0.12500986831E+03 0.  0.
          4    1    3    3  502    0 -0.88104472839E+01  0.20335146554E+02 -0.11988102871E+03  0.12191889152E+03  0.12700000000E+01 0.  1.
         -4    1    3    3    0  502  0.41489370435E+01 -0.44198507583E+02  0.10865393025E+02  0.45720798514E+02  0.12700000000E+01 0.  1.
          2    1    1    2  503    0  0.12545916076E+02  0.57303077892E+02  0.18166646100E+02  0.61409036604E+02  0.00000000000E+00 0. -1.
         -2    1    1    2    0  501 -0.78844058354E+01 -0.33439716862E+02  0.49446323618E+01  0.34710631057E+02  0.00000000000E+00 0.  1.
<mgrwt>
<rscale>  0 0.36549163E+02</rscale>
<asrwt>0</asrwt>
<pdfrwt beam="2">  1        3 0.26897208E-01 0.38881608E+02</pdfrwt>
<pdfrwt beam="1">  1       -3 0.13681154E-01 0.34356637E+02</pdfrwt>
<totfact> 0.99152734E+02</totfact>
</mgrwt>
</event>
<event>
 7    1  0.5277388E-004  0.1024480E+03  0.7546771E-02  0.1308154E+00
          2   -1    0    0  503    0  0.00000000000E+00  0.00000000000E+00  0.20753699445E+03  0.20753699445E+03  0.00000000000E+00 0. -1.
         -2   -1    0    0    0  501 -0.00000000000E+00 -0.00000000000E+00 -0.63004411667E+03  0.63004411667E+03  0.00000000000E+00 0.  1.
         25    2    1    2    0    0 -0.14044245516E+03 -0.55508154060E+02  0.62613804500E+02  0.20579539125E+03  0.12500406461E+03 0.  0.
          4    1    3    3  502    0 -0.13915165250E+03 -0.42434499719E+02  0.92998516248E+02  0.17266790693E+03  0.12700000000E+01 0. -1.
         -4    1    3    3    0  502 -0.12908026603E+01 -0.13073654341E+02 -0.30384711749E+02  0.33127484320E+02  0.12700000000E+01 0. -1.
          1    1    1    2  503    0  0.86421659357E+02  0.30143479456E+01  0.44211456072E+02  0.97120761671E+02  0.00000000000E+00 0. -1.
         -1    1    1    2    0  501  0.54020795805E+02  0.52493806114E+02 -0.52933238278E+03  0.53466495820E+03  0.00000000000E+00 0.  1.
<mgrwt>
<rscale>  0 0.87845842E+02</rscale>
<asrwt>0</asrwt>
<pdfrwt beam="1">  1        2 0.31928769E-01 0.10244804E+03</pdfrwt>
<pdfrwt beam="2">  1       -2 0.96929862E-01 0.75324937E+02</pdfrwt>
<totfact> 0.15482728E+02</totfact>
</mgrwt>
</event>
<event>
 7    1  0.5277388E-004  0.4333508E+02  0.7546771E-02  0.1505922E+00
          2   -1    0    0  503    0  0.00000000000E+00  0.00000000000E+00  0.27226398702E+04  0.27226398702E+04  0.00000000000E+00 0. -1.
          1   -1    0    0  502    0 -0.00000000000E+00 -0.00000000000E+00 -0.12517458125E+03  0.12517458125E+03  0.00000000000E+00 0. -1.
         25    2    1    2    0    0 -0.75758591104E+02  0.27246756677E+02  0.14043955363E+03  0.20452427338E+03  0.12500064121E+03 0.  0.
          4    1    3    3  501    0 -0.18096239067E+02  0.31157941991E+02  0.14218917000E+03  0.14668900498E+03  0.12700000000E+01 0. -1.
         -4    1    3    3    0  501 -0.57662352037E+02 -0.39111853139E+01 -0.17496163701E+01  0.57835268396E+02  0.12700000000E+01 0. -1.
          2    1    1    2  502    0  0.34500782819E+02 -0.14698553897E+02 -0.89167078844E+02  0.96732204830E+02  0.00000000000E+00 0. -1.
          1    1    1    2  503    0  0.41257808285E+02 -0.12548202781E+02  0.25461928141E+04  0.25465579732E+04  0.00000000000E+00 0. -1.
<mgrwt>
<rscale>  0 0.40312827E+02</rscale>
<asrwt>0</asrwt>
<pdfrwt beam="1">  1        2 0.41886763E+00 0.43335077E+02</pdfrwt>
<pdfrwt beam="2">  1        1 0.19257630E-01 0.37501353E+02</pdfrwt>
<totfact> 0.13393786E+02</totfact>
</mgrwt>
</event>
<event>
 7    1  0.5277388E-004  0.4223160E+02  0.7546771E-02  0.1560745E+00
          2   -1    0    0  503    0  0.00000000000E+00  0.00000000000E+00  0.45572495791E+03  0.45572495791E+03  0.00000000000E+00 0. -1.
         -2   -1    0    0    0  501 -0.00000000000E+00 -0.00000000000E+00 -0.51054619017E+03  0.51054619017E+03  0.00000000000E+00 0.  1.
         25    2    1    2    0    0  0.16562724547E+02 -0.16317324897E+00  0.10436754203E+03  0.16368150092E+03  0.12499879777E+03 0.  0.
          4    1    3    3  502    0  0.26356898728E+02 -0.49383142060E+02  0.10120501428E+02  0.56898315260E+02  0.12700000000E+01 0. -1.
         -4    1    3    3    0  502 -0.97941741810E+01  0.49219968811E+02  0.94247040598E+02  0.10678318566E+03  0.12700000000E+01 0. -1.
          1    1    1    2  503    0  0.24160764362E+02 -0.11696350992E+02  0.32020248334E+03  0.32132565646E+03  0.00000000000E+00 0. -1.
         -1    1    1    2    0  501 -0.40723488909E+02  0.11859524241E+02 -0.47939125763E+03  0.48126399071E+03  0.00000000000E+00 0.  1.
<mgrwt>
<rscale>  0 0.33669321E+02</rscale>
<asrwt>0</asrwt>
<pdfrwt beam="1">  1        2 0.70111532E-01 0.26843010E+02</pdfrwt>
<pdfrwt beam="2">  1       -2 0.78545568E-01 0.42231598E+02</pdfrwt>
<totfact> 0.10913454E+02</totfact>
</mgrwt>
</event>
<event>
 7    1  0.5277388E-004  0.4979998E+02  0.7546771E-02  0.1490034E+00
          2   -1    0    0  503    0  0.00000000000E+00  0.00000000000E+00  0.52824123292E+03  0.52824123292E+03  0.00000000000E+00 0. -1.
          1   -1    0    0  502    0 -0.00000000000E+00 -0.00000000000E+00 -0.67669546781E+03  0.67669546781E+03  0.00000000000E+00 0. -1.
         25    2    1    2    0    0 -0.11924090275E+01 -0.37254049316E+02  0.71947213465E+02  0.14899087411E+03  0.12503036836E+03 0.  0.
          4    1    3    3  501    0 -0.33394880289E+02 -0.74154193927E+02  0.41552492114E+02  0.91336110096E+02  0.12700000000E+01 0.  1.
         -4    1    3    3    0  501  0.32202471261E+02  0.36900144611E+02  0.30394721351E+02  0.57654764015E+02  0.12700000000E+01 0.  1.
          2    1    1    2  502    0 -0.36281142074E+02  0.30415641026E+01 -0.63611040473E+03  0.63715148857E+03  0.00000000000E+00 0. -1.
          1    1    1    2  503    0  0.37473551101E+02  0.34212485214E+02  0.41570895637E+03  0.41879433805E+03  0.00000000000E+00 0. -1.
<mgrwt>
<rscale>  0 0.42580961E+02</rscale>
<asrwt>0</asrwt>
<pdfrwt beam="1">  1        2 0.81267882E-01 0.49799982E+02</pdfrwt>
<pdfrwt beam="2">  1        1 0.10410699E+00 0.36408411E+02</pdfrwt>
<totfact> 0.26393351E+02</totfact>
</mgrwt>
</event>
<event>
 7    1  0.5277388E-004  0.2899453E+03  0.7546771E-02  0.1210914E+00
          2   -1    0    0  503    0  0.00000000000E+00  0.00000000000E+00  0.16555757743E+04  0.16555757743E+04  0.00000000000E+00 0. -1.
          1   -1    0    0  502    0 -0.00000000000E+00 -0.00000000000E+00 -0.11597946348E+04  0.11597946348E+04  0.00000000000E+00 0. -1.
         25    2    1    2    0    0 -0.15604689414E+03 -0.29048178334E+03  0.35900739953E+03  0.50323260632E+03  0.12500577397E+03 0.  0.
          4    1    3    3  501    0 -0.56107713525E+02 -0.44672079789E+02  0.23516070232E+02  0.75487010067E+02  0.12700000000E+01 0. -1.
         -4    1    3    3    0  501 -0.99939180620E+02 -0.24580970355E+03  0.33549132930E+03  0.42774559626E+03  0.12700000000E+01 0. -1.
          2    1    1    2  502    0 -0.16168216508E+02  0.67447108896E+02 -0.10703329330E+04  0.10725777879E+04  0.00000000000E+00 0. -1.
          1    1    1    2  503    0  0.17221511065E+03  0.22303467445E+03  0.12071066730E+04  0.12395600148E+04  0.00000000000E+00 0. -1.
<mgrwt>
<rscale>  0 0.14180977E+03</rscale>
<asrwt>0</asrwt>
<pdfrwt beam="1">  1        2 0.25470397E+00 0.28994533E+03</pdfrwt>
<pdfrwt beam="2">  1        1 0.17842994E+00 0.69357939E+02</pdfrwt>
<totfact> 0.20908571E+01</totfact>
</mgrwt>
</event>
<event>
 7    1  0.5277388E-004  0.1228688E+03  0.7546771E-02  0.1339312E+00
          2   -1    0    0  503    0  0.00000000000E+00  0.00000000000E+00  0.16862598369E+04  0.16862598369E+04  0.00000000000E+00 0. -1.
          1   -1    0    0  502    0 -0.00000000000E+00 -0.00000000000E+00 -0.11422200774E+04  0.11422200774E+04  0.00000000000E+00 0. -1.
         25    2    1    2    0    0 -0.14746295439E+03 -0.48395053663E+02 -0.33848830486E+02  0.20214112811E+03  0.12501155232E+03 0.  0.
          4    1    3    3  501    0 -0.13986338553E+03 -0.10038373649E+02 -0.62622527416E+02  0.15357646108E+03  0.12700000000E+01 0.  1.
         -4    1    3    3    0  501 -0.75995688526E+01 -0.38356680014E+02  0.28773696931E+02  0.48564667027E+02  0.12700000000E+01 0.  1.
          2    1    1    2  502    0  0.10283982371E+03  0.65022200336E+02 -0.10202557449E+04  0.10274851341E+04  0.00000000000E+00 0. -1.
          1    1    1    2  503    0  0.44623130680E+02 -0.16627146674E+02  0.15981443349E+04  0.15988536521E+04  0.00000000000E+00 0. -1.
<mgrwt>
<rscale>  0 0.76492075E+02</rscale>
<asrwt>0</asrwt>
<pdfrwt beam="1">  1        2 0.25942459E+00 0.47620225E+02</pdfrwt>
<pdfrwt beam="2">  1        1 0.17572617E+00 0.12286875E+03</pdfrwt>
<totfact> 0.23353396E+01</totfact>
</mgrwt>
</event>
<event>
 7    1  0.5277388E-004  0.1509100E+03  0.7546771E-02  0.1203163E+00
          1   -1    0    0  502    0 -0.00000000000E+00  0.00000000000E+00  0.23641232338E+03  0.23641232338E+03  0.00000000000E+00 0. -1.
          2   -1    0    0  503    0  0.00000000000E+00 -0.00000000000E+00 -0.19925487326E+04  0.19925487326E+04  0.00000000000E+00 0. -1.
         25    2    1    2    0    0  0.10250991568E+01  0.67143094687E+02 -0.18286425599E+03  0.23146016551E+03  0.12500090443E+03 0.  0.
          4    1    3    3  501    0  0.24858902777E+02  0.97857375187E+02 -0.14837858099E+03  0.17947659213E+03  0.12700000000E+01 0.  1.
         -4    1    3    3    0  501 -0.23833803620E+02 -0.30714280500E+02 -0.34485675003E+02  0.51983573387E+02  0.12700000000E+01 0.  1.
          2    1    1    2  502    0 -0.15172387713E+03 -0.59161116657E+02  0.17712493922E+03  0.24061050831E+03  0.00000000000E+00 0. -1.
          1    1    1    2  503    0  0.15069877797E+03 -0.79819780302E+01 -0.17503970924E+04  0.17568903822E+04  0.00000000000E+00 0. -1.
<mgrwt>
<rscale>  0 0.14783177E+03</rscale>
<asrwt>0</asrwt>
<pdfrwt beam="2">  1        2 0.30654596E+00 0.15091002E+03</pdfrwt>
<pdfrwt beam="1">  1        1 0.36371127E-01 0.14481632E+03</pdfrwt>
<totfact> 0.12834346E+02</totfact>
</mgrwt>
</event>
<event>
 7    1  0.5277388E-004  0.5745980E+02  0.7546771E-02  0.1483299E+00
          2   -1    0    0  503    0  0.00000000000E+00  0.00000000000E+00  0.14519758387E+04  0.14519758387E+04  0.00000000000E+00 0. -1.
         -2   -1    0    0    0  501 -0.00000000000E+00 -0.00000000000E+00 -0.54629174256E+03  0.54629174256E+03  0.00000000000E+00 0.  1.
         25    2    1    2    0    0 -0.24212315310E+02  0.81552891735E+02  0.30173517642E+03  0.33749978061E+03  0.12499949945E+03 0.  0.
          4    1    3    3  502    0 -0.51085927618E+02  0.89322254885E+02  0.14222376807E+03  0.17554899693E+03  0.12700000000E+01 0. -1.
         -4    1    3    3    0  502  0.26873612309E+02 -0.77693631499E+01  0.15951140835E+03  0.16195078369E+03  0.12700000000E+01 0. -1.
          1    1    1    2  503    0  0.28484036135E+02 -0.48752095073E+02  0.11311358254E+04  0.11325441990E+04  0.00000000000E+00 0. -1.
         -1    1    1    2    0  501 -0.42717208255E+01 -0.32800796662E+02 -0.52718690568E+03  0.52822360169E+03  0.00000000000E+00 0.  1.
<mgrwt>
<rscale>  0 0.43596364E+02</rscale>
<asrwt>0</asrwt>
<pdfrwt beam="1">  1        2 0.22338090E+00 0.57459800E+02</pdfrwt>
<pdfrwt beam="2">  1       -2 0.84044884E-01 0.33077785E+02</pdfrwt>
<totfact> 0.22048553E+01</totfact>
</mgrwt>
</event>
<event>
 7    1  0.5277388E-004  0.8119536E+02  0.7546771E-02  0.1457405E+00
          2   -1    0    0  503    0  0.00000000000E+00  0.00000000000E+00  0.23533834125E+04  0.23533834125E+04  0.00000000000E+00 0. -1.
          1   -1    0    0  502    0 -0.00000000000E+00 -0.00000000000E+00 -0.95774094213E+02  0.95774094213E+02  0.00000000000E+00 0. -1.
         25    2    1    2    0    0  0.63175122398E+02  0.78360943668E+02  0.61188140653E+02  0.17175869562E+03  0.12500210951E+03 0.  0.
          4    1    3    3  501    0  0.60385907462E+02  0.10311308768E+03  0.16571526702E+02  0.12064408427E+03  0.12700000000E+01 0. -1.
         -4    1    3    3    0  501  0.27892149363E+01 -0.24752144014E+02  0.44616613952E+02  0.51114611353E+02  0.12700000000E+01 0. -1.
          2    1    1    2  502    0 -0.27610285919E+02 -0.56201085152E+01 -0.34761854407E+02  0.44747067279E+02  0.00000000000E+00 0. -1.
          1    1    1    2  503    0 -0.35564836479E+02 -0.72740835152E+02  0.22311830320E+04  0.22326517438E+04  0.00000000000E+00 0. -1.
<mgrwt>
<rscale>  0 0.47830938E+02</rscale>
<asrwt>0</asrwt>
<pdfrwt beam="1">  1        2 0.36205894E+00 0.81195357E+02</pdfrwt>
<pdfrwt beam="2">  1        1 0.14734478E-01 0.28176471E+02</pdfrwt>
<totfact> 0.25868742E+02</totfact>
</mgrwt>
</event>
<event>
 7    1  0.5277388E-004  0.5481107E+02  0.7546771E-02  0.1553892E+00
         -2   -1    0    0    0  501 -0.00000000000E+00  0.00000000000E+00  0.15456763112E+03  0.15456763112E+03  0.00000000000E+00 0.  1.
          2   -1    0    0  503    0  0.00000000000E+00 -0.00000000000E+00 -0.15320895219E+03  0.15320895219E+03  0.00000000000E+00 0. -1.
         25    2    1    2    0    0 -0.64033188046E+02 -0.21377016797E+02  0.24139058672E+02  0.14405145324E+03  0.12494359131E+03 0.  0.
          4    1    3    3  502    0 -0.54517711228E+02  0.39654637304E+02  0.42372667813E+02  0.79634960757E+02  0.12700000000E+01 0.  1.
         -4    1    3    3    0  502 -0.95154768187E+01 -0.61031654101E+02 -0.18233609141E+02  0.64416492482E+02  0.12700000000E+01 0.  1.
          1    1    1    2  503    0  0.53781859378E+02  0.23601804867E+01 -0.83459190716E+02  0.99315131601E+02  0.00000000000E+00 0. -1.
         -1    1    1    2    0  501  0.10251328668E+02  0.19016836310E+02  0.60678810967E+02  0.64409998471E+02  0.00000000000E+00 0.  1.
<mgrwt>
<rscale>  0 0.34411257E+02</rscale>
<asrwt>0</asrwt>
<pdfrwt beam="2">  1        2 0.23570608E-01 0.54811072E+02</pdfrwt>
<pdfrwt beam="1">  1       -2 0.23779635E-01 0.21603930E+02</pdfrwt>
<totfact> 0.30930335E+03</totfact>
</mgrwt>
</event>
<event>
 7    1  0.5277388E-004  0.1950707E+03  0.7546771E-02  0.1250962E+00
         -1   -1    0    0    0  501 -0.00000000000E+00  0.00000000000E+00  0.21716245622E+03  0.21716245622E+03  0.00000000000E+00 0.  1.
          1   -1    0    0  503    0  0.00000000000E+00 -0.00000000000E+00 -0.27634850988E+04  0.27634850988E+04  0.00000000000E+00 0. -1.
         25    2    1    2    0    0 -0.20957125983E+03 -0.54549016197E+02 -0.22238365044E+03  0.33461747257E+03  0.12497462484E+03 0.  0.
          4    1    3    3  502    0 -0.31980102207E+02  0.28058493713E+02 -0.63903795640E+01  0.43040165632E+02  0.12700000000E+01 0.  1.
         -4    1    3    3    0  502 -0.17759115762E+03 -0.82607509910E+02 -0.21599327088E+03  0.29157730694E+03  0.12700000000E+01 0.  1.
          2    1    1    2  503    0  0.16354049033E+03  0.10489331880E+03 -0.24737768849E+04  0.24813948047E+04  0.00000000000E+00 0. -1.
         -2    1    1    2    0  501  0.46030769501E+02 -0.50344302600E+02  0.14983789283E+03  0.16463527773E+03  0.00000000000E+00 0.  1.
<mgrwt>
<rscale>  0 0.11535545E+03</rscale>
<asrwt>0</asrwt>
<pdfrwt beam="2">  1        1 0.42515155E+00 0.19507065E+03</pdfrwt>
<pdfrwt beam="1">  1       -1 0.33409609E-01 0.68215691E+02</pdfrwt>
<totfact> 0.93560402E+00</totfact>
</mgrwt>
</event>
<event>
 7    1  0.5277388E-004  0.3928998E+02  0.7546771E-02  0.1539725E+00
          2   -1    0    0  503    0  0.00000000000E+00  0.00000000000E+00  0.20114597525E+04  0.20114597525E+04  0.00000000000E+00 0. -1.
         -2   -1    0    0    0  501 -0.00000000000E+00 -0.00000000000E+00 -0.62038259717E+03  0.62038259717E+03  0.00000000000E+00 0.  1.
         25    2    1    2    0    0 -0.43388313972E+02  0.49604449221E+02  0.39841138440E+03  0.42272872236E+03  0.12499917727E+03 0.  0.
          4    1    3    3  502    0  0.35148043507E+02 -0.13589257015E+02  0.74597178223E+02  0.83584716111E+02  0.12700000000E+01 0. -1.
         -4    1    3    3    0  502 -0.78536357479E+02  0.63193706236E+02  0.32381420618E+03  0.33914400625E+03  0.12700000000E+01 0. -1.
          1    1    1    2  503    0  0.83226618789E+01 -0.31956151955E+02  0.16000857370E+04  0.16004264519E+04  0.00000000000E+00 0. -1.
         -1    1    1    2    0  501  0.35065652093E+02 -0.17648297266E+02 -0.60741996603E+03  0.60868717539E+03  0.00000000000E+00 0.  1.
<mgrwt>
<rscale>  0 0.36019987E+02</rscale>
<asrwt>0</asrwt>
<pdfrwt beam="1">  1        2 0.30945534E+00 0.33022149E+02</pdfrwt>
<pdfrwt beam="2">  1       -2 0.95443477E-01 0.39289977E+02</pdfrwt>
<totfact> 0.94437048E+00</totfact>
</mgrwt>
</event>
<event>
 7    1  0.5277388E-004  0.1937816E+03  0.7546771E-02  0.1253907E+00
          1   -1    0    0  502    0 -0.00000000000E+00  0.00000000000E+00  0.31008354794E+03  0.31008354794E+03  0.00000000000E+00 0. -1.
          2   -1    0    0  503    0  0.00000000000E+00 -0.00000000000E+00 -0.22173470185E+04  0.22173470185E+04  0.00000000000E+00 0. -1.
         25    2    1    2    0    0  0.15261686829E+03  0.72672436020E+02 -0.76941432357E+03  0.79761874223E+03  0.12499626075E+03 0.  0.
          4    1    3    3  501    0  0.22617483455E+02  0.68686354655E+02 -0.38672632063E+03  0.39343134832E+03  0.12700000000E+01 0.  1.
         -4    1    3    3    0  501  0.12999938484E+03  0.39860813647E+01 -0.38268800294E+03  0.40418739391E+03  0.12700000000E+01 0.  1.
          2    1    1    2  502    0  0.54404370932E+02 -0.38564691007E+02  0.28442871091E+03  0.29214168234E+03  0.00000000000E+00 0. -1.
          1    1    1    2  503    0 -0.20702123923E+03 -0.34107745013E+02 -0.14222778579E+04  0.14376701419E+04  0.00000000000E+00 0. -1.
<mgrwt>
<rscale>  0 0.11367758E+03</rscale>
<asrwt>0</asrwt>
<pdfrwt beam="2">  1        2 0.34113031E+00 0.19378163E+03</pdfrwt>
<pdfrwt beam="1">  1        1 0.47705161E-01 0.66686363E+02</pdfrwt>
<totfact> 0.68283823E+01</totfact>
</mgrwt>
</event>
<event>
 7    1  0.5277388E-004  0.5297936E+02  0.7546771E-02  0.1452315E+00
          1   -1    0    0  502    0 -0.00000000000E+00  0.00000000000E+00  0.86672270985E+03  0.86672270985E+03  0.00000000000E+00 0. -1.
          2   -1    0    0  503    0  0.00000000000E+00 -0.00000000000E+00 -0.20024519648E+04  0.20024519648E+04  0.00000000000E+00 0. -1.
         25    2    1    2    0    0 -0.91456610095E+02 -0.17872169257E+02 -0.16616478701E+03  0.22785691446E+03  0.12499724421E+03 0.  0.
          4    1    3    3  501    0 -0.63812130194E+02  0.15838237084E+02 -0.17172860232E+03  0.18388899768E+03  0.12700000000E+01 0.  1.
         -4    1    3    3    0  501 -0.27644479901E+02 -0.33710406341E+02  0.55638153117E+01  0.43967916775E+02  0.12700000000E+01 0.  1.
          2    1    1    2  502    0  0.47056376204E+02  0.24001743356E+02  0.83476349041E+03  0.83643318391E+03  0.00000000000E+00 0. -1.
          1    1    1    2  503    0  0.44400233891E+02 -0.61295740990E+01 -0.18043279584E+04  0.18048845763E+04  0.00000000000E+00 0. -1.
<mgrwt>
<rscale>  0 0.48729929E+02</rscale>
<asrwt>0</asrwt>
<pdfrwt beam="2">  1        2 0.30806953E+00 0.44821339E+02</pdfrwt>
<pdfrwt beam="1">  1        1 0.13334196E+00 0.52979363E+02</pdfrwt>
<totfact> 0.27506657E+01</totfact>
</mgrwt>
</event>
<event>
 7    1  0.5277388E-004  0.5410463E+02  0.7546771E-02  0.1476416E+00
         -1   -1    0    0    0  502 -0.00000000000E+00  0.00000000000E+00  0.14272979600E+03  0.14272979600E+03  0.00000000000E+00 0.  1.
         -2   -1    0    0    0  501  0.00000000000E+00 -0.00000000000E+00 -0.32541470525E+03  0.32541470525E+03  0.00000000000E+00 0.  1.
         25    2    1    2    0    0  0.55557454206E+02 -0.58557918283E+02 -0.52582244799E+02  0.15781461653E+03  0.12499960084E+03 0.  0.
          4    1    3    3  503    0 -0.33217397606E+02 -0.37141959883E+02 -0.43278115128E+02  0.66011581080E+02  0.12700000000E+01 0. -1.
         -4    1    3    3    0  503  0.88774851812E+02 -0.21415958400E+02 -0.93041296714E+01  0.91803035448E+02  0.12700000000E+01 0. -1.
         -2    1    1    2    0  502 -0.78168902356E+01  0.36041758972E+02  0.82980269610E+02  0.90806592862E+02  0.00000000000E+00 0.  1.
         -1    1    1    2    0  501 -0.47740563971E+02  0.22516159312E+02 -0.21308293406E+03  0.21952329185E+03  0.00000000000E+00 0.  1.
<mgrwt>
<rscale>  0 0.44669478E+02</rscale>
<asrwt>0</asrwt>
<pdfrwt beam="2">  1       -2 0.50063801E-01 0.54104626E+02</pdfrwt>
<pdfrwt beam="1">  1       -1 0.21958430E-01 0.36879699E+02</pdfrwt>
<totfact> 0.45993453E+02</totfact>
</mgrwt>
</event>
<event>
 7    1  0.5277388E-004  0.5955792E+02  0.7546771E-02  0.1476879E+00
         -2   -1    0    0    0  501 -0.00000000000E+00  0.00000000000E+00  0.16947560476E+04  0.16947560476E+04  0.00000000000E+00 0.  1.
          2   -1    0    0  503    0  0.00000000000E+00 -0.00000000000E+00 -0.37281559943E+02  0.37281559943E+02  0.00000000000E+00 0. -1.
         25    2    1    2    0    0  0.79850839869E+02 -0.30110182146E+02  0.22025072914E+03  0.26724138774E+03  0.12499918374E+03 0.  0.
          4    1    3    3  502    0 -0.12573051447E+02 -0.26851764710E+02  0.14500061760E+03  0.14800638802E+03  0.12700000000E+01 0.  1.
         -4    1    3    3    0  502  0.92423891315E+02 -0.32584174362E+01  0.75250111539E+02  0.11923499971E+03  0.12700000000E+01 0.  1.
          1    1    1    2  503    0 -0.21018360216E+02  0.25948368954E+02  0.79763062981E+01  0.34332357619E+02  0.00000000000E+00 0. -1.
         -1    1    1    2    0  501 -0.58832479653E+02  0.41618131917E+01  0.14292474522E+04  0.14304638622E+04  0.00000000000E+00 0.  1.
<mgrwt>
<rscale>  0 0.44596130E+02</rscale>
<asrwt>0</asrwt>
<pdfrwt beam="2">  1        2 0.57356259E-02 0.33392953E+02</pdfrwt>
<pdfrwt beam="1">  1       -2 0.26073164E+00 0.59557919E+02</pdfrwt>
<totfact> 0.78245968E+01</totfact>
</mgrwt>
</event>
<event>
 7    1  0.5277388E-004  0.9222908E+02  0.7546771E-02  0.1393650E+00
          1   -1    0    0  502    0 -0.00000000000E+00  0.00000000000E+00  0.14969846669E+03  0.14969846669E+03  0.00000000000E+00 0. -1.
          2   -1    0    0  503    0  0.00000000000E+00 -0.00000000000E+00 -0.24254685210E+04  0.24254685210E+04  0.00000000000E+00 0. -1.
         25    2    1    2    0    0  0.38049960244E+02  0.51937818605E+02 -0.84078191452E+02  0.16381706798E+03  0.12498621127E+03 0.  0.
          4    1    3    3  501    0  0.27157471725E+02  0.93212094760E+02 -0.66218766873E+02  0.11752685168E+03  0.12700000000E+01 0. -1.
         -4    1    3    3    0  501  0.10892488519E+02 -0.41274276155E+02 -0.17859424579E+02  0.46290216294E+02  0.12700000000E+01 0. -1.
          2    1    1    2  502    0 -0.13943051463E+02  0.37870312083E+02  0.10514918530E+03  0.11262735187E+03  0.00000000000E+00 0. -1.
          1    1    1    2  503    0 -0.24106908781E+02 -0.89808130688E+02 -0.22968410482E+04  0.22987225678E+04  0.00000000000E+00 0. -1.
<mgrwt>
<rscale>  0 0.61007817E+02</rscale>
<asrwt>0</asrwt>
<pdfrwt beam="2">  1        2 0.37314900E+00 0.92229076E+02</pdfrwt>
<pdfrwt beam="1">  1        1 0.23030533E-01 0.40355535E+02</pdfrwt>
<totfact> 0.13822312E+02</totfact>
</mgrwt>
</event>
<event>
 7    1  0.5277388E-004  0.7160470E+02  0.7546771E-02  0.1417622E+00
          1   -1    0    0  502    0 -0.00000000000E+00  0.00000000000E+00  0.15955225732E+03  0.15955225732E+03  0.00000000000E+00 0. -1.
          2   -1    0    0  503    0  0.00000000000E+00 -0.00000000000E+00 -0.16772474459E+03  0.16772474459E+03  0.00000000000E+00 0. -1.
         25    2    1    2    0    0 -0.64690578725E+02 -0.63627464208E+02  0.16119994456E+02  0.15530406915E+03  0.12500469790E+03 0.  0.
          4    1    3    3  501    0  0.37357502548E+02 -0.10994809083E+02  0.10430429053E+02  0.40334545661E+02  0.12700000000E+01 0. -1.
         -4    1    3    3    0  501 -0.10204808127E+03 -0.52632655125E+02  0.56895654033E+01  0.11496952349E+03  0.12700000000E+01 0. -1.
          2    1    1    2  502    0  0.21660631849E+02  0.65222671458E+02  0.50764711141E+02  0.85441417015E+02  0.00000000000E+00 0. -1.
          1    1    1    2  503    0  0.43029946876E+02 -0.15952072503E+01 -0.75057192869E+02  0.86531515737E+02  0.00000000000E+00 0. -1.
<mgrwt>
<rscale>  0 0.55527139E+02</rscale>
<asrwt>0</asrwt>
<pdfrwt beam="2">  1        2 0.25803807E-01 0.43059506E+02</pdfrwt>
<pdfrwt beam="1">  1        1 0.24546501E-01 0.71604705E+02</pdfrwt>
<totfact> 0.50445081E+03</totfact>
</mgrwt>
</event>
<event>
 7    1  0.5277388E-004  0.1245242E+03  0.7546771E-02  0.1427242E+00
         -2   -1    0    0    0  501 -0.00000000000E+00  0.00000000000E+00  0.61540251921E+03  0.61540251921E+03  0.00000000000E+00 0.  1.
          2   -1    0    0  503    0  0.00000000000E+00 -0.00000000000E+00 -0.28141284838E+03  0.28141284838E+03  0.00000000000E+00 0. -1.
         25    2    1    2    0    0  0.72777449369E+02 -0.92651300242E+02  0.12236936620E+03  0.21089945609E+03  0.12499399274E+03 0.  0.
          4    1    3    3  502    0  0.10046767130E+03 -0.35483113895E+02  0.90591382397E+02  0.13986141645E+03  0.12700000000E+01 0. -1.
         -4    1    3    3    0  502 -0.27690221930E+02 -0.57168186348E+02  0.31777983798E+02  0.71038039634E+02  0.12700000000E+01 0. -1.
          1    1    1    2  503    0 -0.93756147854E+02  0.83221194229E+02 -0.22025266150E+03  0.25343089261E+03  0.00000000000E+00 0. -1.
         -1    1    1    2    0  501  0.20978698486E+02  0.94301060130E+01  0.43187296613E+03  0.43248501889E+03  0.00000000000E+00 0.  1.
<mgrwt>
<rscale>  0 0.53517698E+02</rscale>
<asrwt>0</asrwt>
<pdfrwt beam="2">  1        2 0.43294284E-01 0.12452415E+03</pdfrwt>
<pdfrwt beam="1">  1       -2 0.94677311E-01 0.23000711E+02</pdfrwt>
<totfact> 0.12109745E+02</totfact>
</mgrwt>
</event>
<event>
 7    1  0.5277388E-004  0.7680721E+02  0.7546771E-02  0.1444261E+00
          2   -1    0    0  503    0  0.00000000000E+00  0.00000000000E+00  0.20404055687E+04  0.20404055687E+04  0.00000000000E+00 0. -1.
          1   -1    0    0  502    0 -0.00000000000E+00 -0.00000000000E+00 -0.46320970681E+03  0.46320970681E+03  0.00000000000E+00 0. -1.
         25    2    1    2    0    0 -0.10799059765E+03  0.11565786636E+02  0.12744954712E+04  0.12852076872E+04  0.12499742613E+03 0.  0.
          4    1    3    3  501    0 -0.14788076567E+02  0.59115923853E+02  0.47032134040E+03  0.47425431553E+03  0.12700000000E+01 0.  1.
         -4    1    3    3    0  501 -0.93202521082E+02 -0.47550137217E+02  0.80417413079E+03  0.81095337166E+03  0.12700000000E+01 0.  1.
          2    1    1    2  502    0  0.75322053259E+02 -0.14622362620E+02 -0.45428114104E+03  0.46071529202E+03  0.00000000000E+00 0. -1.
          1    1    1    2  503    0  0.32668544390E+02  0.30565759838E+01  0.75698153171E+03  0.75769229625E+03  0.00000000000E+00 0. -1.
<mgrwt>
<rscale>  0 0.50200981E+02</rscale>
<asrwt>0</asrwt>
<pdfrwt beam="1">  1        2 0.31390855E+00 0.32811224E+02</pdfrwt>
<pdfrwt beam="2">  1        1 0.71263033E-01 0.76807208E+02</pdfrwt>
<totfact> 0.63154097E+01</totfact>
</mgrwt>
</event>
<event>
 7    1  0.5277388E-004  0.1206526E+03  0.7546771E-02  0.1306777E+00
          1   -1    0    0  502    0 -0.00000000000E+00  0.00000000000E+00  0.23373519258E+03  0.23373519258E+03  0.00000000000E+00 0. -1.
          2   -1    0    0  503    0  0.00000000000E+00 -0.00000000000E+00 -0.17943339805E+04  0.17943339805E+04  0.00000000000E+00 0. -1.
         25    2    1    2    0    0  0.71723561175E+02  0.23050066465E+02 -0.48959992866E+03  0.51089423729E+03  0.12501702589E+03 0.  0.
          4    1    3    3  501    0  0.87097808849E+02  0.52529450555E+02 -0.43678295266E+03  0.44847110511E+03  0.12700000000E+01 0.  1.
         -4    1    3    3    0  501 -0.15374247673E+02 -0.29479384090E+02 -0.52816975998E+02  0.62423132182E+02  0.12700000000E+01 0.  1.
          2    1    1    2  502    0 -0.87227105401E+02 -0.85934193678E+02  0.20540295038E+03  0.23913097997E+03  0.00000000000E+00 0. -1.
          1    1    1    2  503    0  0.15503544226E+02  0.62884127214E+02 -0.12764018096E+04  0.12780439558E+04  0.00000000000E+00 0. -1.
<mgrwt>
<rscale>  0 0.88398612E+02</rscale>
<asrwt>0</asrwt>
<pdfrwt beam="2">  1        2 0.27605138E+00 0.64767070E+02</pdfrwt>
<pdfrwt beam="1">  1        1 0.35959260E-01 0.12065259E+03</pdfrwt>
<totfact> 0.17841099E+02</totfact>
</mgrwt>
</event>
<event>
 7    1  0.5277388E-004  0.1036421E+03  0.7546771E-02  0.1415748E+00
          2   -1    0    0  503    0  0.00000000000E+00  0.00000000000E+00  0.13362865741E+04  0.13362865741E+04  0.00000000000E+00 0. -1.
         -2   -1    0    0    0  501 -0.00000000000E+00 -0.00000000000E+00 -0.34569742865E+03  0.34569742865E+03  0.00000000000E+00 0.  1.
         25    2    1    2    0    0 -0.47854556035E+02  0.87234963488E+02  0.53125425252E+03  0.55475861353E+03  0.12500416426E+03 0.  0.
          4    1    3    3  502    0 -0.86208583751E+02  0.39448980582E+02  0.26231735313E+03  0.27892678006E+03  0.12700000000E+01 0. -1.
         -4    1    3    3    0  502  0.38354027715E+02  0.47785982906E+02  0.26893689939E+03  0.27583183347E+03  0.12700000000E+01 0. -1.
          1    1    1    2  503    0  0.22402141757E+02 -0.10345814796E+03  0.78905639929E+03  0.79612527004E+03  0.00000000000E+00 0. -1.
         -1    1    1    2    0  501  0.25452414278E+02  0.16223184471E+02 -0.32972150640E+03  0.33110011913E+03  0.00000000000E+00 0.  1.
<mgrwt>
<rscale>  0 0.55930620E+02</rscale>
<asrwt>0</asrwt>
<pdfrwt beam="1">  1        2 0.20558255E+00 0.10364205E+03</pdfrwt>
<pdfrwt beam="2">  1       -2 0.53184221E-01 0.30183060E+02</pdfrwt>
<totfact> 0.61536581E+01</totfact>
</mgrwt>
</event>
<event>
 7    1  0.5277388E-004  0.6936591E+02  0.7546771E-02  0.1424822E+00
          1   -1    0    0  502    0 -0.00000000000E+00  0.00000000000E+00  0.16334041524E+04  0.16334041524E+04  0.00000000000E+00 0. -1.
          2   -1    0    0  503    0  0.00000000000E+00 -0.00000000000E+00 -0.18903367260E+03  0.18903367260E+03  0.00000000000E+00 0. -1.
         25    2    1    2    0    0  0.88883395402E+02  0.21671720056E+02 -0.10780023911E+03  0.18872514039E+03  0.12500546242E+03 0.  0.
          4    1    3    3  501    0  0.66790582675E+02  0.27630679215E+02 -0.13501236943E+03  0.15314825878E+03  0.12700000000E+01 0. -1.
         -4    1    3    3    0  501  0.22092812727E+02 -0.59589591597E+01  0.27212130321E+02  0.35576881610E+02  0.12700000000E+01 0. -1.
          2    1    1    2  502    0 -0.67727042172E+02  0.14678966665E+02  0.15811300281E+04  0.15826479679E+04  0.00000000000E+00 0. -1.
          1    1    1    2  503    0 -0.21156353230E+02 -0.36350686721E+02 -0.28959309226E+02  0.51064716761E+02  0.00000000000E+00 0. -1.
<mgrwt>
<rscale>  0 0.54013558E+02</rscale>
<asrwt>0</asrwt>
<pdfrwt beam="2">  1        2 0.29082105E-01 0.42059050E+02</pdfrwt>
<pdfrwt beam="1">  1        1 0.25129294E+00 0.69365915E+02</pdfrwt>
<totfact> 0.15886228E+02</totfact>
</mgrwt>
</event>
<event>
 7    1  0.5277388E-004  0.5982746E+02  0.7546771E-02  0.1415157E+00
          2   -1    0    0  503    0  0.00000000000E+00  0.00000000000E+00  0.12318579404E+04  0.12318579404E+04  0.00000000000E+00 0. -1.
          1   -1    0    0  502    0 -0.00000000000E+00 -0.00000000000E+00 -0.10200496693E+04  0.10200496693E+04  0.00000000000E+00 0. -1.
         25    2    1    2    0    0  0.11002749551E+02  0.10676794257E+03 -0.44118371972E+02  0.17056629280E+03  0.12500390169E+03 0.  0.
          4    1    3    3  501    0  0.33949708407E+02  0.23401854924E+02 -0.69167419562E+02  0.80535547081E+02  0.12700000000E+01 0. -1.
         -4    1    3    3    0  501 -0.22946958856E+02  0.83366087645E+02  0.25049047590E+02  0.90030745721E+02  0.12700000000E+01 0. -1.
          2    1    1    2  502    0 -0.21087686783E+02 -0.48108982862E+02 -0.91119260753E+03  0.91270539211E+03  0.00000000000E+00 0. -1.
          1    1    1    2  503    0  0.10084937232E+02 -0.58658959706E+02  0.11671192506E+04  0.11686359247E+04  0.00000000000E+00 0. -1.
<mgrwt>
<rscale>  0 0.56058916E+02</rscale>
<asrwt>0</asrwt>
<pdfrwt beam="1">  1        2 0.18951661E+00 0.59827461E+02</pdfrwt>
<pdfrwt beam="2">  1        1 0.15693072E+00 0.52527752E+02</pdfrwt>
<totfact> 0.50001052E+01</totfact>
</mgrwt>
</event>
<event>
 7    1  0.5277388E-004  0.4192795E+02  0.7546771E-02  0.1511749E+00
          2   -1    0    0  503    0  0.00000000000E+00  0.00000000000E+00  0.16698406404E+04  0.16698406404E+04  0.00000000000E+00 0. -1.
         -2   -1    0    0    0  501 -0.00000000000E+00 -0.00000000000E+00 -0.89881012394E+02  0.89881012394E+02  0.00000000000E+00 0.  1.
         25    2    1    2    0    0 -0.19154853220E+02 -0.59895087739E+02  0.34233151170E+03  0.36982073367E+03  0.12498872433E+03 0.  0.
          4    1    3    3  502    0 -0.54656221161E+02 -0.55754800888E+01  0.25589232311E+03  0.26172673233E+03  0.12700000000E+01 0.  1.
         -4    1    3    3    0  502  0.35501367940E+02 -0.54319607650E+02  0.86439188595E+02  0.10809400134E+03  0.12700000000E+01 0.  1.
          1    1    1    2  503    0  0.33095160509E+02  0.25344805912E+02  0.13088549612E+04  0.13095185979E+04  0.00000000000E+00 0. -1.
         -1    1    1    2    0  501 -0.13940307289E+02  0.34550281827E+02 -0.71226844854E+02  0.80382321250E+02  0.00000000000E+00 0.  1.
<mgrwt>
<rscale>  0 0.39523320E+02</rscale>
<asrwt>0</asrwt>
<pdfrwt beam="1">  1        2 0.25689854E+00 0.41927951E+02</pdfrwt>
<pdfrwt beam="2">  1       -2 0.13827849E-01 0.37256599E+02</pdfrwt>
<totfact> 0.46332635E+02</totfact>
</mgrwt>
</event>
<event>
 7    1  0.5277388E-004  0.1615086E+03  0.7546771E-02  0.1314524E+00
          2   -1    0    0  503    0  0.00000000000E+00  0.00000000000E+00  0.18624703037E+04  0.18624703037E+04  0.00000000000E+00 0. -1.
          1   -1    0    0  502    0 -0.00000000000E+00 -0.00000000000E+00 -0.13623209568E+04  0.13623209568E+04  0.00000000000E+00 0. -1.
         25    2    1    2    0    0 -0.18521177376E+03 -0.26291670714E+02 -0.12608207081E+03  0.25790935547E+03  0.12500357583E+03 0.  0.
          4    1    3    3  501    0 -0.16843319143E+03 -0.58635200774E+02 -0.71238472962E+02  0.19205301267E+03  0.12700000000E+01 0.  1.
         -4    1    3    3    0  501 -0.16778582329E+02  0.32343530060E+02 -0.54843597850E+02  0.65856342799E+02  0.12700000000E+01 0.  1.
          2    1    1    2  502    0  0.15008303895E+03  0.54578823545E+02 -0.11645919841E+04  0.11754906447E+04  0.00000000000E+00 0. -1.
          1    1    1    2  503    0  0.35128734806E+02 -0.28287152831E+02  0.17908234018E+04  0.17913912603E+04  0.00000000000E+00 0. -1.
<mgrwt>
<rscale>  0 0.85348473E+02</rscale>
<asrwt>0</asrwt>
<pdfrwt beam="1">  1        2 0.28653389E+00 0.45102007E+02</pdfrwt>
<pdfrwt beam="2">  1        1 0.20958784E+00 0.16150860E+03</pdfrwt>
<totfact> 0.13403394E+01</totfact>
</mgrwt>
</event>
<event>
 7    1  0.5277388E-004  0.9822718E+02  0.7546771E-02  0.1381576E+00
          1   -1    0    0  502    0 -0.00000000000E+00  0.00000000000E+00  0.40568984797E+03  0.40568984797E+03  0.00000000000E+00 0. -1.
          2   -1    0    0  503    0  0.00000000000E+00 -0.00000000000E+00 -0.41982505876E+04  0.41982505876E+04  0.00000000000E+00 0. -1.
         25    2    1    2    0    0 -0.63958716640E+02 -0.91859822912E+02 -0.21342385580E+04  0.21408240207E+04  0.12499728251E+03 0.  0.
          4    1    3    3  501    0 -0.13218630774E+02 -0.62095651333E+02 -0.18210182739E+04  0.18221250695E+04  0.12700000000E+01 0. -1.
         -4    1    3    3    0  501 -0.50740085866E+02 -0.29764171579E+02 -0.31322028414E+03  0.31869895124E+03  0.12700000000E+01 0. -1.
          2    1    1    2  502    0  0.81928972991E+02  0.54157392255E+02  0.39618926036E+03  0.40818048676E+03  0.00000000000E+00 0. -1.
          1    1    1    2  503    0 -0.17970256351E+02  0.37702430657E+02 -0.20545114420E+04  0.20549359281E+04  0.00000000000E+00 0. -1.
<mgrwt>
<rscale>  0 0.64051245E+02</rscale>
<asrwt>0</asrwt>
<pdfrwt beam="2">  1        2 0.64588466E+00 0.41766055E+02</pdfrwt>
<pdfrwt beam="1">  1        1 0.62413827E-01 0.98227184E+02</pdfrwt>
<totfact> 0.39596350E+00</totfact>
</mgrwt>
</event>
<event>
 7    1  0.5277388E-004  0.3835203E+02  0.7546771E-02  0.1543847E+00
          2   -1    0    0  503    0  0.00000000000E+00  0.00000000000E+00  0.26822214454E+04  0.26822214454E+04  0.00000000000E+00 0. -1.
          1   -1    0    0  502    0 -0.00000000000E+00 -0.00000000000E+00 -0.16952631617E+02  0.16952631617E+02  0.00000000000E+00 0. -1.
         25    2    1    2    0    0 -0.54528874390E+02  0.44863645215E+02  0.58907117087E+03  0.60631365249E+03  0.12500102415E+03 0.  0.
          4    1    3    3  501    0 -0.18666203823E+02 -0.36575566315E+02  0.84541164876E+02  0.93994790680E+02  0.12700000000E+01 0. -1.
         -4    1    3    3    0  501 -0.35862670567E+02  0.81439211530E+02  0.50453000600E+03  0.51231886181E+03  0.12700000000E+01 0. -1.
          2    1    1    2  502    0  0.24795653472E+02 -0.21678728275E+02  0.25084511975E+02  0.41400778154E+02  0.00000000000E+00 0. -1.
          1    1    1    2  503    0  0.29733220918E+02 -0.23184916939E+02  0.20511131309E+04  0.20514596464E+04  0.00000000000E+00 0. -1.
<mgrwt>
<rscale>  0 0.35541094E+02</rscale>
<asrwt>0</asrwt>
<pdfrwt beam="1">  1        2 0.41264912E+00 0.38352035E+02</pdfrwt>
<pdfrwt beam="2">  1        1 0.26080993E-02 0.32936176E+02</pdfrwt>
<totfact> 0.18385992E+03</totfact>
</mgrwt>
</event>
<event>
 7    1  0.5277388E-004  0.9616274E+02  0.7546771E-02  0.1375868E+00
          1   -1    0    0  503    0  0.00000000000E+00  0.00000000000E+00  0.47226056566E+03  0.47226056566E+03  0.00000000000E+00 0. -1.
         -1   -1    0    0    0  501 -0.00000000000E+00 -0.00000000000E+00 -0.65351541079E+03  0.65351541079E+03  0.00000000000E+00 0.  1.
         25    2    1    2    0    0 -0.39407750071E+02  0.75444127052E+02 -0.15650187772E+03  0.21762968557E+03  0.12500022095E+03 0.  0.
          4    1    3    3  502    0  0.11120190350E+02  0.79714810923E+01  0.18696582633E+02  0.23202979256E+02  0.12700000000E+01 0. -1.
         -4    1    3    3    0  502 -0.50527940421E+02  0.67472645960E+02 -0.17519846036E+03  0.19442670631E+03  0.12700000000E+01 0. -1.
          2    1    1    2  503    0 -0.41239934364E+02 -0.17242939284E+02  0.43523750732E+03  0.43752684366E+03  0.00000000000E+00 0. -1.
         -2    1    1    2    0  501  0.80647684434E+02 -0.58201187767E+02 -0.45999047473E+03  0.47061944722E+03  0.00000000000E+00 0.  1.
<mgrwt>
<rscale>  0 0.65562432E+02</rscale>
<asrwt>0</asrwt>
<pdfrwt beam="1">  1        1 0.72655472E-01 0.44699565E+02</pdfrwt>
<pdfrwt beam="2">  1       -1 0.10054083E+00 0.96162735E+02</pdfrwt>
<totfact> 0.53321902E+01</totfact>
</mgrwt>
</event>
<event>
 7    1  0.5277388E-004  0.8838745E+02  0.7546771E-02  0.1358054E+00
         -2   -1    0    0    0  501 -0.00000000000E+00  0.00000000000E+00  0.57459700862E+02  0.57459700862E+02  0.00000000000E+00 0.  1.
          2   -1    0    0  503    0  0.00000000000E+00 -0.00000000000E+00 -0.29438071424E+04  0.29438071424E+04  0.00000000000E+00 0. -1.
         25    2    1    2    0    0 -0.48285982988E+02  0.26488737868E+02 -0.13414526840E+04  0.13483895253E+04  0.12500327653E+03 0.  0.
          4    1    3    3  502    0 -0.60263069636E+02  0.53469406158E+02 -0.50268613186E+03  0.50910271559E+03  0.12700000000E+01 0.  1.
         -4    1    3    3    0  502  0.11977086648E+02 -0.26980668290E+02 -0.83876655214E+03  0.83928680971E+03  0.12700000000E+01 0.  1.
          1    1    1    2  503    0 -0.40409964850E+02 -0.39340674039E+02 -0.15608307405E+04  0.15618493059E+04  0.00000000000E+00 0. -1.
         -1    1    1    2    0  501  0.88695947839E+02  0.12851936172E+02  0.15935982952E+02  0.91028012057E+02  0.00000000000E+00 0.  1.
<mgrwt>
<rscale>  0 0.70603205E+02</rscale>
<asrwt>0</asrwt>
<pdfrwt beam="2">  1        2 0.45289352E+00 0.56397286E+02</pdfrwt>
<pdfrwt beam="1">  1       -2 0.88399518E-02 0.88387453E+02</pdfrwt>
<totfact> 0.21604052E+02</totfact>
</mgrwt>
</event>
<event>
 7    1  0.5277388E-004  0.1232681E+03  0.7546771E-02  0.1287395E+00
          2   -1    0    0  503    0  0.00000000000E+00  0.00000000000E+00  0.16283985471E+04  0.16283985471E+04  0.00000000000E+00 0. -1.
          1   -1    0    0  502    0 -0.00000000000E+00 -0.00000000000E+00 -0.55927413113E+03  0.55927413113E+03  0.00000000000E+00 0. -1.
         25    2    1    2    0    0  0.16810684178E+03  0.10356983495E+03  0.40566249932E+01  0.23372905975E+03  0.12500478472E+03 0.  0.
          4    1    3    3  501    0  0.57941885045E+02 -0.69889333889E+01  0.43429619710E+02  0.72758862008E+02  0.12700000000E+01 0. -1.
         -4    1    3    3    0  501  0.11016495674E+03  0.11055876834E+03 -0.39372994716E+02  0.16097019775E+03  0.12700000000E+01 0. -1.
          2    1    1    2  502    0 -0.66039224165E+02 -0.37322976434E+02 -0.43872564104E+03  0.44523518707E+03  0.00000000000E+00 0. -1.
          1    1    1    2  503    0 -0.10206761762E+03 -0.66246858518E+02  0.15037934320E+04  0.15087084314E+04  0.00000000000E+00 0. -1.
<mgrwt>
<rscale>  0 0.96698846E+02</rscale>
<asrwt>0</asrwt>
<pdfrwt beam="1">  1        2 0.25052285E+00 0.12326811E+03</pdfrwt>
<pdfrwt beam="2">  1        1 0.86042175E-01 0.75856336E+02</pdfrwt>
<totfact> 0.68882343E+01</totfact>
</mgrwt>
</event>
<event>
 7    1  0.5277388E-004  0.5818814E+02  0.7546771E-02  0.1440824E+00
         -1   -1    0    0    0  501 -0.00000000000E+00  0.00000000000E+00  0.18995487230E+03  0.18995487230E+03  0.00000000000E+00 0.  1.
          1   -1    0    0  503    0  0.00000000000E+00 -0.00000000000E+00 -0.68950976753E+03  0.68950976753E+03  0.00000000000E+00 0. -1.
         25    2    1    2    0    0 -0.23643092239E+02  0.95682118806E+01 -0.17067546951E+02  0.12870882548E+03  0.12499645638E+03 0.  0.
          4    1    3    3  502    0  0.32190480060E+02 -0.12214553675E+02  0.35142629061E+02  0.49214221575E+02  0.12700000000E+01 0.  1.
         -4    1    3    3    0  502 -0.55833572299E+02  0.21782765556E+02 -0.52210176012E+02  0.79494603905E+02  0.12700000000E+01 0.  1.
          2    1    1    2  503    0 -0.36054548756E+02 -0.25967983399E+02 -0.60862479463E+03  0.61024454712E+03  0.00000000000E+00 0. -1.
         -2    1    1    2    0  501  0.59697640995E+02  0.16399771519E+02  0.12613744636E+03  0.14051126723E+03  0.00000000000E+00 0.  1.
<mgrwt>
<rscale>  0 0.50847392E+02</rscale>
<asrwt>0</asrwt>
<pdfrwt beam="2">  1        1 0.10607843E+00 0.44432720E+02</pdfrwt>
<pdfrwt beam="1">  1       -1 0.29223826E-01 0.58188137E+02</pdfrwt>
<totfact> 0.32527656E+02</totfact>
</mgrwt>
</event>
<event>
 7    1  0.5277388E-004  0.9019854E+02  0.7546771E-02  0.1341162E+00
         -2   -1    0    0    0  501 -0.00000000000E+00  0.00000000000E+00  0.48074368980E+03  0.48074368980E+03  0.00000000000E+00 0.  1.
          2   -1    0    0  503    0  0.00000000000E+00 -0.00000000000E+00 -0.13909358923E+04  0.13909358923E+04  0.00000000000E+00 0. -1.
         25    2    1    2    0    0 -0.10164163214E+03  0.10920962929E+03 -0.14032023527E+03  0.23994320037E+03  0.12500082585E+03 0.  0.
          4    1    3    3  502    0  0.14937808745E+02 -0.52601068221E+01 -0.51664080087E+02  0.54051798538E+02  0.12700000000E+01 0. -1.
         -4    1    3    3    0  502 -0.11657944088E+03  0.11446973611E+03 -0.88656155181E+02  0.18589140183E+03  0.12700000000E+01 0. -1.
          1    1    1    2  503    0  0.30415255190E+02 -0.56125892062E+02 -0.11953655108E+04  0.11970688818E+04  0.00000000000E+00 0. -1.
         -1    1    1    2    0  501  0.71226376949E+02 -0.53083737229E+02  0.42549354351E+03  0.43466749993E+03  0.00000000000E+00 0.  1.
<mgrwt>
<rscale>  0 0.75881706E+02</rscale>
<asrwt>0</asrwt>
<pdfrwt beam="2">  1        2 0.21399014E+00 0.63837321E+02</pdfrwt>
<pdfrwt beam="1">  1       -2 0.73960567E-01 0.90198544E+02</pdfrwt>
<totfact> 0.30476376E+01</totfact>
</mgrwt>
</event>
<event>
 7    1  0.5277388E-004  0.1433391E+03  0.7546771E-02  0.1319661E+00
          1   -1    0    0  502    0 -0.00000000000E+00  0.00000000000E+00  0.78178171222E+02  0.78178171222E+02  0.00000000000E+00 0. -1.
          2   -1    0    0  503    0  0.00000000000E+00 -0.00000000000E+00 -0.14984821055E+04  0.14984821055E+04  0.00000000000E+00 0. -1.
         25    2    1    2    0    0  0.10247106709E+03 -0.15080660968E+03 -0.28870922731E+03  0.36362036411E+03  0.12499519249E+03 0.  0.
          4    1    3    3  501    0 -0.28033651377E+02 -0.40548312093E+02 -0.78965484383E+02  0.93097861667E+02  0.12700000000E+01 0.  1.
         -4    1    3    3    0  501  0.13050471847E+03 -0.11025829759E+03 -0.20974374293E+03  0.27052250244E+03  0.12700000000E+01 0.  1.
          2    1    1    2  502    0 -0.90463395137E+01  0.47678525255E+02  0.20420804895E+02  0.52650615396E+02  0.00000000000E+00 0. -1.
          1    1    1    2  503    0 -0.93424727577E+02  0.10312808443E+03 -0.11520155118E+04  0.11603892972E+04  0.00000000000E+00 0. -1.
<mgrwt>
<rscale>  0 0.83403370E+02</rscale>
<asrwt>0</asrwt>
<pdfrwt beam="2">  1        2 0.23053567E+00 0.14333906E+03</pdfrwt>
<pdfrwt beam="1">  1        1 0.12027413E-01 0.48529146E+02</pdfrwt>
<totfact> 0.88914643E+02</totfact>
</mgrwt>
</event>
<event>
 7    1  0.5277388E-004  0.1234259E+03  0.7546771E-02  0.1365461E+00
          2   -1    0    0  503    0  0.00000000000E+00  0.00000000000E+00  0.52155146100E+03  0.52155146100E+03  0.00000000000E+00 0. -1.
          1   -1    0    0  502    0 -0.00000000000E+00 -0.00000000000E+00 -0.86528003479E+03  0.86528003479E+03  0.00000000000E+00 0. -1.
         25    2    1    2    0    0  0.56912426841E+02 -0.14779032255E+03 -0.16796792438E+03  0.26252437639E+03  0.12499928324E+03 0.  0.
          4    1    3    3  501    0  0.89849212729E+02 -0.13805356765E+03 -0.15376038410E+03  0.22533427877E+03  0.12700000000E+01 0.  1.
         -4    1    3    3    0  501 -0.32936785888E+02 -0.97367549037E+01 -0.14207540277E+02  0.37190097625E+02  0.12700000000E+01 0.  1.
          2    1    1    2  502    0 -0.22493034340E+02  0.30573468001E+02 -0.64159666837E+03  0.64271841300E+03  0.00000000000E+00 0. -1.
          3    1    1    2  503    0 -0.34419392501E+02  0.11721685455E+03  0.46583601896E+03  0.48158870640E+03  0.00000000000E+00 0. -1.
<mgrwt>
<rscale>  0 0.68445446E+02</rscale>
<asrwt>0</asrwt>
<pdfrwt beam="1">  1        2 0.80238687E-01 0.12342591E+03</pdfrwt>
<pdfrwt beam="2">  1        1 0.13312000E+00 0.37956206E+02</pdfrwt>
<totfact> 0.18672731E+02</totfact>
</mgrwt>
</event>
<event>
 7    1  0.5277388E-004  0.4762441E+02  0.7546771E-02  0.1464102E+00
          2   -1    0    0  503    0  0.00000000000E+00  0.00000000000E+00  0.34580049847E+03  0.34580049847E+03  0.00000000000E+00 0. -1.
          1   -1    0    0  502    0 -0.00000000000E+00 -0.00000000000E+00 -0.61314309194E+03  0.61314309194E+03  0.00000000000E+00 0. -1.
         25    2    1    2    0    0 -0.96135659572E+01 -0.45624108175E+01  0.15128917807E+03  0.19652944152E+03  0.12498867844E+03 0.  0.
          4    1    3    3  501    0 -0.57616668404E+02 -0.35737289493E+02  0.74407119993E+02  0.10067207529E+03  0.12700000000E+01 0. -1.
         -4    1    3    3    0  501  0.48003102447E+02  0.31174878676E+02  0.76882058077E+02  0.95857366222E+02  0.12700000000E+01 0. -1.
          2    1    1    2  502    0 -0.36379238711E+02  0.30734922056E+02 -0.58546017640E+03  0.58739399264E+03  0.00000000000E+00 0. -1.
          1    1    1    2  503    0  0.45992804668E+02 -0.26172511239E+02  0.16682840486E+03  0.17502015625E+03  0.00000000000E+00 0. -1.
<mgrwt>
<rscale>  0 0.46682804E+02</rscale>
<asrwt>0</asrwt>
<pdfrwt beam="1">  1        2 0.53200077E-01 0.45759814E+02</pdfrwt>
<pdfrwt beam="2">  1        1 0.94329706E-01 0.47624410E+02</pdfrwt>
<totfact> 0.46139939E+02</totfact>
</mgrwt>
</event>
<event>
 7    1  0.5277388E-004  0.7141588E+02  0.7546771E-02  0.1403072E+00
          1   -1    0    0  502    0 -0.00000000000E+00  0.00000000000E+00  0.13709986698E+04  0.13709986698E+04  0.00000000000E+00 0. -1.
          2   -1    0    0  503    0  0.00000000000E+00 -0.00000000000E+00 -0.47417806361E+03  0.47417806361E+03  0.00000000000E+00 0. -1.
         25    2    1    2    0    0  0.10752857131E+03 -0.51522305611E+02 -0.87477604162E+02  0.19363543431E+03  0.12500163426E+03 0.  0.
          4    1    3    3  501    0  0.63626319839E+02 -0.19166078531E+01  0.20555500880E+02  0.66903837546E+02  0.12700000000E+01 0.  1.
         -4    1    3    3    0  501  0.43902251474E+02 -0.49605697758E+02 -0.10803310504E+03  0.12673159677E+03  0.12700000000E+01 0.  1.
          2    1    1    2  502    0 -0.62505774882E+02  0.33865283368E+02  0.13152021400E+04  0.13171220514E+04  0.00000000000E+00 0. -1.
          1    1    1    2  503    0 -0.45022796431E+02  0.17657022243E+02 -0.33090392958E+03  0.33441924772E+03  0.00000000000E+00 0. -1.
<mgrwt>
<rscale>  0 0.58768787E+02</rscale>
<asrwt>0</asrwt>
<pdfrwt beam="2">  1        2 0.72950472E-01 0.48361375E+02</pdfrwt>
<pdfrwt beam="1">  1        1 0.21092287E+00 0.71415884E+02</pdfrwt>
<totfact> 0.90552226E+01</totfact>
</mgrwt>
</event>
<event>
 7    1  0.5277388E-004  0.6432811E+02  0.7546771E-02  0.1452686E+00
          1   -1    0    0  503    0  0.00000000000E+00  0.00000000000E+00  0.88796065903E+03  0.88796065903E+03  0.00000000000E+00 0. -1.
         -1   -1    0    0    0  501 -0.00000000000E+00 -0.00000000000E+00 -0.28259854215E+02  0.28259854215E+02  0.00000000000E+00 0.  1.
         25    2    1    2    0    0 -0.82880592355E+02 -0.21338723805E+02  0.44514201659E+03  0.47021442952E+03  0.12500264423E+03 0.  0.
          4    1    3    3  502    0 -0.29810306420E+02  0.19106010610E+02  0.36139898301E+03  0.36313156271E+03  0.12700000000E+01 0.  1.
         -4    1    3    3    0  502 -0.53070285935E+02 -0.40444734415E+02  0.83743033581E+02  0.10708286681E+03  0.12700000000E+01 0.  1.
          2    1    1    2  503    0  0.33206866481E+02 -0.15891572675E+02  0.36424214103E+03  0.36609776750E+03  0.00000000000E+00 0. -1.
         -2    1    1    2    0  501  0.49673725874E+02  0.37230296481E+02  0.50316647189E+02  0.79908316229E+02  0.00000000000E+00 0.  1.
<mgrwt>
<rscale>  0 0.48663606E+02</rscale>
<asrwt>0</asrwt>
<pdfrwt beam="1">  1        1 0.13660931E+00 0.36813558E+02</pdfrwt>
<pdfrwt beam="2">  1       -1 0.43476706E-02 0.64328107E+02</pdfrwt>
<totfact> 0.41377303E+03</totfact>
</mgrwt>
</event>
<event>
 7    1  0.5277388E-004  0.1057173E+03  0.7546771E-02  0.1462409E+00
          2   -1    0    0  503    0  0.00000000000E+00  0.00000000000E+00  0.12084719193E+04  0.12084719193E+04  0.00000000000E+00 0.  1.
         -2   -1    0    0    0  501 -0.00000000000E+00 -0.00000000000E+00 -0.19045056422E+02  0.19045056422E+02  0.00000000000E+00 0. -1.
         25    2    1    2    0    0  0.52309239276E+02 -0.86465140637E+02  0.77272412817E+03  0.78926545033E+03  0.12499958306E+03 0.  0.
          4    1    3    3  502    0  0.18587119152E+01 -0.29106373829E+01 -0.45694169297E+01  0.58667785910E+01  0.12700000000E+01 0.  1.
         -4    1    3    3    0  502  0.50450527361E+02 -0.83554503254E+02  0.77729354510E+03  0.78339867174E+03  0.12700000000E+01 0.  1.
          1    1    1    2  503    0 -0.72975319696E+02  0.83568752263E+02  0.38172996367E+03  0.39752597249E+03  0.00000000000E+00 0. -1.
         -1    1    1    2    0  501  0.20666080420E+02  0.28963883735E+01  0.34972771057E+02  0.40725552924E+02  0.00000000000E+00 0.  1.
<mgrwt>
<rscale>  0 0.46969308E+02</rscale>
<asrwt>0</asrwt>
<pdfrwt beam="1">  1        2 0.18591870E+00 0.10571734E+03</pdfrwt>
<pdfrwt beam="2">  1       -2 0.29300096E-02 0.20868060E+02</pdfrwt>
<totfact> 0.66023642E+03</totfact>
</mgrwt>
</event>
<event>
 7    1  0.5277388E-004  0.8083619E+02  0.7546771E-02  0.1423951E+00
          2   -1    0    0  503    0  0.00000000000E+00  0.00000000000E+00  0.35717261886E+03  0.35717261886E+03  0.00000000000E+00 0. -1.
          1   -1    0    0  502    0 -0.00000000000E+00 -0.00000000000E+00 -0.10153092726E+04  0.10153092726E+04  0.00000000000E+00 0. -1.
         25    2    1    2    0    0  0.24280418934E+02 -0.10614168760E+03  0.32043357420E+02  0.16883606096E+03  0.12499296835E+03 0.  0.
          4    1    3    3  501    0 -0.20904330101E+02 -0.77044498624E+01  0.53896886420E+02  0.58333839496E+02  0.12700000000E+01 0. -1.
         -4    1    3    3    0  501  0.45184749035E+02 -0.98437237742E+02 -0.21853529000E+02  0.11050222147E+03  0.12700000000E+01 0. -1.
          2    1    1    2  502    0 -0.23655563879E+02  0.27575914486E+02 -0.94054287983E+03  0.94124434955E+03  0.00000000000E+00 0. -1.
          1    1    1    2  503    0 -0.62485505514E+00  0.78565773118E+02  0.25036286871E+03  0.26240148090E+03  0.00000000000E+00 0. -1.
<mgrwt>
<rscale>  0 0.54193571E+02</rscale>
<asrwt>0</asrwt>
<pdfrwt beam="1">  1        2 0.54949635E-01 0.80836185E+02</pdfrwt>
<pdfrwt beam="2">  1        1 0.15620142E+00 0.36332035E+02</pdfrwt>
<totfact> 0.22011962E+02</totfact>
</mgrwt>
</event>
<event>
 7    1  0.5277388E-004  0.9991730E+02  0.7546771E-02  0.1353677E+00
          2   -1    0    0  503    0  0.00000000000E+00  0.00000000000E+00  0.37991307428E+04  0.37991307428E+04  0.00000000000E+00 0. -1.
         -2   -1    0    0    0  501 -0.00000000000E+00 -0.00000000000E+00 -0.15705261639E+03  0.15705261639E+03  0.00000000000E+00 0.  1.
         25    2    1    2    0    0 -0.23707666851E+02 -0.13310483193E+03  0.42512644602E+03  0.46328756441E+03  0.12499568985E+03 0.  0.
          4    1    3    3  502    0 -0.59661923790E+02 -0.21954325149E+02  0.10802681102E+03  0.12535127579E+03  0.12700000000E+01 0.  1.
         -4    1    3    3    0  502  0.35954256939E+02 -0.11115050678E+03  0.31709963500E+03  0.33793628862E+03  0.12700000000E+01 0.  1.
          1    1    1    2  503    0 -0.14156799649E+02  0.97799907637E+02  0.33493128738E+04  0.33507703537E+04  0.00000000000E+00 0. -1.
         -1    1    1    2    0  501  0.37864466500E+02  0.35304924290E+02 -0.13236119335E+03  0.14212544110E+03  0.00000000000E+00 0.  1.
<mgrwt>
<rscale>  0 0.71921768E+02</rscale>
<asrwt>0</asrwt>
<pdfrwt beam="1">  1        2 0.58448159E+00 0.99917304E+02</pdfrwt>
<pdfrwt beam="2">  1       -2 0.24161944E-01 0.51770218E+02</pdfrwt>
<totfact> 0.11108811E+01</totfact>
</mgrwt>
</event>
<event>
 7    1  0.5427983E-004  0.7810148E+02  0.7546771E-02  0.1444174E+00
          1   -1    0    0  502    0 -0.00000000000E+00  0.00000000000E+00  0.14239726406E+04  0.14239726406E+04  0.00000000000E+00 0. -1.
          2   -1    0    0  503    0  0.00000000000E+00 -0.00000000000E+00 -0.12432412133E+04  0.12432412133E+04  0.00000000000E+00 0. -1.
         25    2    1    2    0    0 -0.18766152785E+02 -0.46815578425E+02  0.10882241548E+03  0.17323622127E+03  0.12499841350E+03 0.  0.
          4    1    3    3  501    0  0.60715715382E+01  0.40843774939E+02  0.49650638467E+02  0.64590066824E+02  0.12700000000E+01 0.  1.
         -4    1    3    3    0  501 -0.24837724324E+02 -0.87659353364E+02  0.59171777009E+02  0.10864615445E+03  0.12700000000E+01 0.  1.
          2    1    1    2  502    0  0.91675249860E+01 -0.30959534653E+02  0.12814720161E+04  0.12818787245E+04  0.00000000000E+00 0. -1.
          1    1    1    2  503    0  0.95986277994E+01  0.77775113077E+02 -0.12095630043E+04  0.12120989082E+04  0.00000000000E+00 0. -1.
<mgrwt>
<rscale>  0 0.50217193E+02</rscale>
<asrwt>0</asrwt>
<pdfrwt beam="2">  1        2 0.19126788E+00 0.78101482E+02</pdfrwt>
<pdfrwt beam="1">  1        1 0.21907272E+00 0.32288331E+02</pdfrwt>
<totfact> 0.27631435E+01</totfact>
</mgrwt>
</event>
<event>
 7    1  0.5277388E-004  0.4900836E+02  0.7546771E-02  0.1499806E+00
          2   -1    0    0  503    0  0.00000000000E+00  0.00000000000E+00  0.49255370569E+03  0.49255370569E+03  0.00000000000E+00 0. -1.
          1   -1    0    0  502    0 -0.00000000000E+00 -0.00000000000E+00 -0.56388693373E+02  0.56388693373E+02  0.00000000000E+00 0. -1.
         25    2    1    2    0    0 -0.34709013670E+02  0.51740690538E+02  0.15442629616E+03  0.20821582003E+03  0.12499812830E+03 0.  0.
          4    1    3    3  501    0 -0.36985963035E+02  0.79083621911E+02  0.50812621954E+02  0.10102334466E+03  0.12700000000E+01 0. -1.
         -4    1    3    3    0  501  0.22769493651E+01 -0.27342931373E+02  0.10361367420E+03  0.10719247537E+03  0.12700000000E+01 0. -1.
          2    1    1    2  502    0  0.44798653483E+02 -0.18667799547E+02 -0.77784208763E+01  0.49151906628E+02  0.00000000000E+00 0. -1.
          1    1    1    2  503    0 -0.10089639813E+02 -0.33072890991E+02  0.28951713703E+03  0.29157467240E+03  0.00000000000E+00 0. -1.
<mgrwt>
<rscale>  0 0.41165472E+02</rscale>
<asrwt>0</asrwt>
<pdfrwt beam="1">  1        2 0.75777490E-01 0.34577694E+02</pdfrwt>
<pdfrwt beam="2">  1        1 0.86751839E-02 0.49008360E+02</pdfrwt>
<totfact> 0.60873989E+03</totfact>
</mgrwt>
</event>
<event>
 7    1  0.5277388E-004  0.9027131E+02  0.7546771E-02  0.1347513E+00
          2   -1    0    0  503    0  0.00000000000E+00  0.00000000000E+00  0.28808265585E+03  0.28808265585E+03  0.00000000000E+00 0. -1.
          1   -1    0    0  502    0 -0.00000000000E+00 -0.00000000000E+00 -0.11298485585E+04  0.11298485585E+04  0.00000000000E+00 0. -1.
         25    2    1    2    0    0 -0.31788501460E+02 -0.78205412579E+01  0.11676211287E+03  0.17415489096E+03  0.12499946142E+03 0.  0.
          4    1    3    3  501    0  0.11654700371E+02 -0.25481738587E+02  0.12360294029E+03  0.12674561448E+03  0.12700000000E+01 0.  1.
         -4    1    3    3    0  501 -0.43443201830E+02  0.17661197329E+02 -0.68408274247E+01  0.47409276479E+02  0.12700000000E+01 0.  1.
          2    1    1    2  502    0  0.90930886002E+02 -0.44075156907E+01 -0.10927801295E+04  0.10965656678E+04  0.00000000000E+00 0. -1.
          1    1    1    2  503    0 -0.59142384543E+02  0.12228056949E+02  0.13425211399E+03  0.14721065565E+03  0.00000000000E+00 0. -1.
<mgrwt>
<rscale>  0 0.73836166E+02</rscale>
<asrwt>0</asrwt>
<pdfrwt beam="1">  1        2 0.44320409E-01 0.60393270E+02</pdfrwt>
<pdfrwt beam="2">  1        1 0.17382285E+00 0.90271307E+02</pdfrwt>
<totfact> 0.21444548E+02</totfact>
</mgrwt>
</event>
<event>
 7    1  0.5277388E-004  0.1474872E+03  0.7546771E-02  0.1312037E+00
          1   -1    0    0  502    0 -0.00000000000E+00  0.00000000000E+00  0.36460715319E+03  0.36460715319E+03  0.00000000000E+00 0. -1.
          2   -1    0    0  503    0  0.00000000000E+00 -0.00000000000E+00 -0.65893274451E+03  0.65893274451E+03  0.00000000000E+00 0. -1.
         25    2    1    2    0    0 -0.10164353733E+03 -0.15976989733E+03 -0.45043245505E+02  0.23132697062E+03  0.12500177836E+03 0.  0.
          4    1    3    3  501    0 -0.11047419107E+03 -0.14547301036E+03 -0.74589750576E+02  0.19731241072E+03  0.12700000000E+01 0. -1.
         -4    1    3    3    0  501  0.88306537399E+01 -0.14296886977E+02  0.29546505071E+02  0.34014559892E+02  0.12700000000E+01 0. -1.
          2    1    1    2  502    0  0.63040000183E+02  0.12719448808E+03  0.25154869353E+03  0.28884117545E+03  0.00000000000E+00 0. -1.
          3    1    1    2  503    0  0.38603537148E+02  0.32575409257E+02 -0.50083103935E+03  0.50337175163E+03  0.00000000000E+00 0. -1.
<mgrwt>
<rscale>  0 0.86312035E+02</rscale>
<asrwt>0</asrwt>
<pdfrwt beam="2">  1        2 0.10137427E+00 0.50511290E+02</pdfrwt>
<pdfrwt beam="1">  1        1 0.56093408E-01 0.14748717E+03</pdfrwt>
<totfact> 0.44300181E+02</totfact>
</mgrwt>
</event>
<event>
 7    1  0.5277388E-004  0.8300242E+02  0.7546771E-02  0.1399907E+00
          2   -1    0    0  503    0  0.00000000000E+00  0.00000000000E+00  0.10291957802E+04  0.10291957802E+04  0.00000000000E+00 0. -1.
          1   -1    0    0  502    0 -0.00000000000E+00 -0.00000000000E+00 -0.62109514099E+03  0.62109514099E+03  0.00000000000E+00 0. -1.
         25    2    1    2    0    0 -0.12078477641E+03  0.82908511054E+01 -0.75127021316E+02  0.18949790875E+03  0.12493073145E+03 0.  0.
          4    1    3    3  501    0 -0.19931265675E+02 -0.40514298414E+02  0.12935084486E+02  0.46985029936E+02  0.12700000000E+01 0. -1.
         -4    1    3    3    0  501 -0.10085351074E+03  0.48805149520E+02 -0.88062105802E+02  0.14251287881E+03  0.12700000000E+01 0. -1.
          2    1    1    2  502    0  0.38802773385E+02 -0.17736454955E+02 -0.48609504014E+03  0.48796375389E+03  0.00000000000E+00 0. -1.
          1    1    1    2  503    0  0.81982003029E+02  0.94456038493E+01  0.96932270067E+03  0.97282925855E+03  0.00000000000E+00 0. -1.
<mgrwt>
<rscale>  0 0.59508276E+02</rscale>
<asrwt>0</asrwt>
<pdfrwt beam="1">  1        2 0.15833781E+00 0.83002420E+02</pdfrwt>
<pdfrwt beam="2">  1        1 0.95553098E-01 0.42664236E+02</pdfrwt>
<totfact> 0.13130571E+02</totfact>
</mgrwt>
</event>
<event>
 7    1  0.5277388E-004  0.7931660E+02  0.7546771E-02  0.1367485E+00
          2   -1    0    0  503    0  0.00000000000E+00  0.00000000000E+00  0.10475973606E+04  0.10475973606E+04  0.00000000000E+00 0. -1.
          1   -1    0    0  502    0 -0.00000000000E+00 -0.00000000000E+00 -0.23919373322E+03  0.23919373322E+03  0.00000000000E+00 0. -1.
         25    2    1    2    0    0  0.53862614909E+02  0.12315948551E+03  0.68160998701E+02  0.19580312428E+03  0.12499400617E+03 0.  0.
          4    1    3    3  501    0  0.85623939800E+02  0.60700185342E+02  0.11331040144E+02  0.10557450894E+03  0.12700000000E+01 0.  1.
         -4    1    3    3    0  501 -0.31761324892E+02  0.62459300172E+02  0.56829958557E+02  0.90228615342E+02  0.12700000000E+01 0.  1.
          2    1    1    2  502    0 -0.32223885789E+02 -0.48318122338E+02 -0.16885215049E+03  0.17856110575E+03  0.00000000000E+00 0. -1.
          1    1    1    2  503    0 -0.21638729120E+02 -0.74841363175E+02  0.90909477917E+03  0.91242686379E+03  0.00000000000E+00 0. -1.
<mgrwt>
<rscale>  0 0.67871395E+02</rscale>
<asrwt>0</asrwt>
<pdfrwt beam="1">  1        2 0.16116882E+00 0.79316605E+02</pdfrwt>
<pdfrwt beam="2">  1        1 0.36799036E-01 0.58077705E+02</pdfrwt>
<totfact> 0.41205770E+02</totfact>
</mgrwt>
</event>
<event>
 7    1  0.5277388E-004  0.6997521E+02  0.7546771E-02  0.1389663E+00
          2   -1    0    0  503    0  0.00000000000E+00  0.00000000000E+00  0.67378356796E+03  0.67378356796E+03  0.00000000000E+00 0. -1.
          1   -1    0    0  502    0 -0.00000000000E+00 -0.00000000000E+00 -0.18717607190E+03  0.18717607190E+03  0.00000000000E+00 0. -1.
         25    2    1    2    0    0 -0.12427882104E+01 -0.35278673434E+02 -0.49961953533E+02  0.13916668504E+03  0.12500016041E+03 0.  0.
          4    1    3    3  501    0  0.13703608315E+01 -0.29377323344E+02  0.39611695494E+02  0.49351842272E+02  0.12700000000E+01 0. -1.
         -4    1    3    3    0  501 -0.26131490418E+01 -0.59013500902E+01 -0.89573649027E+02  0.89814842765E+02  0.12700000000E+01 0. -1.
          2    1    1    2  502    0 -0.26475579313E+02  0.82687237663E+02 -0.70748135018E+02  0.11199747399E+03  0.00000000000E+00 0. -1.
          3    1    1    2  503    0  0.27718367524E+02 -0.47408564229E+02  0.60731758461E+03  0.60979548083E+03  0.00000000000E+00 0. -1.
<mgrwt>
<rscale>  0 0.61990569E+02</rscale>
<asrwt>0</asrwt>
<pdfrwt beam="1">  1        2 0.10365901E+00 0.54917027E+02</pdfrwt>
<pdfrwt beam="2">  1        1 0.28796319E-01 0.69975214E+02</pdfrwt>
<totfact> 0.97361396E+02</totfact>
</mgrwt>
</event>
<event>
 7    1  0.5277388E-004  0.9291200E+02  0.7546771E-02  0.1383156E+00
          2   -1    0    0  503    0  0.00000000000E+00  0.00000000000E+00  0.34649817029E+04  0.34649817029E+04  0.00000000000E+00 0. -1.
          1   -1    0    0  502    0 -0.00000000000E+00 -0.00000000000E+00 -0.11261071766E+02  0.11261071766E+02  0.00000000000E+00 0. -1.
         25    2    1    2    0    0 -0.97129183180E+02  0.21007137141E+02  0.25876566760E+04  0.25925792305E+04  0.12499846180E+03 0.  0.
          4    1    3    3  501    0 -0.13707043270E+02 -0.34968868318E+00  0.18287061275E+04  0.18287579717E+04  0.12700000000E+01 0. -1.
         -4    1    3    3    0  501 -0.83422139910E+02  0.21356825824E+02  0.75895054853E+03  0.76382125884E+03  0.12700000000E+01 0. -1.
          2    1    1    2  502    0  0.86697646509E+01 -0.42721260337E+02  0.70404357763E+02  0.82807273206E+02  0.00000000000E+00 0. -1.
          1    1    1    2  503    0  0.88459418529E+02  0.21714123195E+02  0.79565959731E+03  0.80085627092E+03  0.00000000000E+00 0. -1.
<mgrwt>
<rscale>  0 0.63641409E+02</rscale>
<asrwt>0</asrwt>
<pdfrwt beam="1">  1        2 0.53307326E+00 0.92912001E+02</pdfrwt>
<pdfrwt beam="2">  1        1 0.17324753E-02 0.43592097E+02</pdfrwt>
<totfact> 0.10168852E+03</totfact>
</mgrwt>
</event>
<event>
 7    1  0.5277388E-004  0.8802145E+02  0.7546771E-02  0.1412173E+00
         -2   -1    0    0    0  501 -0.00000000000E+00  0.00000000000E+00  0.12836731906E+03  0.12836731906E+03  0.00000000000E+00 0.  1.
          2   -1    0    0  503    0  0.00000000000E+00 -0.00000000000E+00 -0.18868296644E+03  0.18868296644E+03  0.00000000000E+00 0. -1.
         25    2    1    2    0    0  0.68080026792E+02  0.81901942685E+02 -0.68495697692E+02  0.17792923793E+03  0.12499733934E+03 0.  0.
          4    1    3    3  502    0  0.17728515534E+02  0.23755244613E+02 -0.92661090844E+02  0.97294925695E+02  0.12700000000E+01 0. -1.
         -4    1    3    3    0  502  0.50351511258E+02  0.58146698072E+02  0.24165393152E+02  0.80634312230E+02  0.12700000000E+01 0. -1.
          1    1    1    2  503    0 -0.32648053304E+02 -0.72975415312E+02 -0.30817949764E+02  0.85679943114E+02  0.00000000000E+00 0. -1.
         -1    1    1    2    0  501 -0.35431973488E+02 -0.89265273735E+01  0.38998000076E+02  0.53441104462E+02  0.00000000000E+00 0.  1.
<mgrwt>
<rscale>  0 0.56711787E+02</rscale>
<asrwt>0</asrwt>
<pdfrwt beam="2">  1        2 0.29028149E-01 0.88021452E+02</pdfrwt>
<pdfrwt beam="1">  1       -2 0.19748818E-01 0.36539125E+02</pdfrwt>
<totfact> 0.35093277E+03</totfact>
</mgrwt>
</event>
<event>
 7    1  0.5277388E-004  0.8335511E+02  0.7546771E-02  0.1369844E+00
          1   -1    0    0  502    0 -0.00000000000E+00  0.00000000000E+00  0.37793744793E+03  0.37793744793E+03  0.00000000000E+00 0. -1.
          2   -1    0    0  503    0  0.00000000000E+00 -0.00000000000E+00 -0.26121651050E+03  0.26121651050E+03  0.00000000000E+00 0. -1.
         25    2    1    2    0    0 -0.20105829851E+02  0.71674352079E+02 -0.24760859442E+02  0.14757431425E+03  0.12499448358E+03 0.  0.
          4    1    3    3  501    0  0.35754950317E+02  0.77701746072E+02  0.14681749369E+01  0.85555515617E+02  0.12700000000E+01 0. -1.
         -4    1    3    3    0  501 -0.55860780168E+02 -0.60273939930E+01 -0.26229034379E+02  0.62018798632E+02  0.12700000000E+01 0. -1.
          2    1    1    2  502    0 -0.50402127917E+02 -0.19911957470E+02  0.30304835072E+03  0.30785575100E+03  0.00000000000E+00 0. -1.
          1    1    1    2  503    0  0.70507957768E+02 -0.51762394610E+02 -0.16156655385E+03  0.18372389319E+03  0.00000000000E+00 0. -1.
<mgrwt>
<rscale>  0 0.67210470E+02</rscale>
<asrwt>0</asrwt>
<pdfrwt beam="2">  1        2 0.40187156E-01 0.83355106E+02</pdfrwt>
<pdfrwt beam="1">  1        1 0.58144223E-01 0.54192809E+02</pdfrwt>
<totfact> 0.11315372E+03</totfact>
</mgrwt>
</event>
<event>
 7    1  0.6901847E-004  0.6527492E+02  0.7546771E-02  0.1423320E+00
          2   -1    0    0  503    0  0.00000000000E+00  0.00000000000E+00  0.18735897176E+04  0.18735897176E+04  0.00000000000E+00 0. -1.
          1   -1    0    0  502    0 -0.00000000000E+00 -0.00000000000E+00 -0.66226528332E+03  0.66226528332E+03  0.00000000000E+00 0. -1.
         25    2    1    2    0    0 -0.78994974020E+02  0.66495477140E+02 -0.17311629433E+02  0.16305299370E+03  0.12499892735E+03 0.  0.
          4    1    3    3  501    0 -0.10111044247E+03  0.76151990728E+02 -0.36999946499E+02  0.13188273659E+03  0.12700000000E+01 0. -1.
         -4    1    3    3    0  501  0.22115468450E+02 -0.96565135873E+01  0.19688317066E+02  0.31170257110E+02  0.12700000000E+01 0. -1.
          2    1    1    2  502    0  0.58966105471E+02 -0.25962688011E+02 -0.56998398747E+03  0.57361381498E+03  0.00000000000E+00 0. -1.
          1    1    1    2  503    0  0.20028868549E+02 -0.40532789129E+02  0.17986200512E+04  0.17991881923E+04  0.00000000000E+00 0. -1.
<mgrwt>
<rscale>  0 0.54324621E+02</rscale>
<asrwt>0</asrwt>
<pdfrwt beam="1">  1        2 0.28824457E+00 0.45211310E+02</pdfrwt>
<pdfrwt beam="2">  1        1 0.10188697E+00 0.65274915E+02</pdfrwt>
<totfact> 0.46081822E+01</totfact>
</mgrwt>
</event>
<event>
 7    1  0.5277388E-004  0.3400023E+02  0.7546771E-02  0.1581538E+00
          2   -1    0    0  503    0  0.00000000000E+00  0.00000000000E+00  0.51303213153E+03  0.51303213153E+03  0.00000000000E+00 0. -1.
          1   -1    0    0  502    0 -0.00000000000E+00 -0.00000000000E+00 -0.56433492959E+03  0.56433492959E+03  0.00000000000E+00 0. -1.
         25    2    1    2    0    0 -0.27223795285E+01  0.24524656427E+02 -0.11823608447E+03  0.17381763024E+03  0.12499570708E+03 0.  0.
          4    1    3    3  501    0  0.21003316033E+00  0.54400935977E+02 -0.13047972629E+03  0.14137212533E+03  0.12700000000E+01 0. -1.
         -4    1    3    3    0  501 -0.29324126888E+01 -0.29876279550E+02  0.12243641817E+02  0.32445504910E+02  0.12700000000E+01 0. -1.
          2    1    1    2  502    0 -0.27767838587E+02 -0.92894822679E+01 -0.41719576419E+03  0.41822201401E+03  0.00000000000E+00 0. -1.
          1    1    1    2  503    0  0.30490218115E+02 -0.15235174159E+02  0.48412905060E+03  0.48532741687E+03  0.00000000000E+00 0. -1.
<mgrwt>
<rscale>  0 0.31552233E+02</rscale>
<asrwt>0</asrwt>
<pdfrwt beam="1">  1        2 0.78928020E-01 0.34000226E+02</pdfrwt>
<pdfrwt beam="2">  1        1 0.86820758E-01 0.29280494E+02</pdfrwt>
<totfact> 0.34826237E+02</totfact>
</mgrwt>
</event>
<event>
 7    1  0.5277388E-004  0.1432947E+03  0.7546771E-02  0.1270738E+00
          1   -1    0    0  502    0 -0.00000000000E+00  0.00000000000E+00  0.19116711720E+03  0.19116711720E+03  0.00000000000E+00 0. -1.
          2   -1    0    0  503    0  0.00000000000E+00 -0.00000000000E+00 -0.23375142065E+04  0.23375142065E+04  0.00000000000E+00 0. -1.
         25    2    1    2    0    0 -0.10038262215E+03  0.72344088667E+02 -0.12200185024E+04  0.12326312926E+04  0.12499767773E+03 0.  0.
          4    1    3    3  501    0 -0.98938949586E+02 -0.40330349821E+01 -0.73208735225E+03  0.73875482086E+03  0.12700000000E+01 0. -1.
         -4    1    3    3    0  501 -0.14436725653E+01  0.76377123650E+02 -0.48793115011E+03  0.49387647176E+03  0.12700000000E+01 0. -1.
          2    1    1    2  502    0  0.54449950692E+02 -0.13349605689E+03  0.15519308651E+03  0.21182749688E+03  0.00000000000E+00 0. -1.
          1    1    1    2  503    0  0.45932671459E+02  0.61151968219E+02 -0.10815216735E+04  0.10842225342E+04  0.00000000000E+00 0. -1.
<mgrwt>
<rscale>  0 0.10468691E+03</rscale>
<asrwt>0</asrwt>
<pdfrwt beam="2">  1        2 0.35961759E+00 0.76481197E+02</pdfrwt>
<pdfrwt beam="1">  1        1 0.29410324E-01 0.14329469E+03</pdfrwt>
<totfact> 0.12046434E+02</totfact>
</mgrwt>
</event>
<event>
 7    1  0.5277388E-004  0.1500082E+03  0.7546771E-02  0.1274259E+00
          2   -1    0    0  503    0  0.00000000000E+00  0.00000000000E+00  0.28021452373E+04  0.28021452373E+04  0.00000000000E+00 0. -1.
          1   -1    0    0  502    0 -0.00000000000E+00 -0.00000000000E+00 -0.48600268883E+03  0.48600268883E+03  0.00000000000E+00 0. -1.
         25    2    1    2    0    0 -0.63318205023E+02 -0.11341434691E+03 -0.13065988844E+03  0.22264317107E+03  0.12500386397E+03 0.  0.
          4    1    3    3  501    0 -0.55524048766E+02 -0.13412997478E+03 -0.76445523960E+02  0.16407102474E+03  0.12700000000E+01 0.  1.
         -4    1    3    3    0  501 -0.77941562567E+01  0.20715627877E+02 -0.54214364479E+02  0.58572146332E+02  0.12700000000E+01 0.  1.
          2    1    1    2  502    0 -0.63046381706E+02  0.31821962494E+02 -0.30323831966E+03  0.31135343591E+03  0.00000000000E+00 0. -1.
          1    1    1    2  503    0  0.12636458673E+03  0.81592384412E+02  0.27500407566E+04  0.27541513192E+04  0.00000000000E+00 0. -1.
<mgrwt>
<rscale>  0 0.10292665E+03</rscale>
<asrwt>0</asrwt>
<pdfrwt beam="1">  1        2 0.43109926E+00 0.15000819E+03</pdfrwt>
<pdfrwt beam="2">  1        1 0.74769646E-01 0.70622118E+02</pdfrwt>
<totfact> 0.19592398E+01</totfact>
</mgrwt>
</event>
<event>
 7    1  0.5277388E-004  0.7283368E+02  0.7546771E-02  0.1364003E+00
          1   -1    0    0  502    0 -0.00000000000E+00  0.00000000000E+00  0.93268345951E+03  0.93268345951E+03  0.00000000000E+00 0. -1.
          2   -1    0    0  503    0  0.00000000000E+00 -0.00000000000E+00 -0.14190278863E+04  0.14190278863E+04  0.00000000000E+00 0. -1.
         25    2    1    2    0    0 -0.21705158461E+02 -0.12160708198E+03 -0.53669448816E+03  0.56473904758E+03  0.12501928631E+03 0.  0.
          4    1    3    3  501    0  0.12677229252E+02  0.25442819041E+01 -0.20077855135E+00  0.12993795594E+02  0.12700000000E+01 0. -1.
         -4    1    3    3    0  501 -0.34382387713E+02 -0.12415136388E+03 -0.53649370961E+03  0.55174525198E+03  0.12700000000E+01 0. -1.
          2    1    1    2  502    0 -0.18445921049E+02  0.70352709198E+02  0.91599719639E+03  0.91888008983E+03  0.00000000000E+00 0. -1.
          1    1    1    2  503    0  0.40151079510E+02  0.51254372779E+02 -0.86564713505E+03  0.86809220843E+03  0.00000000000E+00 0. -1.
<mgrwt>
<rscale>  0 0.68862858E+02</rscale>
<asrwt>0</asrwt>
<pdfrwt beam="2">  1        2 0.21831198E+00 0.65108524E+02</pdfrwt>
<pdfrwt beam="1">  1        1 0.14348976E+00 0.72833677E+02</pdfrwt>
<totfact> 0.44970152E+01</totfact>
</mgrwt>
</event>
<event>
 7    1  0.5277388E-004  0.1958644E+03  0.7546771E-02  0.1262000E+00
          2   -1    0    0  503    0  0.00000000000E+00  0.00000000000E+00  0.89925440020E+03  0.89925440020E+03  0.00000000000E+00 0. -1.
          1   -1    0    0  502    0 -0.00000000000E+00 -0.00000000000E+00 -0.68953390919E+03  0.68953390919E+03  0.00000000000E+00 0. -1.
         25    2    1    2    0    0 -0.18631313510E+03  0.96454804347E+02  0.52086330831E+03  0.57527336830E+03  0.12499899495E+03 0.  0.
          4    1    3    3  501    0 -0.16803729354E+03  0.25025127229E+02  0.34454797278E+03  0.38415844057E+03  0.12700000000E+01 0. -1.
         -4    1    3    3    0  501 -0.18275841552E+02  0.71429677119E+02  0.17631533553E+03  0.19111492773E+03  0.12700000000E+01 0. -1.
          2    1    1    2  502    0  0.51300981087E+02  0.32849713764E+02 -0.63589122331E+03  0.63880242817E+03  0.00000000000E+00 0. -1.
          1    1    1    2  503    0  0.13501215401E+03 -0.12930451811E+03  0.32474840601E+03  0.37471251292E+03  0.00000000000E+00 0. -1.
<mgrwt>
<rscale>  0 0.10923137E+03</rscale>
<asrwt>0</asrwt>
<pdfrwt beam="1">  1        2 0.13834683E+00 0.19586437E+03</pdfrwt>
<pdfrwt beam="2">  1        1 0.10608214E+00 0.60917111E+02</pdfrwt>
<totfact> 0.12959030E+02</totfact>
</mgrwt>
</event>
<event>
 7    1  0.5277388E-004  0.4244412E+02  0.7546771E-02  0.1518751E+00
          2   -1    0    0  503    0  0.00000000000E+00  0.00000000000E+00  0.10826244652E+03  0.10826244652E+03  0.00000000000E+00 0. -1.
          1   -1    0    0  502    0 -0.00000000000E+00 -0.00000000000E+00 -0.28483175607E+04  0.28483175607E+04  0.00000000000E+00 0. -1.
         25    2    1    2    0    0  0.40627350454E+01 -0.64907884514E+01 -0.17922820020E+03  0.21865067060E+03  0.12500692723E+03 0.  0.
          4    1    3    3  501    0  0.16312964591E+02  0.54466665891E+02 -0.11988639541E+03  0.13269171493E+03  0.12700000000E+01 0.  1.
         -4    1    3    3    0  501 -0.12250229546E+02 -0.60957454342E+02 -0.59341804789E+02  0.85958955667E+02  0.12700000000E+01 0.  1.
          2    1    1    2  502    0 -0.20384232944E+02  0.37576033399E+02 -0.26457185112E+04  0.26460638533E+04  0.00000000000E+00 0. -1.
          1    1    1    2  503    0  0.16321497899E+02 -0.31085244947E+02  0.84891597220E+02  0.91865483320E+02  0.00000000000E+00 0. -1.
<mgrwt>
<rscale>  0 0.38603055E+02</rscale>
<asrwt>0</asrwt>
<pdfrwt beam="1">  1        2 0.16655762E-01 0.35109596E+02</pdfrwt>
<pdfrwt beam="2">  1        1 0.43820267E+00 0.42444117E+02</pdfrwt>
<totfact> 0.53438418E+01</totfact>
</mgrwt>
</event>
<event>
 7    1  0.5277388E-004  0.2368768E+03  0.7546771E-02  0.1216789E+00
          1   -1    0    0  502    0 -0.00000000000E+00  0.00000000000E+00  0.72193182289E+02  0.72193182289E+02  0.00000000000E+00 0. -1.
          2   -1    0    0  503    0  0.00000000000E+00 -0.00000000000E+00 -0.24575174707E+04  0.24575174707E+04  0.00000000000E+00 0. -1.
         25    2    1    2    0    0 -0.16973990769E+03 -0.11235671246E+03 -0.10944807672E+04  0.11202429919E+04  0.12498217503E+03 0.  0.
          4    1    3    3  501    0 -0.84852149947E+02 -0.28253223604E+02 -0.75626874480E+03  0.76153933533E+03  0.12700000000E+01 0.  1.
         -4    1    3    3    0  501 -0.84887757746E+02 -0.84103488858E+02 -0.33821202235E+03  0.35870365654E+03  0.12700000000E+01 0.  1.
          2    1    1    2  502    0  0.15606029799E+03  0.19094272036E+03 -0.20496357723E+03  0.32066182664E+03  0.00000000000E+00 0. -1.
          1    1    1    2  503    0  0.13679609701E+02 -0.78586007901E+02 -0.10858799440E+04  0.10888058345E+04  0.00000000000E+00 0. -1.
<mgrwt>
<rscale>  0 0.13745956E+03</rscale>
<asrwt>0</asrwt>
<pdfrwt beam="2">  1        2 0.37807958E+00 0.79767740E+02</pdfrwt>
<pdfrwt beam="1">  1        1 0.11106644E-01 0.23687683E+03</pdfrwt>
<totfact> 0.37098502E+02</totfact>
</mgrwt>
</event>
<event>
 7    1  0.5277388E-004  0.7407049E+02  0.7546771E-02  0.1372641E+00
          1   -1    0    0  502    0 -0.00000000000E+00  0.00000000000E+00  0.17917716160E+04  0.17917716160E+04  0.00000000000E+00 0. -1.
          2   -1    0    0  503    0  0.00000000000E+00 -0.00000000000E+00 -0.16420240638E+03  0.16420240638E+03  0.00000000000E+00 0. -1.
         25    2    1    2    0    0  0.88346890103E+02 -0.74967597660E+02 -0.42005946378E+02  0.17554111152E+03  0.12499947445E+03 0.  0.
          4    1    3    3  501    0  0.11019055893E+03 -0.68721118093E+02 -0.63212270748E+02  0.14443668309E+03  0.12700000000E+01 0.  1.
         -4    1    3    3    0  501 -0.21843668823E+02 -0.62464795671E+01  0.21206324370E+02  0.31104428429E+02  0.12700000000E+01 0.  1.
          2    1    1    2  502    0 -0.29181868200E+02  0.67841574266E+02  0.17079548370E+04  0.17095507555E+04  0.00000000000E+00 0. -1.
          1    1    1    2  503    0 -0.59165021904E+02  0.71260233948E+01 -0.38379681004E+02  0.70882155302E+02  0.00000000000E+00 0. -1.
<mgrwt>
<rscale>  0 0.66438350E+02</rscale>
<asrwt>0</asrwt>
<pdfrwt beam="2">  1        2 0.25261910E-01 0.59592617E+02</pdfrwt>
<pdfrwt beam="1">  1        1 0.27565716E+00 0.74070491E+02</pdfrwt>
<totfact> 0.14753953E+02</totfact>
</mgrwt>
</event>
<event>
 7    1  0.5277388E-004  0.7447390E+02  0.7546771E-02  0.1442597E+00
         -2   -1    0    0    0  501 -0.00000000000E+00  0.00000000000E+00  0.54762826375E+02  0.54762826375E+02  0.00000000000E+00 0.  1.
          2   -1    0    0  503    0  0.00000000000E+00 -0.00000000000E+00 -0.22943764958E+04  0.22943764958E+04  0.00000000000E+00 0. -1.
         25    2    1    2    0    0 -0.61971450610E+02 -0.31449853368E+02 -0.13909498966E+03  0.19950530617E+03  0.12500158829E+03 0.  0.
          4    1    3    3  502    0 -0.67478822628E+02 -0.59636106038E+02 -0.44148660623E+02  0.10030241164E+03  0.12700000000E+01 0. -1.
         -4    1    3    3    0  502  0.55073720186E+01  0.28186252670E+02 -0.94946329033E+02  0.99202894529E+02  0.12700000000E+01 0. -1.
          1    1    1    2  503    0  0.14689229922E+02 -0.30951637213E+02 -0.20621708066E+04  0.20624553845E+04  0.00000000000E+00 0. -1.
         -1    1    1    2    0  501  0.47282220688E+02  0.62401490582E+02 -0.38347873171E+02  0.87178631537E+02  0.00000000000E+00 0.  1.
<mgrwt>
<rscale>  0 0.50512455E+02</rscale>
<asrwt>0</asrwt>
<pdfrwt beam="2">  1        2 0.35298101E+00 0.34260434E+02</pdfrwt>
<pdfrwt beam="1">  1       -2 0.84250500E-02 0.74473898E+02</pdfrwt>
<totfact> 0.53796658E+02</totfact>
</mgrwt>
</event>
<event>
 7    1  0.5277388E-004  0.8453268E+02  0.7546771E-02  0.1324324E+00
          2   -1    0    0  503    0  0.00000000000E+00  0.00000000000E+00  0.28744951387E+03  0.28744951387E+03  0.00000000000E+00 0. -1.
          1   -1    0    0  502    0 -0.00000000000E+00 -0.00000000000E+00 -0.25275898565E+03  0.25275898565E+03  0.00000000000E+00 0. -1.
         25    2    1    2    0    0 -0.20960599360E+02 -0.91687461252E+01  0.17962615931E+02  0.12834148353E+03  0.12500187275E+03 0.  0.
          4    1    3    3  501    0 -0.41233470903E+02  0.24996861545E+02 -0.36802834067E+02  0.60672099891E+02  0.12700000000E+01 0.  1.
         -4    1    3    3    0  501  0.20272871543E+02 -0.34165607670E+02  0.54765449998E+02  0.67669383635E+02  0.12700000000E+01 0.  1.
          2    1    1    2  502    0  0.44103726112E+02  0.84642548308E+02 -0.17787386177E+03  0.20186285032E+03  0.00000000000E+00 0. -1.
          1    1    1    2  503    0 -0.23143126752E+02 -0.75473802183E+02  0.19460177406E+03  0.21000416567E+03  0.00000000000E+00 0. -1.
<mgrwt>
<rscale>  0 0.81689721E+02</rscale>
<asrwt>0</asrwt>
<pdfrwt beam="1">  1        2 0.44223002E-01 0.78942379E+02</pdfrwt>
<pdfrwt beam="2">  1        1 0.38885998E-01 0.84532675E+02</pdfrwt>
<totfact> 0.16665009E+03</totfact>
</mgrwt>
</event>
<event>
 7    1  0.5277388E-004  0.1142158E+03  0.7546771E-02  0.1319334E+00
          1   -1    0    0  502    0 -0.00000000000E+00  0.00000000000E+00  0.20568315237E+03  0.20568315237E+03  0.00000000000E+00 0. -1.
          2   -1    0    0  503    0  0.00000000000E+00 -0.00000000000E+00 -0.27594604752E+04  0.27594604752E+04  0.00000000000E+00 0. -1.
         25    2    1    2    0    0 -0.79712435647E+02 -0.67989921180E+02 -0.58837339089E+03  0.61056171010E+03  0.12500261181E+03 0.  0.
          4    1    3    3  501    0 -0.70252563964E+02 -0.28216984654E+02 -0.54759366703E+03  0.55280381514E+03  0.12700000000E+01 0. -1.
         -4    1    3    3    0  501 -0.94598716823E+01 -0.39772936527E+02 -0.40779723865E+02  0.57757894964E+02  0.12700000000E+01 0. -1.
          2    1    1    2  502    0  0.42784091757E+02 -0.43595310008E+02  0.18815316792E+03  0.19781972642E+03  0.00000000000E+00 0. -1.
          1    1    1    2  503    0  0.36928343890E+02  0.11158523119E+03 -0.21535570998E+04  0.21567621910E+04  0.00000000000E+00 0. -1.
<mgrwt>
<rscale>  0 0.83525721E+02</rscale>
<asrwt>0</asrwt>
<pdfrwt beam="2">  1        2 0.42453239E+00 0.11421578E+03</pdfrwt>
<pdfrwt beam="1">  1        1 0.31643561E-01 0.61082154E+02</pdfrwt>
<totfact> 0.61338655E+01</totfact>
</mgrwt>
</event>
<event>
 7    1  0.5277388E-004  0.2613525E+03  0.7546771E-02  0.1218076E+00
          1   -1    0    0  502    0 -0.00000000000E+00  0.00000000000E+00  0.32607853999E+03  0.32607853999E+03  0.00000000000E+00 0. -1.
          2   -1    0    0  503    0  0.00000000000E+00 -0.00000000000E+00 -0.51850300248E+03  0.51850300248E+03  0.00000000000E+00 0. -1.
         25    2    1    2    0    0  0.10712764388E+03 -0.27791562761E+03  0.52131882898E+02  0.32719349891E+03  0.12499769743E+03 0.  0.
          4    1    3    3  501    0  0.17954478802E+02 -0.17095537866E+03 -0.15079800985E+02  0.17256047664E+03  0.12700000000E+01 0.  1.
         -4    1    3    3    0  501  0.89173165081E+02 -0.10696024896E+03  0.67211683883E+02  0.15463302228E+03  0.12700000000E+01 0.  1.
          2    1    1    2  502    0  0.30573630799E+02  0.64437853166E+02  0.78730171041E+02  0.10623287463E+03  0.00000000000E+00 0. -1.
          1    1    1    2  503    0 -0.13770127468E+03  0.21347777445E+03 -0.32328651643E+03  0.41115516893E+03  0.00000000000E+00 0. -1.
<mgrwt>
<rscale>  0 0.13653010E+03</rscale>
<asrwt>0</asrwt>
<pdfrwt beam="2">  1        2 0.79769692E-01 0.26135249E+03</pdfrwt>
<pdfrwt beam="1">  1        1 0.50165930E-01 0.71323095E+02</pdfrwt>
<totfact> 0.64524095E+02</totfact>
</mgrwt>
</event>
<event>
 7    1  0.5277388E-004  0.8364929E+02  0.7546771E-02  0.1406328E+00
          2   -1    0    0  503    0  0.00000000000E+00  0.00000000000E+00  0.91154560614E+02  0.91154560614E+02  0.00000000000E+00 0. -1.
          1   -1    0    0  502    0 -0.00000000000E+00 -0.00000000000E+00 -0.94480246841E+03  0.94480246841E+03  0.00000000000E+00 0. -1.
         25    2    1    2    0    0  0.11516997465E+03 -0.17929549182E+02 -0.44109426665E+03  0.47304642259E+03  0.12499269605E+03 0.  0.
          4    1    3    3  501    0  0.80135170370E+01 -0.56156963707E+02 -0.13210154651E+03  0.14377152889E+03  0.12700000000E+01 0. -1.
         -4    1    3    3    0  501  0.10715645761E+03  0.38227414525E+02 -0.30899272014E+03  0.32927489371E+03  0.12700000000E+01 0. -1.
          2    1    1    2  502    0 -0.74942067018E+02  0.19108049624E+02 -0.47901258466E+03  0.48521591815E+03  0.00000000000E+00 0. -1.
          1    1    1    2  503    0 -0.40227907627E+02 -0.11785004416E+01  0.66458943504E+02  0.77694688281E+02  0.00000000000E+00 0. -1.
<mgrwt>
<rscale>  0 0.58021370E+02</rscale>
<asrwt>0</asrwt>
<pdfrwt beam="1">  1        2 0.14023779E-01 0.40245166E+02</pdfrwt>
<pdfrwt beam="2">  1        1 0.14535422E+00 0.83649285E+02</pdfrwt>
<totfact> 0.98463485E+02</totfact>
</mgrwt>
</event>
<event>
 7    1  0.5277388E-004  0.6738522E+02  0.7546771E-02  0.1398860E+00
          2   -1    0    0  503    0  0.00000000000E+00  0.00000000000E+00  0.33421893480E+04  0.33421893480E+04  0.00000000000E+00 0. -1.
          1   -1    0    0  502    0 -0.00000000000E+00 -0.00000000000E+00 -0.43109194193E+02  0.43109194193E+02  0.00000000000E+00 0. -1.
         25    2    1    2    0    0  0.10510432543E+02 -0.11158399754E+03  0.19871600452E+04  0.19942396067E+04  0.12500042383E+03 0.  0.
          4    1    3    3  501    0 -0.54656501504E+02 -0.44520598722E+02  0.10711994260E+04  0.10735172286E+04  0.12700000000E+01 0.  1.
         -4    1    3    3    0  501  0.65166934047E+02 -0.67063398820E+02  0.91596061917E+03  0.92072237810E+03  0.12700000000E+01 0.  1.
          2    1    1    2  502    0 -0.62191821749E+01  0.52623755641E+02 -0.20874926326E+02  0.56953493605E+02  0.00000000000E+00 0. -1.
          1    1    1    2  503    0 -0.42912503683E+01  0.58960241901E+02  0.13327950350E+04  0.13341054419E+04  0.00000000000E+00 0. -1.
<mgrwt>
<rscale>  0 0.59755681E+02</rscale>
<asrwt>0</asrwt>
<pdfrwt beam="1">  1        2 0.51418277E+00 0.67385219E+02</pdfrwt>
<pdfrwt beam="2">  1        1 0.66321863E-02 0.52989979E+02</pdfrwt>
<totfact> 0.22015142E+02</totfact>
</mgrwt>
</event>
<event>
 7    1  0.5277388E-004  0.1805741E+03  0.7546771E-02  0.1234619E+00
          2   -1    0    0  503    0  0.00000000000E+00  0.00000000000E+00  0.12656180617E+04  0.12656180617E+04  0.00000000000E+00 0. -1.
          1   -1    0    0  502    0 -0.00000000000E+00 -0.00000000000E+00 -0.15456077954E+03  0.15456077954E+03  0.00000000000E+00 0. -1.
         25    2    1    2    0    0 -0.10146307769E+03  0.16696415501E+03  0.13906338308E+03  0.27043591849E+03  0.12500070522E+03 0.  0.
          4    1    3    3  501    0 -0.71335525476E+01  0.12908870203E+03  0.65374168648E+02  0.14487986537E+03  0.12700000000E+01 0.  1.
         -4    1    3    3    0  501 -0.94329525147E+02  0.37875452983E+02  0.73689214428E+02  0.12555605312E+03  0.12700000000E+01 0.  1.
          2    1    1    2  502    0  0.15216236332E+03 -0.96350559582E+02  0.63708199931E+01  0.18021487866E+03  0.00000000000E+00 0. -1.
          1    1    1    2  503    0 -0.50699285621E+02 -0.70613595428E+02  0.96562307904E+03  0.96952804405E+03  0.00000000000E+00 0. -1.
<mgrwt>
<rscale>  0 0.12528835E+03</rscale>
<asrwt>0</asrwt>
<pdfrwt beam="1">  1        2 0.19471046E+00 0.86929267E+02</pdfrwt>
<pdfrwt beam="2">  1        1 0.23778582E-01 0.18057406E+03</pdfrwt>
<totfact> 0.54412299E+02</totfact>
</mgrwt>
</event>
<event>
 7    1  0.5277388E-004  0.5594065E+02  0.7546771E-02  0.1511744E+00
          2   -1    0    0  503    0  0.00000000000E+00  0.00000000000E+00  0.29685103195E+03  0.29685103195E+03  0.00000000000E+00 0. -1.
          1   -1    0    0  502    0 -0.00000000000E+00 -0.00000000000E+00 -0.11650356128E+04  0.11650356128E+04  0.00000000000E+00 0. -1.
         25    2    1    2    0    0  0.58377446979E+02  0.25870459451E+02 -0.91315157223E+02  0.16745960255E+03  0.12500821397E+03 0.  0.
          4    1    3    3  501    0 -0.35901635713E+02 -0.68620645247E+01 -0.79771466592E+01  0.37433449550E+02  0.12700000000E+01 0.  1.
         -4    1    3    3    0  501  0.94279082692E+02  0.32732523975E+02 -0.83338010564E+02  0.13002615300E+03  0.12700000000E+01 0.  1.
          2    1    1    2  502    0 -0.25093191295E+01 -0.27812080227E+02 -0.10324382319E+04  0.10328158166E+04  0.00000000000E+00 0. -1.
          1    1    1    2  503    0 -0.55868127849E+02  0.19416207758E+01  0.25556880823E+03  0.26161122557E+03  0.00000000000E+00 0. -1.
<mgrwt>
<rscale>  0 0.39523988E+02</rscale>
<asrwt>0</asrwt>
<pdfrwt beam="1">  1        2 0.45669389E-01 0.55940655E+02</pdfrwt>
<pdfrwt beam="2">  1        1 0.17923625E+00 0.27925051E+02</pdfrwt>
<totfact> 0.21607631E+02</totfact>
</mgrwt>
</event>
<event>
 7    1  0.5277388E-004  0.1159165E+03  0.7546771E-02  0.1448314E+00
          2   -1    0    0  503    0  0.00000000000E+00  0.00000000000E+00  0.44001670431E+03  0.44001670431E+03  0.00000000000E+00 0. -1.
          1   -1    0    0  502    0 -0.00000000000E+00 -0.00000000000E+00 -0.23062289936E+04  0.23062289936E+04  0.00000000000E+00 0. -1.
         25    2    1    2    0    0  0.28033195428E+02  0.11733982907E+03 -0.92846184633E+03  0.94457369109E+03  0.12499424900E+03 0.  0.
          4    1    3    3  501    0  0.25611833421E+02  0.13219533282E+03 -0.91329226181E+03  0.92316625827E+03  0.12700000000E+01 0. -1.
         -4    1    3    3    0  501  0.24213620072E+01 -0.14855503746E+02 -0.15169584524E+02  0.21407432825E+02  0.12700000000E+01 0. -1.
          2    1    1    2  502    0 -0.21032692955E+02 -0.16591863520E+01 -0.13618547602E+04  0.13620181771E+04  0.00000000000E+00 0. -1.
          1    1    1    2  503    0 -0.70005024731E+01 -0.11568064272E+03  0.42410431717E+03  0.43965382971E+03  0.00000000000E+00 0. -1.
<mgrwt>
<rscale>  0 0.49453111E+02</rscale>
<asrwt>0</asrwt>
<pdfrwt beam="1">  1        2 0.67694877E-01 0.11591649E+03</pdfrwt>
<pdfrwt beam="2">  1        1 0.35480446E+00 0.21098035E+02</pdfrwt>
<totfact> 0.30686977E+01</totfact>
</mgrwt>
</event>
<event>
 7    1  0.5277388E-004  0.1731676E+03  0.7546771E-02  0.1232365E+00
          1   -1    0    0  503    0  0.00000000000E+00  0.00000000000E+00  0.10284101748E+04  0.10284101748E+04  0.00000000000E+00 0. -1.
         -1   -1    0    0    0  501 -0.00000000000E+00 -0.00000000000E+00 -0.15227505869E+04  0.15227505869E+04  0.00000000000E+00 0.  1.
         25    2    1    2    0    0 -0.23555317656E+03  0.47586648711E+02 -0.27394272252E+02  0.27225981869E+03  0.12500069840E+03 0.  0.
          4    1    3    3  502    0 -0.14005354417E+03  0.52285653100E+02  0.40613345730E+02  0.15491882231E+03  0.12700000000E+01 0.  1.
         -4    1    3    3    0  502 -0.95499632386E+02 -0.46990043885E+01 -0.68007617981E+02  0.11734099638E+03  0.12700000000E+01 0.  1.
          2    1    1    2  503    0  0.16923943073E+03  0.17287625011E+02  0.89640108570E+03  0.91240109236E+03  0.00000000000E+00 0. -1.
         -2    1    1    2    0  501  0.66313745828E+02 -0.64874273722E+02 -0.13633472256E+04  0.13664998506E+04  0.00000000000E+00 0.  1.
<mgrwt>
<rscale>  0 0.12674649E+03</rscale>
<asrwt>0</asrwt>
<pdfrwt beam="1">  1        1 0.15821695E+00 0.17316756E+03</pdfrwt>
<pdfrwt beam="2">  1       -1 0.23426932E+00 0.92769522E+02</pdfrwt>
<totfact> 0.17696820E+00</totfact>
</mgrwt>
</event>
<event>
 7    1  0.5277388E-004  0.7876411E+02  0.7546771E-02  0.1363646E+00
         -2   -1    0    0    0  501 -0.00000000000E+00  0.00000000000E+00  0.58186255326E+02  0.58186255326E+02  0.00000000000E+00 0.  1.
          2   -1    0    0  503    0  0.00000000000E+00 -0.00000000000E+00 -0.14892163756E+04  0.14892163756E+04  0.00000000000E+00 0. -1.
         25    2    1    2    0    0  0.29940567567E+02  0.71517823768E+02 -0.45323664780E+03  0.47650740316E+03  0.12499843861E+03 0.  0.
          4    1    3    3  502    0  0.18514521976E+02  0.65457714480E+02 -0.88942934893E+02  0.11198195603E+03  0.12700000000E+01 0. -1.
         -4    1    3    3    0  502  0.11426045591E+02  0.60601092881E+01 -0.36429371291E+03  0.36452544713E+03  0.12700000000E+01 0. -1.
          1    1    1    2  503    0  0.44469204988E+02 -0.40853530513E+02 -0.98793450676E+03  0.98977831396E+03  0.00000000000E+00 0. -1.
         -1    1    1    2    0  501 -0.74409772555E+02 -0.30664293255E+02  0.10141034262E+02  0.81116913825E+02  0.00000000000E+00 0.  1.
<mgrwt>
<rscale>  0 0.68965815E+02</rscale>
<asrwt>0</asrwt>
<pdfrwt beam="2">  1        2 0.22911020E+00 0.60386432E+02</pdfrwt>
<pdfrwt beam="1">  1       -2 0.89517320E-02 0.78764112E+02</pdfrwt>
<totfact> 0.11396504E+03</totfact>
</mgrwt>
</event>
<event>
 7    1  0.5277388E-004  0.6541712E+02  0.7546771E-02  0.1448056E+00
          1   -1    0    0  503    0  0.00000000000E+00  0.00000000000E+00  0.20801198060E+04  0.20801198060E+04  0.00000000000E+00 0. -1.
         -1   -1    0    0    0  501 -0.00000000000E+00 -0.00000000000E+00 -0.29861661234E+02  0.29861661234E+02  0.00000000000E+00 0.  1.
         25    2    1    2    0    0 -0.25637611105E+02 -0.47976095710E+02  0.14490527777E+04  0.14554509668E+04  0.12499828519E+03 0.  0.
          4    1    3    3  502    0  0.48793640955E+02 -0.33416485195E+02  0.73673787596E+03  0.73910878202E+03  0.12700000000E+01 0. -1.
         -4    1    3    3    0  502 -0.74431252060E+02 -0.14559610515E+02  0.71231490174E+03  0.71634218478E+03  0.12700000000E+01 0. -1.
          2    1    1    2  503    0 -0.33012012071E+02  0.17696475846E+02  0.58548182564E+03  0.58667872499E+03  0.00000000000E+00 0. -1.
         -2    1    1    2    0  501  0.58649623175E+02  0.30279619864E+02  0.15723541423E+02  0.67851775456E+02  0.00000000000E+00 0.  1.
<mgrwt>
<rscale>  0 0.49500193E+02</rscale>
<asrwt>0</asrwt>
<pdfrwt beam="1">  1        1 0.32001832E+00 0.37456084E+02</pdfrwt>
<pdfrwt beam="2">  1       -1 0.45941034E-02 0.65417120E+02</pdfrwt>
<totfact> 0.67664166E+02</totfact>
</mgrwt>
</event>
<event>
 7    1  0.5277388E-004  0.1354694E+03  0.7546771E-02  0.1304982E+00
         -2   -1    0    0    0  501 -0.00000000000E+00  0.00000000000E+00  0.18493731316E+03  0.18493731316E+03  0.00000000000E+00 0.  1.
          2   -1    0    0  503    0  0.00000000000E+00 -0.00000000000E+00 -0.61436855458E+03  0.61436855458E+03  0.00000000000E+00 0. -1.
         25    2    1    2    0    0 -0.85604886327E+01 -0.97323141633E+02 -0.29889218338E+03  0.33838241180E+03  0.12498417288E+03 0.  0.
          4    1    3    3  502    0 -0.35302126088E+02 -0.10003378710E+03 -0.13206138771E+03  0.16939545948E+03  0.12700000000E+01 0.  1.
         -4    1    3    3    0  502  0.26741637455E+02  0.27106454706E+01 -0.16683079567E+03  0.16898695232E+03  0.12700000000E+01 0.  1.
          1    1    1    2  503    0  0.45202137337E+02 -0.37350190790E+02 -0.26242665948E+03  0.26889779021E+03  0.00000000000E+00 0. -1.
         -1    1    1    2    0  501 -0.36641648705E+02  0.13467333242E+03  0.13188760144E+03  0.19202566573E+03  0.00000000000E+00 0.  1.
<mgrwt>
<rscale>  0 0.89126233E+02</rscale>
<asrwt>0</asrwt>
<pdfrwt beam="2">  1        2 0.94518239E-01 0.58636763E+02</pdfrwt>
<pdfrwt beam="1">  1       -2 0.28451895E-01 0.13546937E+03</pdfrwt>
<totfact> 0.56930670E+02</totfact>
</mgrwt>
</event>
<event>
 7    1  0.5277388E-004  0.1179803E+03  0.7546771E-02  0.1329495E+00
          2   -1    0    0  503    0  0.00000000000E+00  0.00000000000E+00  0.47550277770E+03  0.47550277770E+03  0.00000000000E+00 0. -1.
          1   -1    0    0  502    0 -0.00000000000E+00 -0.00000000000E+00 -0.35740666325E+03  0.35740666325E+03  0.00000000000E+00 0. -1.
         25    2    1    2    0    0 -0.14428747955E+01 -0.83167094983E+02  0.84136331531E+01  0.15037982023E+03  0.12499781411E+03 0.  0.
          4    1    3    3  501    0  0.28052933386E+02  0.17800982011E+02  0.27888914691E+02  0.43396388038E+02  0.12700000000E+01 0.  1.
         -4    1    3    3    0  501 -0.29495808182E+02 -0.10096807699E+03 -0.19475281538E+02  0.10698343219E+03  0.12700000000E+01 0.  1.
          2    1    1    2  502    0  0.43743676513E+02  0.11678869830E+03 -0.27084858366E+03  0.29818126124E+03  0.00000000000E+00 0. -1.
          1    1    1    2  503    0 -0.42300801717E+02 -0.33621603314E+02  0.38053106496E+03  0.38434835948E+03  0.00000000000E+00 0. -1.
<mgrwt>
<rscale>  0 0.79843945E+02</rscale>
<asrwt>0</asrwt>
<pdfrwt beam="1">  1        2 0.73154274E-01 0.54034896E+02</pdfrwt>
<pdfrwt beam="2">  1        1 0.54985640E-01 0.11798034E+03</pdfrwt>
<totfact> 0.64596647E+02</totfact>
</mgrwt>
</event>
<event>
 7    1  0.5277388E-004  0.1649870E+03  0.7546771E-02  0.1270866E+00
          1   -1    0    0  502    0 -0.00000000000E+00  0.00000000000E+00  0.96213556685E+03  0.96213556685E+03  0.00000000000E+00 0. -1.
          2   -1    0    0  503    0  0.00000000000E+00 -0.00000000000E+00 -0.25405198883E+04  0.25405198883E+04  0.00000000000E+00 0. -1.
         25    2    1    2    0    0 -0.23111124320E+02 -0.21215013326E+03 -0.67733020856E+03  0.72107054485E+03  0.12499886450E+03 0.  0.
          4    1    3    3  501    0  0.25716889632E+02 -0.19290296733E+03 -0.54511728701E+03  0.57881549972E+03  0.12700000000E+01 0. -1.
         -4    1    3    3    0  501 -0.48828013951E+02 -0.19247165922E+02 -0.13221292155E+03  0.14225504513E+03  0.12700000000E+01 0. -1.
          2    1    1    2  502    0 -0.21590433904E+02  0.16312777569E+03  0.93246161577E+03  0.94686930615E+03  0.00000000000E+00 0. -1.
          1    1    1    2  503    0  0.44701558224E+02  0.49022357568E+02 -0.18335157287E+04  0.18347156042E+04  0.00000000000E+00 0. -1.
<mgrwt>
<rscale>  0 0.10462200E+03</rscale>
<asrwt>0</asrwt>
<pdfrwt beam="2">  1        2 0.39084921E+00 0.66343205E+02</pdfrwt>
<pdfrwt beam="1">  1        1 0.14802086E+00 0.16498695E+03</pdfrwt>
<totfact> 0.11150339E+01</totfact>
</mgrwt>
</event>
<event>
 7    1  0.5277388E-004  0.5307842E+02  0.7546771E-02  0.1435095E+00
          2   -1    0    0  503    0  0.00000000000E+00  0.00000000000E+00  0.11183193566E+04  0.11183193566E+04  0.00000000000E+00 0. -1.
          1   -1    0    0  502    0 -0.00000000000E+00 -0.00000000000E+00 -0.71263458750E+02  0.71263458750E+02  0.00000000000E+00 0. -1.
         25    2    1    2    0    0  0.11516273668E+02 -0.66359848476E+01  0.11191975511E+03  0.16830898736E+03  0.12500089116E+03 0.  0.
          4    1    3    3  501    0  0.28794510062E+02  0.45443019873E+02  0.97815162494E+02  0.11164054272E+03  0.12700000000E+01 0. -1.
         -4    1    3    3    0  501 -0.17278236393E+02 -0.52079004721E+02  0.14104592615E+02  0.56668444644E+02  0.12700000000E+01 0. -1.
          2    1    1    2  502    0  0.31497700282E+02  0.39916440090E+02 -0.27020955058E+02  0.57580893748E+02  0.00000000000E+00 0. -1.
          1    1    1    2  503    0 -0.43013973950E+02 -0.33280455243E+02  0.96215709776E+03  0.96369293420E+03  0.00000000000E+00 0. -1.
<mgrwt>
<rscale>  0 0.51950779E+02</rscale>
<asrwt>0</asrwt>
<pdfrwt beam="1">  1        2 0.17204912E+00 0.53078416E+02</pdfrwt>
<pdfrwt beam="2">  1        1 0.10963610E-01 0.50847097E+02</pdfrwt>
<totfact> 0.17095957E+03</totfact>
</mgrwt>
</event>
<event>
 7    1  0.5277388E-004  0.3436132E+02  0.7546771E-02  0.1617910E+00
         -2   -1    0    0    0  501 -0.00000000000E+00  0.00000000000E+00  0.23636938831E+02  0.23636938831E+02  0.00000000000E+00 0.  1.
          2   -1    0    0  503    0  0.00000000000E+00 -0.00000000000E+00 -0.57014061088E+03  0.57014061088E+03  0.00000000000E+00 0. -1.
         25    2    1    2    0    0 -0.35835388629E+02 -0.85420426970E+01 -0.40892947461E+03  0.42919146107E+03  0.12499941393E+03 0.  0.
          4    1    3    3  502    0 -0.21979155969E+02 -0.65556142722E+02 -0.17909868648E+03  0.19198605039E+03  0.12700000000E+01 0.  1.
         -4    1    3    3    0  502 -0.13856232659E+02  0.57014100025E+02 -0.22983078813E+03  0.23720541069E+03  0.12700000000E+01 0.  1.
          1    1    1    2  503    0  0.42985105868E+01  0.22875728066E+02 -0.12589532464E+03  0.12802893772E+03  0.00000000000E+00 0. -1.
         -1    1    1    2    0  501  0.31536878042E+02 -0.14333685369E+02 -0.11678872793E+02  0.36557150910E+02  0.00000000000E+00 0.  1.
<mgrwt>
<rscale>  0 0.28280681E+02</rscale>
<asrwt>0</asrwt>
<pdfrwt beam="2">  1        2 0.87713934E-01 0.23276085E+02</pdfrwt>
<pdfrwt beam="1">  1       -2 0.36364524E-02 0.34361317E+02</pdfrwt>
<totfact> 0.14101336E+04</totfact>
</mgrwt>
</event>
<event>
 7    1  0.5277388E-004  0.1235924E+03  0.7546771E-02  0.1269415E+00
          2   -1    0    0  503    0  0.00000000000E+00  0.00000000000E+00  0.70509126110E+02  0.70509126110E+02  0.00000000000E+00 0. -1.
          1   -1    0    0  502    0 -0.00000000000E+00 -0.00000000000E+00 -0.32712622056E+04  0.32712622056E+04  0.00000000000E+00 0. -1.
         25    2    1    2    0    0 -0.25254039614E+02 -0.66706867013E+02 -0.34368898568E+03  0.37260613316E+03  0.12500255585E+03 0.  0.
          4    1    3    3  501    0 -0.53841580252E+02  0.11205261866E+02 -0.19162594265E+03  0.19936546455E+03  0.12700000000E+01 0.  1.
         -4    1    3    3    0  501  0.28587540638E+02 -0.77912128879E+02 -0.15206304302E+03  0.17324066861E+03  0.12700000000E+01 0.  1.
          2    1    1    2  502    0 -0.88908027934E+02 -0.12728969849E+02 -0.28250133472E+04  0.28264407080E+04  0.00000000000E+00 0. -1.
          1    1    1    2  503    0  0.11416206755E+03  0.79435836862E+02 -0.32050746642E+02  0.14272449056E+03  0.00000000000E+00 0. -1.
<mgrwt>
<rscale>  0 0.10535846E+03</rscale>
<asrwt>0</asrwt>
<pdfrwt beam="1">  1        2 0.10847558E-01 0.12359242E+03</pdfrwt>
<pdfrwt beam="2">  1        1 0.50327112E+00 0.89814610E+02</pdfrwt>
<totfact> 0.42438709E+01</totfact>
</mgrwt>
</event>
<event>
 7    1  0.5277388E-004  0.1106307E+03  0.7546771E-02  0.1372569E+00
          1   -1    0    0  502    0 -0.00000000000E+00  0.00000000000E+00  0.25403843160E+04  0.25403843160E+04  0.00000000000E+00 0. -1.
          2   -1    0    0  503    0  0.00000000000E+00 -0.00000000000E+00 -0.35541894480E+04  0.35541894480E+04  0.00000000000E+00 0. -1.
         25    2    1    2    0    0  0.92239115870E+02  0.11469754475E+03 -0.31249445113E+03  0.36734027257E+03  0.12499004997E+03 0.  0.
          4    1    3    3  501    0  0.41890774845E+02  0.13138838817E+03 -0.24857386870E+03  0.28426805425E+03  0.12700000000E+01 0.  1.
         -4    1    3    3    0  501  0.50348341025E+02 -0.16690843426E+02 -0.63920582432E+02  0.83072218321E+02  0.12700000000E+01 0.  1.
          2    1    1    2  502    0 -0.15351172125E+02 -0.36853309600E+02  0.25118716210E+04  0.25121888594E+04  0.00000000000E+00 0. -1.
          3    1    1    2  503    0 -0.76887943745E+02 -0.77844235148E+02 -0.32131823018E+04  0.32150446320E+04  0.00000000000E+00 0. -1.
<mgrwt>
<rscale>  0 0.66458110E+02</rscale>
<asrwt>0</asrwt>
<pdfrwt beam="2">  1        2 0.54679837E+00 0.11063070E+03</pdfrwt>
<pdfrwt beam="1">  1        1 0.39082836E+00 0.39922737E+02</pdfrwt>
<totfact> 0.30081356E-01</totfact>
</mgrwt>
</event>
<event>
 7    1  0.5277388E-004  0.4271861E+02  0.7546771E-02  0.1502598E+00
         -2   -1    0    0    0  501  0.00000000000E+00  0.00000000000E+00  0.11954756120E+03  0.11954756120E+03  0.00000000000E+00 0.  1.
         -1   -1    0    0    0  502 -0.00000000000E+00 -0.00000000000E+00 -0.59674619805E+03  0.59674619805E+03  0.00000000000E+00 0.  1.
         25    2    1    2    0    0 -0.36113467679E+02  0.56555772065E+01 -0.38775895160E+03  0.40904467709E+03  0.12499750080E+03 0.  0.
          4    1    3    3  503    0  0.30738798004E+02 -0.20991825838E+01 -0.23906246014E+02  0.39017967255E+02  0.12700000000E+01 0. -1.
         -4    1    3    3    0  503 -0.66852265683E+02  0.77547597904E+01 -0.36385270558E+03  0.37002670983E+03  0.12700000000E+01 0. -1.
         -2    1    1    2    0  502  0.34399758129E+02  0.33222917967E+02 -0.19183584097E+03  0.19770709527E+03  0.00000000000E+00 0.  1.
         -1    1    1    2    0  501  0.17137095499E+01 -0.38878495173E+02  0.10239615572E+03  0.10954198689E+03  0.00000000000E+00 0.  1.
<mgrwt>
<rscale>  0 0.40773127E+02</rscale>
<asrwt>0</asrwt>
<pdfrwt beam="1">  1       -2 0.18391933E-01 0.38916246E+02</pdfrwt>
<pdfrwt beam="2">  1       -1 0.91807106E-01 0.42718608E+02</pdfrwt>
<totfact> 0.21636294E+02</totfact>
</mgrwt>
</event>
<event>
 7    1  0.5277388E-004  0.3690786E+02  0.7546771E-02  0.1546830E+00
          2   -1    0    0  503    0  0.00000000000E+00  0.00000000000E+00  0.25044350043E+02  0.25044350043E+02  0.00000000000E+00 0. -1.
          1   -1    0    0  502    0 -0.00000000000E+00 -0.00000000000E+00 -0.20235665980E+04  0.20235665980E+04  0.00000000000E+00 0. -1.
         25    2    1    2    0    0 -0.40080913965E+02 -0.53175791417E+02 -0.56708369053E+03  0.58450350356E+03  0.12500515649E+03 0.  0.
          4    1    3    3  501    0  0.30942547991E+02 -0.34107492543E+02 -0.83563186296E+02  0.95421073813E+02  0.12700000000E+01 0.  1.
         -4    1    3    3    0  501 -0.71023461956E+02 -0.19068298874E+02 -0.48352050423E+03  0.48908242974E+03  0.12700000000E+01 0.  1.
          2    1    1    2  502    0  0.12560701299E+02  0.33948761317E+02 -0.14300492262E+04  0.14305072803E+04  0.00000000000E+00 0. -1.
          1    1    1    2  503    0  0.27520212666E+02  0.19227030100E+02 -0.13893312119E+01  0.33600164179E+02  0.00000000000E+00 0. -1.
<mgrwt>
<rscale>  0 0.35200138E+02</rscale>
<asrwt>0</asrwt>
<pdfrwt beam="1">  1        2 0.38529759E-02 0.33571428E+02</pdfrwt>
<pdfrwt beam="2">  1        1 0.31131802E+00 0.36907864E+02</pdfrwt>
<totfact> 0.10187422E+03</totfact>
</mgrwt>
</event>
<event>
 7    1  0.5277388E-004  0.1054845E+03  0.7546771E-02  0.1287833E+00
          2   -1    0    0  503    0  0.00000000000E+00  0.00000000000E+00  0.74284291867E+02  0.74284291867E+02  0.00000000000E+00 0. -1.
          1   -1    0    0  502    0 -0.00000000000E+00 -0.00000000000E+00 -0.28851237154E+04  0.28851237154E+04  0.00000000000E+00 0. -1.
         25    2    1    2    0    0  0.43261203857E+00  0.66969855731E+01 -0.19546912168E+03  0.23211739034E+03  0.12500107439E+03 0.  0.
          4    1    3    3  501    0 -0.29190761827E+02  0.48981809737E+02 -0.43846237394E+02  0.71940417672E+02  0.12700000000E+01 0. -1.
         -4    1    3    3    0  501  0.29623373865E+02 -0.42284824164E+02 -0.15162288428E+03  0.16017697266E+03  0.12700000000E+01 0. -1.
          2    1    1    2  502    0  0.86406647866E+02  0.60505211061E+02 -0.26153589943E+04  0.26174853693E+04  0.00000000000E+00 0. -1.
          1    1    1    2  503    0 -0.86839259905E+02 -0.67202196634E+02 -0.11307604972E-01  0.10980524769E+03  0.00000000000E+00 0. -1.
<mgrwt>
<rscale>  0 0.96499806E+02</rscale>
<asrwt>0</asrwt>
<pdfrwt beam="1">  1        2 0.11428351E-01 0.88280349E+02</pdfrwt>
<pdfrwt beam="2">  1        1 0.44386525E+00 0.10548455E+03</pdfrwt>
<totfact> 0.70105896E+01</totfact>
</mgrwt>
</event>
<event>
 7    1  0.5277388E-004  0.6459589E+02  0.7546771E-02  0.1417843E+00
         -2   -1    0    0    0  501 -0.00000000000E+00  0.00000000000E+00  0.48743573907E+02  0.48743573907E+02  0.00000000000E+00 0.  1.
          2   -1    0    0  503    0  0.00000000000E+00 -0.00000000000E+00 -0.14082561943E+04  0.14082561943E+04  0.00000000000E+00 0. -1.
         25    2    1    2    0    0  0.22835944433E+02  0.20608076802E+02 -0.66823693643E+02  0.14503937443E+03  0.12499936366E+03 0.  0.
          4    1    3    3  502    0  0.16156043535E+02 -0.27724274518E+02  0.25235107809E+02  0.40842094784E+02  0.12700000000E+01 0. -1.
         -4    1    3    3    0  502  0.66799008986E+01  0.48332351320E+02 -0.92058801452E+02  0.10419727964E+03  0.12700000000E+01 0. -1.
          1    1    1    2  503    0 -0.61365343522E+01 -0.65236399896E+02 -0.12367206601E+04  0.12384552621E+04  0.00000000000E+00 0. -1.
         -1    1    1    2    0  501 -0.16699410081E+02  0.44628323094E+02 -0.55968266564E+02  0.73505131667E+02  0.00000000000E+00 0.  1.
<mgrwt>
<rscale>  0 0.55479888E+02</rscale>
<asrwt>0</asrwt>
<pdfrwt beam="2">  1        2 0.21665478E+00 0.64595892E+02</pdfrwt>
<pdfrwt beam="1">  1       -2 0.74990120E-02 0.47650367E+02</pdfrwt>
<totfact> 0.15590813E+03</totfact>
</mgrwt>
</event>
<event>
 7    1  0.5277388E-004  0.1459073E+03  0.7546771E-02  0.1290026E+00
          2   -1    0    0  503    0  0.00000000000E+00  0.00000000000E+00  0.27005273882E+04  0.27005273882E+04  0.00000000000E+00 0. -1.
         -2   -1    0    0    0  501 -0.00000000000E+00 -0.00000000000E+00 -0.20448295349E+03  0.20448295349E+03  0.00000000000E+00 0.  1.
         25    2    1    2    0    0  0.11673552608E+03 -0.30856338268E+02  0.15064619269E+04  0.15164536963E+04  0.12499991744E+03 0.  0.
          4    1    3    3  502    0  0.34058539546E+02  0.28647496399E+02  0.15811496701E+03  0.16426386961E+03  0.12700000000E+01 0. -1.
         -4    1    3    3    0  502  0.82676986532E+02 -0.59503834667E+02  0.13483469598E+04  0.13521898267E+04  0.12700000000E+01 0. -1.
          1    1    1    2  503    0 -0.17919042502E+03  0.27929847483E+02  0.11770492776E+04  0.11909384060E+04  0.00000000000E+00 0. -1.
         -1    1    1    2    0  501  0.62454898943E+02  0.29264907849E+01 -0.18746676982E+03  0.19761823938E+03  0.00000000000E+00 0.  1.
<mgrwt>
<rscale>  0 0.95512420E+02</rscale>
<asrwt>0</asrwt>
<pdfrwt beam="1">  1        2 0.41546573E+00 0.14590727E+03</pdfrwt>
<pdfrwt beam="2">  1       -2 0.31458918E-01 0.62523426E+02</pdfrwt>
<totfact> 0.31165488E+01</totfact>
</mgrwt>
</event>
<event>
 7    1  0.2717609E-003  0.1404284E+03  0.7546771E-02  0.1277619E+00
         -2   -1    0    0    0  501 -0.00000000000E+00  0.00000000000E+00  0.31881399573E+02  0.31881399573E+02  0.00000000000E+00 0.  1.
          2   -1    0    0  503    0  0.00000000000E+00 -0.00000000000E+00 -0.15406613379E+04  0.15406613379E+04  0.00000000000E+00 0. -1.
         25    2    1    2    0    0  0.17313787757E+03  0.53514552833E+02 -0.54885746263E+03  0.59136428308E+03  0.12500667583E+03 0.  0.
          4    1    3    3  502    0  0.65397063119E+02  0.59080992328E+02 -0.11848622889E+03  0.14767511251E+03  0.12700000000E+01 0.  1.
         -4    1    3    3    0  502  0.10774081445E+03 -0.55664394945E+01 -0.43037123374E+03  0.44368917056E+03  0.12700000000E+01 0.  1.
          3    1    1    2  503    0 -0.73048179282E+02  0.60664068769E+00 -0.58001519359E+03  0.58459732236E+03  0.00000000000E+00 0. -1.
         -3    1    1    2    0  501 -0.10008969829E+03 -0.54121193521E+02 -0.37990728213E+03  0.39658113206E+03  0.00000000000E+00 0.  1.
<mgrwt>
<rscale>  0 0.10128374E+03</rscale>
<asrwt>0</asrwt>
<pdfrwt beam="2">  1        2 0.23702479E+00 0.73050698E+02</pdfrwt>
<pdfrwt beam="1">  1       -2 0.49048314E-02 0.14042844E+03</pdfrwt>
<totfact> 0.27580577E+03</totfact>
</mgrwt>
</event>
<event>
 7    1  0.5277388E-004  0.4444596E+02  0.7546771E-02  0.1533541E+00
          1   -1    0    0  502    0 -0.00000000000E+00  0.00000000000E+00  0.19222918840E+04  0.19222918840E+04  0.00000000000E+00 0. -1.
          2   -1    0    0  503    0  0.00000000000E+00 -0.00000000000E+00 -0.24463196509E+02  0.24463196509E+02  0.00000000000E+00 0. -1.
         25    2    1    2    0    0  0.21201573519E+01  0.15046707821E+02  0.16461962040E+04  0.16510049425E+04  0.12499791950E+03 0.  0.
          4    1    3    3  501    0 -0.36186697686E+02  0.89038673791E+00  0.15220948554E+03  0.15645961225E+03  0.12700000000E+01 0. -1.
         -4    1    3    3    0  501  0.38306855038E+02  0.14156321083E+02  0.14939867184E+04  0.14945453303E+04  0.12700000000E+01 0. -1.
          2    1    1    2  502    0  0.15014128694E+02  0.26428916139E+02  0.24894547199E+03  0.25079425769E+03  0.00000000000E+00 0. -1.
          1    1    1    2  503    0 -0.17134286046E+02 -0.41475623960E+02  0.26870115547E+01  0.44955880286E+02  0.00000000000E+00 0. -1.
<mgrwt>
<rscale>  0 0.36755621E+02</rscale>
<asrwt>0</asrwt>
<pdfrwt beam="2">  1        2 0.37635702E-02 0.44445961E+02</pdfrwt>
<pdfrwt beam="1">  1        1 0.29573709E+00 0.30395915E+02</pdfrwt>
<totfact> 0.12866775E+03</totfact>
</mgrwt>
</event>
<event>
 7    1  0.5277388E-004  0.1406662E+03  0.7546771E-02  0.1359296E+00
          2   -1    0    0  503    0  0.00000000000E+00  0.00000000000E+00  0.36658792204E+03  0.36658792204E+03  0.00000000000E+00 0. -1.
         -2   -1    0    0    0  501 -0.00000000000E+00 -0.00000000000E+00 -0.55794690271E+03  0.55794690271E+03  0.00000000000E+00 0.  1.
         25    2    1    2    0    0 -0.69238312741E+02  0.15737574530E+03 -0.57036768865E+02  0.22009079101E+03  0.12500277647E+03 0.  0.
          4    1    3    3  502    0 -0.20341930151E+02 -0.13924520565E+02 -0.31660451668E+02  0.40145778047E+02  0.12700000000E+01 0.  1.
         -4    1    3    3    0  502 -0.48896382590E+02  0.17130026587E+03 -0.25376317197E+02  0.17994501296E+03  0.12700000000E+01 0.  1.
          1    1    1    2  503    0  0.57101794693E+02 -0.12447434448E+03  0.26780587385E+03  0.30078973297E+03  0.00000000000E+00 0. -1.
         -1    1    1    2    0  501  0.12136518047E+02 -0.32901400818E+02 -0.40212808567E+03  0.40365430077E+03  0.00000000000E+00 0.  1.
<mgrwt>
<rscale>  0 0.70234956E+02</rscale>
<asrwt>0</asrwt>
<pdfrwt beam="1">  1        2 0.56398142E-01 0.14066624E+03</pdfrwt>
<pdfrwt beam="2">  1       -2 0.85837984E-01 0.35068465E+02</pdfrwt>
<totfact> 0.11269977E+02</totfact>
</mgrwt>
</event>
<event>
 7    1  0.5277388E-004  0.1018610E+03  0.7546771E-02  0.1350958E+00
          2   -1    0    0  503    0  0.00000000000E+00  0.00000000000E+00  0.10036971331E+04  0.10036971331E+04  0.00000000000E+00 0. -1.
          1   -1    0    0  502    0 -0.00000000000E+00 -0.00000000000E+00 -0.43672386612E+04  0.43672386612E+04  0.00000000000E+00 0. -1.
         25    2    1    2    0    0 -0.36610903687E+02 -0.12603252771E+03 -0.62908915631E+03  0.65467807779E+03  0.12500265051E+03 0.  0.
          4    1    3    3  501    0 -0.59595014164E+02 -0.70758897476E+01 -0.21612848498E+03  0.22430953803E+03  0.12700000000E+01 0. -1.
         -4    1    3    3    0  501  0.22984110477E+02 -0.11895663796E+03 -0.41296067133E+03  0.43036853976E+03  0.12700000000E+01 0. -1.
          2    1    1    2  502    0  0.45743789682E+02  0.24665270620E+02 -0.37225597312E+04  0.37229224840E+04  0.00000000000E+00 0. -1.
          3    1    1    2  503    0 -0.91328859947E+01  0.10136725709E+03  0.98810735943E+03  0.99333523252E+03  0.00000000000E+00 0. -1.
<mgrwt>
<rscale>  0 0.72757861E+02</rscale>
<asrwt>0</asrwt>
<pdfrwt beam="1">  1        2 0.15441494E+00 0.10186102E+03</pdfrwt>
<pdfrwt beam="2">  1        1 0.67188286E+00 0.51969894E+02</pdfrwt>
<totfact> 0.33098427E-01</totfact>
</mgrwt>
</event>
<event>
 7    1  0.5277388E-004  0.1187162E+03  0.7546771E-02  0.1275008E+00
          1   -1    0    0  502    0 -0.00000000000E+00  0.00000000000E+00  0.54190338116E+02  0.54190338116E+02  0.00000000000E+00 0. -1.
          2   -1    0    0  503    0  0.00000000000E+00 -0.00000000000E+00 -0.18643465331E+04  0.18643465331E+04  0.00000000000E+00 0. -1.
         25    2    1    2    0    0  0.91872506940E+02  0.11987054113E+01 -0.59232380950E+03  0.61230281911E+03  0.12500101025E+03 0.  0.
          4    1    3    3  501    0  0.77427393612E+02 -0.11825788316E+02 -0.58685311598E+03  0.59205831063E+03  0.12700000000E+01 0.  1.
         -4    1    3    3    0  501  0.14445113327E+02  0.13024493727E+02 -0.54706935155E+01  0.20244508476E+02  0.12700000000E+01 0.  1.
          2    1    1    2  502    0  0.12601435732E+02 -0.87697593176E+02 -0.81510867045E+01  0.88972491512E+02  0.00000000000E+00 0. -1.
          1    1    1    2  503    0 -0.10447394267E+03  0.86498887764E+02 -0.12096812988E+04  0.12172615606E+04  0.00000000000E+00 0. -1.
<mgrwt>
<rscale>  0 0.10255757E+03</rscale>
<asrwt>0</asrwt>
<pdfrwt beam="2">  1        2 0.28682253E+00 0.11871618E+03</pdfrwt>
<pdfrwt beam="1">  1        1 0.83369755E-02 0.88598330E+02</pdfrwt>
<totfact> 0.98395460E+02</totfact>
</mgrwt>
</event>
<event>
 7    1  0.5277388E-004  0.2034300E+03  0.7546771E-02  0.1266874E+00
          3   -1    0    0  503    0  0.00000000000E+00  0.00000000000E+00  0.92386166147E+03  0.92386166147E+03  0.00000000000E+00 0. -1.
         -1   -1    0    0    0  501 -0.00000000000E+00 -0.00000000000E+00 -0.70820748217E+03  0.70820748217E+03  0.00000000000E+00 0.  1.
         25    2    1    2    0    0  0.17753476094E+03 -0.66951796478E+02  0.57109777182E+03  0.61463690684E+03  0.12499891150E+03 0.  0.
          4    1    3    3  502    0 -0.80465427636E+01 -0.23340772630E+02  0.15482831332E+03  0.15678953416E+03  0.12700000000E+01 0. -1.
         -4    1    3    3    0  502  0.18558130371E+03 -0.43611023848E+02  0.41626945850E+03  0.45784737268E+03  0.12700000000E+01 0. -1.
          2    1    1    2  503    0 -0.19822689168E+03  0.11891090138E+03  0.28927707256E+03  0.37029032901E+03  0.00000000000E+00 0. -1.
         -2    1    1    2    0  501  0.20692130735E+02 -0.51959104903E+02 -0.64472066507E+03  0.64714190780E+03  0.00000000000E+00 0.  1.
<mgrwt>
<rscale>  0 0.10666480E+03</rscale>
<asrwt>0</asrwt>
<pdfrwt beam="1">  1        3 0.14213256E+00 0.20342998E+03</pdfrwt>
<pdfrwt beam="2">  1       -1 0.10895500E+00 0.55927747E+02</pdfrwt>
<totfact> 0.16056591E+00</totfact>
</mgrwt>
</event>
<event>
 7    1  0.5277388E-004  0.1131739E+03  0.7546771E-02  0.1305236E+00
         -2   -1    0    0    0  501 -0.00000000000E+00  0.00000000000E+00  0.14323979465E+03  0.14323979465E+03  0.00000000000E+00 0.  1.
          2   -1    0    0  503    0  0.00000000000E+00 -0.00000000000E+00 -0.73612973354E+03  0.73612973354E+03  0.00000000000E+00 0. -1.
         25    2    1    2    0    0 -0.89345398187E+02 -0.39226283867E+02  0.13775168238E+02  0.15917631394E+03  0.12500416847E+03 0.  0.
          4    1    3    3  502    0 -0.24919855894E+02  0.34259066391E+00  0.63801984999E+02  0.68508559874E+02  0.12700000000E+01 0. -1.
         -4    1    3    3    0  502 -0.64425542293E+02 -0.39568874531E+02 -0.50026816762E+02  0.90667754063E+02  0.12700000000E+01 0. -1.
          1    1    1    2  503    0  0.55937955961E+02  0.10076869983E+03 -0.63446749442E+03  0.64485067051E+03  0.00000000000E+00 0. -1.
         -1    1    1    2    0  501  0.33407442226E+02 -0.61542415960E+02  0.27802387288E+02  0.75342543740E+02  0.00000000000E+00 0.  1.
<mgrwt>
<rscale>  0 0.89022606E+02</rscale>
<asrwt>0</asrwt>
<pdfrwt beam="2">  1        2 0.11325073E+00 0.11317392E+03</pdfrwt>
<pdfrwt beam="1">  1       -2 0.22036891E-01 0.70025182E+02</pdfrwt>
<totfact> 0.69370382E+02</totfact>
</mgrwt>
</event>
<event>
 7    1  0.5277388E-004  0.3773123E+02  0.7546771E-02  0.1530201E+00
          1   -1    0    0  502    0 -0.00000000000E+00  0.00000000000E+00  0.14106523347E+03  0.14106523347E+03  0.00000000000E+00 0. -1.
          2   -1    0    0  503    0  0.00000000000E+00 -0.00000000000E+00 -0.11974310178E+04  0.11974310178E+04  0.00000000000E+00 0. -1.
         25    2    1    2    0    0  0.11735898355E+02  0.38866363885E+02  0.51186573976E+02  0.14109262293E+03  0.12505493728E+03 0.  0.
          4    1    3    3  501    0  0.34031997221E+02  0.78668537202E+02  0.30549559779E+02  0.91004417931E+02  0.12700000000E+01 0.  1.
         -4    1    3    3    0  501 -0.22296098866E+02 -0.39802173317E+02  0.20637014197E+02  0.50088205002E+02  0.12700000000E+01 0.  1.
          2    1    1    2  502    0 -0.37794005692E+02 -0.13164110742E+02  0.35661315729E+02  0.53604198692E+02  0.00000000000E+00 0. -1.
          1    1    1    2  503    0  0.26058107337E+02 -0.25702253143E+02 -0.11432136740E+04  0.11437994296E+04  0.00000000000E+00 0. -1.
<mgrwt>
<rscale>  0 0.37161802E+02</rscale>
<asrwt>0</asrwt>
<pdfrwt beam="2">  1        2 0.18422016E+00 0.36600967E+02</pdfrwt>
<pdfrwt beam="1">  1        1 0.21702344E-01 0.37731231E+02</pdfrwt>
<totfact> 0.66841402E+02</totfact>
</mgrwt>
</event>
<event>
 7    1  0.5277388E-004  0.7905920E+02  0.7546771E-02  0.1485919E+00
         -1   -1    0    0    0  501 -0.00000000000E+00  0.00000000000E+00  0.74730445498E+01  0.74730445498E+01  0.00000000000E+00 0.  1.
          1   -1    0    0  503    0  0.00000000000E+00 -0.00000000000E+00 -0.21498383573E+04  0.21498383573E+04  0.00000000000E+00 0. -1.
         25    2    1    2    0    0  0.27438791487E+02  0.59304227447E+02 -0.11464910222E+04  0.11551336362E+04  0.12498869852E+03 0.  0.
          4    1    3    3  502    0 -0.80823138861E+01  0.23006306075E+02 -0.99599448868E+03  0.99629375602E+03  0.12700000000E+01 0. -1.
         -4    1    3    3    0  502  0.35521105373E+02  0.36297921372E+02 -0.15049653353E+03  0.15883988016E+03  0.12700000000E+01 0. -1.
          2    1    1    2  503    0  0.13974052379E+02  0.19021560157E+02 -0.20130635088E+03  0.20268532456E+03  0.00000000000E+00 0. -1.
         -2    1    1    2    0  501 -0.41412843866E+02 -0.78325787604E+02 -0.79456793965E+03  0.79949244109E+03  0.00000000000E+00 0.  1.
<mgrwt>
<rscale>  0 0.43197469E+02</rscale>
<asrwt>0</asrwt>
<pdfrwt beam="2">  1        1 0.33074400E+00 0.23602836E+02</pdfrwt>
<pdfrwt beam="1">  1       -1 0.11497004E-02 0.79059199E+02</pdfrwt>
<totfact> 0.48572602E+03</totfact>
</mgrwt>
</event>
<event>
 7    1  0.5277388E-004  0.1056166E+03  0.7546771E-02  0.1271945E+00
          1   -1    0    0  502    0 -0.00000000000E+00  0.00000000000E+00  0.12654048410E+04  0.12654048410E+04  0.00000000000E+00 0. -1.
          2   -1    0    0  503    0  0.00000000000E+00 -0.00000000000E+00 -0.13554720768E+03  0.13554720768E+03  0.00000000000E+00 0. -1.
         25    2    1    2    0    0 -0.16040792475E+03  0.74776456274E+02  0.41290843140E+03  0.46630392721E+03  0.12499503617E+03 0.  0.
          4    1    3    3  501    0 -0.90085547233E+02  0.74100603692E+02  0.12948090543E+03  0.17427915268E+03  0.12700000000E+01 0. -1.
         -4    1    3    3    0  501 -0.70322377522E+02  0.67585258203E+00  0.28342752598E+03  0.29202477453E+03  0.12700000000E+01 0. -1.
          2    1    1    2  502    0  0.58048707519E+02 -0.84555777333E+02  0.79747537583E+03  0.80404372206E+03  0.00000000000E+00 0. -1.
          1    1    1    2  503    0  0.10235921724E+03  0.97793210584E+01 -0.80526173884E+02  0.13060439944E+03  0.00000000000E+00 0. -1.
<mgrwt>
<rscale>  0 0.10407900E+03</rscale>
<asrwt>0</asrwt>
<pdfrwt beam="2">  1        2 0.20853417E-01 0.10561659E+03</pdfrwt>
<pdfrwt beam="1">  1        1 0.19467766E+00 0.10256379E+03</pdfrwt>
<totfact> 0.38946505E+02</totfact>
</mgrwt>
</event>
<event>
 7    1  0.5277388E-004  0.1484336E+03  0.7546771E-02  0.1220687E+00
          1   -1    0    0  502    0 -0.00000000000E+00  0.00000000000E+00  0.65669527334E+03  0.65669527334E+03  0.00000000000E+00 0. -1.
          2   -1    0    0  503    0  0.00000000000E+00 -0.00000000000E+00 -0.44833594406E+03  0.44833594406E+03  0.00000000000E+00 0. -1.
         25    2    1    2    0    0  0.49297232236E+02  0.62848257382E+02 -0.18730816097E+03  0.23893160628E+03  0.12499537892E+03 0.  0.
          4    1    3    3  501    0 -0.36982583384E+02  0.58419773465E+01 -0.87602122219E+02  0.95276360606E+02  0.12700000000E+01 0. -1.
         -4    1    3    3    0  501  0.86279815620E+02  0.57006280036E+02 -0.99706038754E+02  0.14365524568E+03  0.12700000000E+01 0. -1.
          2    1    1    2  502    0 -0.15285499793E+03  0.19903747328E+01  0.60483901058E+03  0.62385802928E+03  0.00000000000E+00 0. -1.
          1    1    1    2  503    0  0.10355776569E+03 -0.64838632115E+02 -0.20917152033E+03  0.24224158183E+03  0.00000000000E+00 0. -1.
<mgrwt>
<rscale>  0 0.13466925E+03</rscale>
<asrwt>0</asrwt>
<pdfrwt beam="2">  1        2 0.68974761E-01 0.12218125E+03</pdfrwt>
<pdfrwt beam="1">  1        1 0.10103004E+00 0.14843362E+03</pdfrwt>
<totfact> 0.30694518E+02</totfact>
</mgrwt>
</event>
<event>
 7    1  0.5277388E-004  0.8051829E+02  0.7546771E-02  0.1341237E+00
         -2   -1    0    0    0  501 -0.00000000000E+00  0.00000000000E+00  0.43390943038E+02  0.43390943038E+02  0.00000000000E+00 0.  1.
          2   -1    0    0  503    0  0.00000000000E+00 -0.00000000000E+00 -0.24584120372E+04  0.24584120372E+04  0.00000000000E+00 0. -1.
         25    2    1    2    0    0 -0.10977096231E+02  0.59176074578E+01 -0.31231805919E+03  0.33662266325E+03  0.12496692602E+03 0.  0.
          4    1    3    3  502    0  0.41216851122E+02 -0.32132714636E+02 -0.80616612338E+02  0.96083251668E+02  0.12700000000E+01 0. -1.
         -4    1    3    3    0  502 -0.52193947353E+02  0.38050322093E+02 -0.23170144685E+03  0.24053941158E+03  0.12700000000E+01 0. -1.
          3    1    1    2  503    0  0.26895977788E+02  0.75893351331E+02 -0.20761451960E+04  0.20777059631E+04  0.00000000000E+00 0. -1.
         -1    1    1    2    0  501 -0.15918881557E+02 -0.81810958789E+02 -0.26557838956E+02  0.87474353831E+02  0.00000000000E+00 0.  1.
<mgrwt>
<rscale>  0 0.75857060E+02</rscale>
<asrwt>0</asrwt>
<pdfrwt beam="2">  1        2 0.37821720E+00 0.80518286E+02</pdfrwt>
<pdfrwt beam="1">  1       -2 0.66755303E-02 0.71465674E+02</pdfrwt>
<totfact> 0.55918607E+02</totfact>
</mgrwt>
</event>
<event>
 7    1  0.5277388E-004  0.8539392E+02  0.7546771E-02  0.1460117E+00
          2   -1    0    0  503    0  0.00000000000E+00  0.00000000000E+00  0.15265047870E+04  0.15265047870E+04  0.00000000000E+00 0. -1.
          1   -1    0    0  502    0 -0.00000000000E+00 -0.00000000000E+00 -0.48057205216E+03  0.48057205216E+03  0.00000000000E+00 0. -1.
         25    2    1    2    0    0 -0.93829440868E+02 -0.58609943698E+02 -0.32395942679E+03  0.36443607454E+03  0.12499941100E+03 0.  0.
          4    1    3    3  501    0 -0.91248535774E+02  0.15661570932E+02 -0.18126675083E+03  0.20354564093E+03  0.12700000000E+01 0.  1.
         -4    1    3    3    0  501 -0.25809050942E+01 -0.74271514630E+02 -0.14269267596E+03  0.16089043361E+03  0.12700000000E+01 0.  1.
          2    1    1    2  502    0  0.18421399491E+02  0.18725247754E+02 -0.13388928096E+03  0.13644164474E+03  0.00000000000E+00 0. -1.
          1    1    1    2  503    0  0.75408041377E+02  0.39884695945E+02  0.15037814425E+04  0.15061991198E+04  0.00000000000E+00 0. -1.
<mgrwt>
<rscale>  0 0.47361237E+02</rscale>
<asrwt>0</asrwt>
<pdfrwt beam="1">  1        2 0.23484689E+00 0.85393916E+02</pdfrwt>
<pdfrwt beam="2">  1        1 0.73934163E-01 0.26267525E+02</pdfrwt>
<totfact> 0.99346486E+01</totfact>
</mgrwt>
</event>
<event>
 7    1  0.5277388E-004  0.9876157E+02  0.7546771E-02  0.1387435E+00
          1   -1    0    0  502    0 -0.00000000000E+00  0.00000000000E+00  0.81793353046E+03  0.81793353046E+03  0.00000000000E+00 0. -1.
          2   -1    0    0  503    0  0.00000000000E+00 -0.00000000000E+00 -0.59045922298E+03  0.59045922298E+03  0.00000000000E+00 0. -1.
         25    2    1    2    0    0  0.10523748900E+03 -0.10902307131E+02  0.49386263568E+03  0.52030763111E+03  0.12500375465E+03 0.  0.
          4    1    3    3  501    0  0.11382556476E+03 -0.40001101866E+02  0.28853300026E+03  0.31274470816E+03  0.12700000000E+01 0.  1.
         -4    1    3    3    0  501 -0.85880757638E+01  0.29098794734E+02  0.20532963543E+03  0.20756292295E+03  0.12700000000E+01 0.  1.
          2    1    1    2  502    0 -0.10330934340E+02  0.38243945099E+02  0.30533465770E+03  0.30789378158E+03  0.00000000000E+00 0. -1.
          1    1    1    2  503    0 -0.94906554659E+02 -0.27341637968E+02 -0.57172298590E+03  0.58019134075E+03  0.00000000000E+00 0. -1.
<mgrwt>
<rscale>  0 0.62549291E+02</rscale>
<asrwt>0</asrwt>
<pdfrwt beam="2">  1        2 0.90839880E-01 0.98761569E+02</pdfrwt>
<pdfrwt beam="1">  1        1 0.12583593E+00 0.39614739E+02</pdfrwt>
<totfact> 0.17693601E+02</totfact>
</mgrwt>
</event>
<event>
 7    1  0.5277388E-004  0.7598656E+02  0.7546771E-02  0.1425628E+00
          2   -1    0    0  503    0  0.00000000000E+00  0.00000000000E+00  0.26277256276E+04  0.26277256276E+04  0.00000000000E+00 0. -1.
          1   -1    0    0  502    0 -0.00000000000E+00 -0.00000000000E+00 -0.33953934836E+03  0.33953934836E+03  0.00000000000E+00 0. -1.
         25    2    1    2    0    0 -0.50548536164E+02  0.95616826737E+02  0.58445989541E+02  0.17532447187E+03  0.12500001872E+03 0.  0.
          4    1    3    3  501    0 -0.57276791164E+02  0.10137434761E+03  0.24848037957E+00  0.11644339312E+03  0.12700000000E+01 0.  1.
         -4    1    3    3    0  501  0.67282549999E+01 -0.57575208716E+01  0.58197509161E+02  0.58881078748E+02  0.12700000000E+01 0.  1.
          2    1    1    2  502    0  0.30788038178E+02 -0.22543566543E+02 -0.27923161787E+03  0.28182691870E+03  0.00000000000E+00 0. -1.
          1    1    1    2  503    0  0.19760497986E+02 -0.73073260194E+02  0.25089719075E+04  0.25101135854E+04  0.00000000000E+00 0. -1.
<mgrwt>
<rscale>  0 0.53847724E+02</rscale>
<asrwt>0</asrwt>
<pdfrwt beam="1">  1        2 0.40426547E+00 0.75986556E+02</pdfrwt>
<pdfrwt beam="2">  1        1 0.52236825E-01 0.38159084E+02</pdfrwt>
<totfact> 0.41960252E+01</totfact>
</mgrwt>
</event>
<event>
 7    1  0.5277388E-004  0.1887309E+03  0.7546771E-02  0.1307742E+00
         -2   -1    0    0    0  501 -0.00000000000E+00  0.00000000000E+00  0.35790993422E+03  0.35790993422E+03  0.00000000000E+00 0.  1.
          2   -1    0    0  503    0  0.00000000000E+00 -0.00000000000E+00 -0.44646909110E+03  0.44646909110E+03  0.00000000000E+00 0. -1.
         25    2    1    2    0    0 -0.21264357826E+03 -0.98221115855E+00 -0.49851021148E+02  0.25165198663E+03  0.12500136780E+03 0.  0.
          4    1    3    3  502    0 -0.51570245634E+02 -0.25342167202E+02  0.35685187705E+02  0.67651764167E+02  0.12700000000E+01 0. -1.
         -4    1    3    3    0  502 -0.16107333263E+03  0.24359956043E+02 -0.85536208853E+02  0.18400022246E+03  0.12700000000E+01 0. -1.
          1    1    1    2  503    0  0.18052697001E+03  0.26535334968E+02 -0.26555290755E+03  0.32219940660E+03  0.00000000000E+00 0. -1.
         -1    1    1    2    0  501  0.32116608249E+02 -0.25553123810E+02  0.22684477181E+03  0.23052763210E+03  0.00000000000E+00 0.  1.
<mgrwt>
<rscale>  0 0.88010676E+02</rscale>
<asrwt>0</asrwt>
<pdfrwt beam="2">  1        2 0.68687553E-01 0.18873094E+03</pdfrwt>
<pdfrwt beam="1">  1       -2 0.55063067E-01 0.41041913E+02</pdfrwt>
<totfact> 0.22720249E+02</totfact>
</mgrwt>
</event>
<event>
 7    1  0.5277388E-004  0.1141280E+03  0.7546771E-02  0.1295844E+00
          2   -1    0    0  503    0  0.00000000000E+00  0.00000000000E+00  0.46574513610E+03  0.46574513610E+03  0.00000000000E+00 0. -1.
          1   -1    0    0  502    0 -0.00000000000E+00 -0.00000000000E+00 -0.27478323098E+03  0.27478323098E+03  0.00000000000E+00 0. -1.
         25    2    1    2    0    0  0.13955669157E+02  0.16051458186E+03  0.14625430369E+03  0.25094846833E+03  0.12500048287E+03 0.  0.
          4    1    3    3  501    0  0.64956380632E+01  0.26278762081E+02 -0.22472475165E+02  0.35204995248E+02  0.12700000000E+01 0.  1.
         -4    1    3    3    0  501  0.74600310937E+01  0.13423581978E+03  0.16872677886E+03  0.21574347309E+03  0.12700000000E+01 0.  1.
          2    1    1    2  502    0  0.37684075792E+02 -0.10514419390E+03 -0.20237802596E+03  0.23115418333E+03  0.00000000000E+00 0. -1.
          1    1    1    2  503    0 -0.51639744949E+02 -0.55370387958E+02  0.24708562739E+03  0.25842571541E+03  0.00000000000E+00 0. -1.
<mgrwt>
<rscale>  0 0.92957188E+02</rscale>
<asrwt>0</asrwt>
<pdfrwt beam="1">  1        2 0.71653098E-01 0.75713560E+02</pdfrwt>
<pdfrwt beam="2">  1        1 0.42274343E-01 0.11412802E+03</pdfrwt>
<totfact> 0.91040546E+02</totfact>
</mgrwt>
</event>
<event>
 7    1  0.5277388E-004  0.1123441E+03  0.7546771E-02  0.1328869E+00
          1   -1    0    0  502    0 -0.00000000000E+00  0.00000000000E+00  0.15136675617E+04  0.15136675617E+04  0.00000000000E+00 0. -1.
          2   -1    0    0  503    0  0.00000000000E+00 -0.00000000000E+00 -0.54190389161E+03  0.54190389161E+03  0.00000000000E+00 0. -1.
         25    2    1    2    0    0  0.89022784015E+02  0.58254811500E+02  0.13166710811E+03  0.21042576892E+03  0.12499639088E+03 0.  0.
          4    1    3    3  501    0 -0.13337189653E+02  0.54648008080E+01 -0.17024717140E+02  0.22342752055E+02  0.12700000000E+01 0. -1.
         -4    1    3    3    0  501  0.10235997367E+03  0.52790010692E+02  0.14869182525E+03  0.18808301687E+03  0.12700000000E+01 0. -1.
          2    1    1    2  502    0  0.23872044873E+02 -0.51825623992E+02  0.13356431099E+04  0.13368613566E+04  0.00000000000E+00 0. -1.
          1    1    1    2  503    0 -0.11289482889E+03 -0.64291875083E+01 -0.49554654785E+03  0.50828432784E+03  0.00000000000E+00 0. -1.
<mgrwt>
<rscale>  0 0.80064242E+02</rscale>
<asrwt>0</asrwt>
<pdfrwt beam="2">  1        2 0.83369830E-01 0.11234412E+03</pdfrwt>
<pdfrwt beam="1">  1        1 0.23287193E+00 0.57059354E+02</pdfrwt>
<totfact> 0.64380384E+01</totfact>
</mgrwt>
</event>
<event>
 7    1  0.5277388E-004  0.1804225E+03  0.7546771E-02  0.1389577E+00
          1   -1    0    0  502    0 -0.00000000000E+00  0.00000000000E+00  0.17596416902E+02  0.17596416902E+02  0.00000000000E+00 0. -1.
          2   -1    0    0  503    0  0.00000000000E+00 -0.00000000000E+00 -0.27195730896E+04  0.27195730896E+04  0.00000000000E+00 0. -1.
         25    2    1    2    0    0  0.37727722579E+02  0.16862022744E+03 -0.13632294774E+04  0.13798103800E+04  0.12500365884E+03 0.  0.
          4    1    3    3  501    0  0.69181114978E+02  0.16721851442E+03 -0.11153124411E+04  0.11298988948E+04  0.12700000000E+01 0. -1.
         -4    1    3    3    0  501 -0.31453392400E+02  0.14017130278E+01 -0.24791703628E+03  0.24991148528E+03  0.12700000000E+01 0. -1.
          2    1    1    2  502    0  0.19115360723E+02  0.94277989206E+01 -0.40872450081E+02  0.46095960601E+02  0.00000000000E+00 0. -1.
          1    1    1    2  503    0 -0.56843083302E+02 -0.17804802636E+03 -0.12978747452E+04  0.13112631658E+04  0.00000000000E+00 0. -1.
<mgrwt>
<rscale>  0 0.62012089E+02</rscale>
<asrwt>0</asrwt>
<pdfrwt beam="2">  1        2 0.41839570E+00 0.18042251E+03</pdfrwt>
<pdfrwt beam="1">  1        1 0.27071421E-02 0.21313855E+02</pdfrwt>
<totfact> 0.12338363E+03</totfact>
</mgrwt>
</event>
<event>
 7    1  0.5277388E-004  0.1411191E+03  0.7546771E-02  0.1298414E+00
          1   -1    0    0  503    0  0.00000000000E+00  0.00000000000E+00  0.45785753060E+03  0.45785753060E+03  0.00000000000E+00 0. -1.
         -1   -1    0    0    0  501 -0.00000000000E+00 -0.00000000000E+00 -0.42512941889E+03  0.42512941889E+03  0.00000000000E+00 0.  1.
         25    2    1    2    0    0 -0.11614708760E+03 -0.71723296518E+02 -0.25670571041E+03  0.31647628869E+03  0.12500016929E+03 0.  0.
          4    1    3    3  502    0 -0.12901021908E+03 -0.43317572817E+02 -0.13832171338E+03  0.19404782409E+03  0.12700000000E+01 0. -1.
         -4    1    3    3    0  502  0.12863131482E+02 -0.28405723701E+02 -0.11838399703E+03  0.12242846460E+03  0.12700000000E+01 0. -1.
          2    1    1    2  503    0 -0.36581663458E+02  0.47296253770E+02  0.38173761131E+03  0.38639197405E+03  0.00000000000E+00 0. -1.
         -2    1    1    2    0  501  0.15272875106E+03  0.24427042748E+02 -0.92303789183E+02  0.18011868675E+03  0.00000000000E+00 0.  1.
<mgrwt>
<rscale>  0 0.91857912E+02</rscale>
<asrwt>0</asrwt>
<pdfrwt beam="1">  1        1 0.70439620E-01 0.59792589E+02</pdfrwt>
<pdfrwt beam="2">  1       -1 0.65404526E-01 0.14111909E+03</pdfrwt>
<totfact> 0.13162077E+02</totfact>
</mgrwt>
</event>
<event>
 7    1  0.5277388E-004  0.1638472E+03  0.7546771E-02  0.1310320E+00
          2   -1    0    0  503    0  0.00000000000E+00  0.00000000000E+00  0.11468871005E+04  0.11468871005E+04  0.00000000000E+00 0. -1.
          1   -1    0    0  502    0 -0.00000000000E+00 -0.00000000000E+00 -0.41152584502E+03  0.41152584502E+03  0.00000000000E+00 0. -1.
         25    2    1    2    0    0 -0.18172870784E+03  0.36477725629E+02 -0.13363255975E+03  0.26045995474E+03  0.12500311706E+03 0.  0.
          4    1    3    3  501    0 -0.15394630330E+03 -0.20198428247E+02 -0.11907037806E+03  0.19567015264E+03  0.12700000000E+01 0. -1.
         -4    1    3    3    0  501 -0.27782404546E+02  0.56676153876E+02 -0.14562181692E+02  0.64789802100E+02  0.12700000000E+01 0. -1.
          2    1    1    2  502    0  0.18506530370E+02 -0.42310054745E+02 -0.20575047928E+03  0.21086937217E+03  0.00000000000E+00 0. -1.
          1    1    1    2  503    0  0.16322217747E+03  0.58323291166E+01  0.10747442945E+04  0.10870836186E+04  0.00000000000E+00 0. -1.
<mgrwt>
<rscale>  0 0.86985821E+02</rscale>
<asrwt>0</asrwt>
<pdfrwt beam="1">  1        2 0.17644417E+00 0.16384717E+03</pdfrwt>
<pdfrwt beam="2">  1        1 0.63311669E-01 0.46180433E+02</pdfrwt>
<totfact> 0.18101599E+02</totfact>
</mgrwt>
</event>
<event>
 7    1  0.5277388E-004  0.5160386E+02  0.7546771E-02  0.1522575E+00
          2   -1    0    0  503    0  0.00000000000E+00  0.00000000000E+00  0.11105664027E+04  0.11105664027E+04  0.00000000000E+00 0. -1.
          1   -1    0    0  502    0 -0.00000000000E+00 -0.00000000000E+00 -0.91750629305E+02  0.91750629305E+02  0.00000000000E+00 0. -1.
         25    2    1    2    0    0 -0.28243737981E+02 -0.10927148322E+02  0.22676786256E+02  0.13060021135E+03  0.12500026906E+03 0.  0.
          4    1    3    3  501    0 -0.19926056486E+02  0.41018275290E+01  0.73847219632E+02  0.76608729683E+02  0.12700000000E+01 0.  1.
         -4    1    3    3    0  501 -0.83176814942E+01 -0.15028975851E+02 -0.51170433376E+02  0.53991481666E+02  0.12700000000E+01 0.  1.
          2    1    1    2  502    0  0.50690229089E+02  0.27913432744E+02 -0.15324001021E+02  0.59862208946E+02  0.00000000000E+00 0. -1.
          1    1    1    2  503    0 -0.22446491108E+02 -0.16986284422E+02  0.10114629882E+04  0.10118546117E+04  0.00000000000E+00 0. -1.
<mgrwt>
<rscale>  0 0.38113102E+02</rscale>
<asrwt>0</asrwt>
<pdfrwt beam="1">  1        2 0.17085636E+00 0.28149224E+02</pdfrwt>
<pdfrwt beam="2">  1        1 0.14115482E-01 0.51603857E+02</pdfrwt>
<totfact> 0.13046206E+03</totfact>
</mgrwt>
</event>
<event>
 7    1  0.5277388E-004  0.1311762E+03  0.7546771E-02  0.1286647E+00
          2   -1    0    0  503    0  0.00000000000E+00  0.00000000000E+00  0.42007716429E+04  0.42007716429E+04  0.00000000000E+00 0. -1.
          1   -1    0    0  502    0 -0.00000000000E+00 -0.00000000000E+00 -0.42252525605E+03  0.42252525605E+03  0.00000000000E+00 0. -1.
         25    2    1    2    0    0  0.64716131136E+02 -0.96703732786E+02  0.21039906385E+04  0.21109101086E+04  0.12500035918E+03 0.  0.
          4    1    3    3  501    0  0.13486031150E+02  0.29771294301E+02  0.53359453842E+03  0.53459605997E+03  0.12700000000E+01 0. -1.
         -4    1    3    3    0  501  0.51230099986E+02 -0.12647502709E+03  0.15703961001E+04  0.15763140486E+04  0.12700000000E+01 0. -1.
          2    1    1    2  502    0 -0.18308125075E+01  0.13132733370E+03 -0.40814092794E+03  0.42875311954E+03  0.00000000000E+00 0. -1.
          1    1    1    2  503    0 -0.62885318628E+02 -0.34623600914E+02  0.20823966762E+04  0.20836336708E+04  0.00000000000E+00 0. -1.
<mgrwt>
<rscale>  0 0.97039858E+02</rscale>
<asrwt>0</asrwt>
<pdfrwt beam="1">  1        2 0.64627253E+00 0.71786886E+02</pdfrwt>
<pdfrwt beam="2">  1        1 0.65003888E-01 0.13117624E+03</pdfrwt>
<totfact> 0.32566323E+00</totfact>
</mgrwt>
</event>
<event>
 7    1  0.5277388E-004  0.1147897E+03  0.7546771E-02  0.1341741E+00
          2   -1    0    0  503    0  0.00000000000E+00  0.00000000000E+00  0.19046700177E+04  0.19046700177E+04  0.00000000000E+00 0. -1.
         -2   -1    0    0    0  501 -0.00000000000E+00 -0.00000000000E+00 -0.46004206999E+02  0.46004206999E+02  0.00000000000E+00 0.  1.
         25    2    1    2    0    0 -0.12382787225E+03  0.67793347763E+02  0.13118535585E+04  0.13253361207E+04  0.12500717504E+03 0.  0.
          4    1    3    3  502    0 -0.22317031988E+02 -0.26027070107E+02  0.54818193439E+03  0.54925449874E+03  0.12700000000E+01 0.  1.
         -4    1    3    3    0  502 -0.10151084027E+03  0.93820417870E+02  0.76367162414E+03  0.77608162195E+03  0.12700000000E+01 0.  1.
          1    1    1    2  503    0  0.73949452975E+02 -0.65977383736E+02  0.56393072707E+03  0.57257261696E+03  0.00000000000E+00 0. -1.
         -1    1    1    2    0  501  0.49878419280E+02 -0.18159640271E+01 -0.17118474943E+02  0.52765487011E+02  0.00000000000E+00 0.  1.
<mgrwt>
<rscale>  0 0.75692296E+02</rscale>
<asrwt>0</asrwt>
<pdfrwt beam="1">  1        2 0.29302610E+00 0.11478973E+03</pdfrwt>
<pdfrwt beam="2">  1       -2 0.70775718E-02 0.49911466E+02</pdfrwt>
<totfact> 0.91043835E+02</totfact>
</mgrwt>
</event>
<event>
 7    1  0.5277388E-004  0.4518059E+02  0.7546771E-02  0.1525200E+00
          2   -1    0    0  503    0  0.00000000000E+00  0.00000000000E+00  0.27746641519E+02  0.27746641519E+02  0.00000000000E+00 0. -1.
          1   -1    0    0  502    0 -0.00000000000E+00 -0.00000000000E+00 -0.21125777751E+04  0.21125777751E+04  0.00000000000E+00 0. -1.
         25    2    1    2    0    0 -0.64177009363E+01  0.61458658074E+02 -0.10306259157E+04  0.10400155580E+04  0.12499691654E+03 0.  0.
          4    1    3    3  501    0  0.31759194381E+02  0.38443567617E+02 -0.91072070404E+03  0.91208572404E+03  0.12700000000E+01 0.  1.
         -4    1    3    3    0  501 -0.38176895318E+02  0.23015090457E+02 -0.11990521168E+03  0.12792983395E+03  0.12700000000E+01 0.  1.
          2    1    1    2  502    0 -0.19617359636E+02 -0.24766328769E+02 -0.10548407483E+04  0.10553137999E+04  0.00000000000E+00 0. -1.
          1    1    1    2  503    0  0.26035060572E+02 -0.36692329305E+02  0.63553054383E+00  0.44995058706E+02  0.00000000000E+00 0. -1.
<mgrwt>
<rscale>  0 0.37781710E+02</rscale>
<asrwt>0</asrwt>
<pdfrwt beam="1">  1        2 0.42687146E-02 0.45180587E+02</pdfrwt>
<pdfrwt beam="2">  1        1 0.32501192E+00 0.31594491E+02</pdfrwt>
<totfact> 0.83941773E+02</totfact>
</mgrwt>
</event>
<event>
 7    1  0.5277388E-004  0.1069705E+03  0.7546771E-02  0.1287133E+00
          2   -1    0    0  503    0  0.00000000000E+00  0.00000000000E+00  0.13323509171E+04  0.13323509171E+04  0.00000000000E+00 0. -1.
          1   -1    0    0  502    0 -0.00000000000E+00 -0.00000000000E+00 -0.53144538328E+03  0.53144538328E+03  0.00000000000E+00 0. -1.
         25    2    1    2    0    0 -0.14414263305E+03 -0.79717101993E+02  0.26259051856E+03  0.33422936378E+03  0.12499428850E+03 0.  0.
          4    1    3    3  501    0  0.50678174424E+01 -0.12623715258E+02  0.10891213976E+03  0.10976569613E+03  0.12700000000E+01 0.  1.
         -4    1    3    3    0  501 -0.14921045049E+03 -0.67093386735E+02  0.15367837880E+03  0.22446366764E+03  0.12700000000E+01 0.  1.
          2    1    1    2  502    0  0.87316702041E+02 -0.73917297892E+01 -0.48910662964E+03  0.49689449512E+03  0.00000000000E+00 0. -1.
          1    1    1    2  503    0  0.56825931011E+02  0.87108831783E+02  0.10274216449E+04  0.10326724415E+04  0.00000000000E+00 0. -1.
<mgrwt>
<rscale>  0 0.96817984E+02</rscale>
<asrwt>0</asrwt>
<pdfrwt beam="1">  1        2 0.20497706E+00 0.10697053E+03</pdfrwt>
<pdfrwt beam="2">  1        1 0.81760829E-01 0.87629014E+02</pdfrwt>
<totfact> 0.10561487E+02</totfact>
</mgrwt>
</event>
<event>
 7    1  0.5277388E-004  0.3497976E+02  0.7546771E-02  0.1567437E+00
          1   -1    0    0  503    0  0.00000000000E+00  0.00000000000E+00  0.92881692085E+03  0.92881692085E+03  0.00000000000E+00 0. -1.
         -1   -1    0    0    0  501 -0.00000000000E+00 -0.00000000000E+00 -0.15993795529E+03  0.15993795529E+03  0.00000000000E+00 0.  1.
         25    2    1    2    0    0 -0.40198175447E+02 -0.24389520217E+02  0.49037375704E+03  0.50823437377E+03  0.12500006033E+03 0.  0.
          4    1    3    3  502    0 -0.48614312521E+02 -0.19900835322E+02  0.49484276508E+03  0.49762472777E+03  0.12700000000E+01 0.  1.
         -4    1    3    3    0  502  0.84161370733E+01 -0.44886848950E+01 -0.44690080474E+01  0.10609646000E+02  0.12700000000E+01 0.  1.
          2    1    1    2  503    0  0.29740410955E+02 -0.89888251730E+01  0.42691520587E+03  0.42804425475E+03  0.00000000000E+00 0. -1.
         -2    1    1    2    0  501  0.10457764492E+02  0.33378345390E+02 -0.14840999734E+03  0.15247624763E+03  0.00000000000E+00 0.  1.
<mgrwt>
<rscale>  0 0.32966512E+02</rscale>
<asrwt>0</asrwt>
<pdfrwt beam="1">  1        1 0.14289491E+00 0.31069133E+02</pdfrwt>
<pdfrwt beam="2">  1       -1 0.24605840E-01 0.34979762E+02</pdfrwt>
<totfact> 0.28081614E+02</totfact>
</mgrwt>
</event>
<event>
 7    1  0.5277388E-004  0.6485237E+02  0.7546771E-02  0.1443619E+00
          2   -1    0    0  503    0  0.00000000000E+00  0.00000000000E+00  0.70940419751E+02  0.70940419751E+02  0.00000000000E+00 0. -1.
          1   -1    0    0  502    0 -0.00000000000E+00 -0.00000000000E+00 -0.61366334813E+03  0.61366334813E+03  0.00000000000E+00 0. -1.
         25    2    1    2    0    0  0.10652718964E+02 -0.34817512058E+02 -0.22447645638E+03  0.25949989047E+03  0.12499909646E+03 0.  0.
          4    1    3    3  501    0 -0.15033247208E+02 -0.51192427225E+02 -0.22265024850E+03  0.22895722130E+03  0.12700000000E+01 0.  1.
         -4    1    3    3    0  501  0.25685966172E+02  0.16374915167E+02 -0.18262078811E+01  0.30542669172E+02  0.12700000000E+01 0.  1.
          2    1    1    2  502    0 -0.43451629974E+02  0.56001431490E+02 -0.36059903444E+03  0.36749948043E+03  0.00000000000E+00 0. -1.
          3    1    1    2  503    0  0.32798911010E+02 -0.21183919432E+02  0.42352562445E+02  0.57604396981E+02  0.00000000000E+00 0. -1.
<mgrwt>
<rscale>  0 0.50320703E+02</rscale>
<asrwt>0</asrwt>
<pdfrwt beam="1">  1        2 0.10913911E-01 0.39045192E+02</pdfrwt>
<pdfrwt beam="2">  1        1 0.94409744E-01 0.64852367E+02</pdfrwt>
<totfact> 0.24771423E+03</totfact>
</mgrwt>
</event>
<event>
 7    1  0.5277388E-004  0.1176786E+03  0.7546771E-02  0.1368506E+00
          1   -1    0    0  502    0 -0.00000000000E+00  0.00000000000E+00  0.12594483715E+03  0.12594483715E+03  0.00000000000E+00 0. -1.
          2   -1    0    0  503    0  0.00000000000E+00 -0.00000000000E+00 -0.86214643740E+03  0.86214643740E+03  0.00000000000E+00 0. -1.
         25    2    1    2    0    0  0.51418001818E+02 -0.13173804669E+03 -0.42686019841E+03  0.46672490765E+03  0.12499514621E+03 0.  0.
          4    1    3    3  501    0  0.54275966906E+02 -0.21793236404E+02 -0.60284690457E+02  0.84004062640E+02  0.12700000000E+01 0. -1.
         -4    1    3    3    0  501 -0.28579650884E+01 -0.10994481029E+03 -0.36657550795E+03  0.38272084501E+03  0.12700000000E+01 0. -1.
          2    1    1    2  502    0 -0.16369444739E+02  0.11506018498E+03  0.72879625474E+02  0.13717960745E+03  0.00000000000E+00 0. -1.
          1    1    1    2  503    0 -0.35048557078E+02  0.16677861710E+02 -0.38222102731E+03  0.38418675946E+03  0.00000000000E+00 0. -1.
<mgrwt>
<rscale>  0 0.67584135E+02</rscale>
<asrwt>0</asrwt>
<pdfrwt beam="2">  1        2 0.13263792E+00 0.38814333E+02</pdfrwt>
<pdfrwt beam="1">  1        1 0.19376128E-01 0.11767857E+03</pdfrwt>
<totfact> 0.12290985E+03</totfact>
</mgrwt>
</event>
<event>
 7    1  0.5277388E-004  0.1096916E+03  0.7546771E-02  0.1272400E+00
          2   -1    0    0  503    0  0.00000000000E+00  0.00000000000E+00  0.19656539854E+03  0.19656539854E+03  0.00000000000E+00 0. -1.
          1   -1    0    0  502    0 -0.00000000000E+00 -0.00000000000E+00 -0.44860215874E+03  0.44860215874E+03  0.00000000000E+00 0. -1.
         25    2    1    2    0    0  0.79598586456E+02 -0.54397525141E+02 -0.81315173770E+02  0.17757302154E+03  0.12499997915E+03 0.  0.
          4    1    3    3  501    0  0.65970056504E+02 -0.35782329930E+02  0.16679570520E+02  0.76891120834E+02  0.12700000000E+01 0. -1.
         -4    1    3    3    0  501  0.13628529952E+02 -0.18615195211E+02 -0.97994744290E+02  0.10068190071E+03  0.12700000000E+01 0. -1.
          2    1    1    2  502    0 -0.72065634964E+01  0.12092952320E+03 -0.28924989591E+03  0.31359430228E+03  0.00000000000E+00 0. -1.
          1    1    1    2  503    0 -0.72392022959E+02 -0.66531998063E+02  0.11852830948E+03  0.15400023345E+03  0.00000000000E+00 0. -1.
<mgrwt>
<rscale>  0 0.10385104E+03</rscale>
<asrwt>0</asrwt>
<pdfrwt beam="1">  1        2 0.30240831E-01 0.98321471E+02</pdfrwt>
<pdfrwt beam="2">  1        1 0.69015717E-01 0.10969159E+03</pdfrwt>
<totfact> 0.12282261E+03</totfact>
</mgrwt>
</event>
<event>
 7    1  0.5277388E-004  0.7476593E+02  0.7546771E-02  0.1409689E+00
          2   -1    0    0  503    0  0.00000000000E+00  0.00000000000E+00  0.11087703310E+03  0.11087703310E+03  0.00000000000E+00 0. -1.
          1   -1    0    0  502    0 -0.00000000000E+00 -0.00000000000E+00 -0.21899868630E+04  0.21899868630E+04  0.00000000000E+00 0. -1.
         25    2    1    2    0    0 -0.71178001295E+02  0.57814631784E+02 -0.57516936382E+02  0.16535532138E+03  0.12500137927E+03 0.  0.
          4    1    3    3  501    0 -0.67201037937E+02  0.95017858775E+02 -0.34433455973E+02  0.12137400371E+03  0.12700000000E+01 0.  1.
         -4    1    3    3    0  501 -0.39769633587E+01 -0.37203226991E+02 -0.23083480409E+02  0.43981317669E+02  0.12700000000E+01 0.  1.
          2    1    1    2  502    0  0.42824448534E+02  0.94657222833E+01 -0.20548232175E+04  0.20552912174E+04  0.00000000000E+00 0. -1.
          1    1    1    2  503    0  0.28353552761E+02 -0.67280354067E+02  0.33230323901E+02  0.80217357374E+02  0.00000000000E+00 0. -1.
<mgrwt>
<rscale>  0 0.57263355E+02</rscale>
<asrwt>0</asrwt>
<pdfrwt beam="1">  1        2 0.17058005E-01 0.74765928E+02</pdfrwt>
<pdfrwt beam="2">  1        1 0.33692106E+00 0.43858104E+02</pdfrwt>
<totfact> 0.13974156E+02</totfact>
</mgrwt>
</event>
<event>
 7    1  0.5277388E-004  0.8605000E+02  0.7546771E-02  0.1471150E+00
          1   -1    0    0  502    0 -0.00000000000E+00  0.00000000000E+00  0.33775671165E+03  0.33775671165E+03  0.00000000000E+00 0. -1.
          2   -1    0    0  503    0  0.00000000000E+00 -0.00000000000E+00 -0.13479278563E+04  0.13479278563E+04  0.00000000000E+00 0. -1.
         25    2    1    2    0    0 -0.51998420692E+00  0.82212961170E+02  0.50732972522E+02  0.15797740512E+03  0.12499513854E+03 0.  0.
          4    1    3    3  501    0 -0.16718478448E+02 -0.11262752890E+02  0.59366096652E+02  0.62708081266E+02  0.12700000000E+01 0.  1.
         -4    1    3    3    0  501  0.16198494241E+02  0.93475714059E+02 -0.86331241304E+01  0.95269323850E+02  0.12700000000E+01 0.  1.
          2    1    1    2  502    0 -0.23501080425E+02 -0.83822930504E+02  0.22516740356E+03  0.24141032307E+03  0.00000000000E+00 0. -1.
          1    1    1    2  503    0  0.24021064632E+02  0.16099693344E+01 -0.12860715207E+04  0.12862968398E+04  0.00000000000E+00 0. -1.
<mgrwt>
<rscale>  0 0.45515381E+02</rscale>
<asrwt>0</asrwt>
<pdfrwt beam="2">  1        2 0.20737352E+00 0.24074957E+02</pdfrwt>
<pdfrwt beam="1">  1        1 0.51962571E-01 0.86049996E+02</pdfrwt>
<totfact> 0.20525490E+02</totfact>
</mgrwt>
</event>
<event>
 7    1  0.5277388E-004  0.6226000E+02  0.7546771E-02  0.1398795E+00
          2   -1    0    0  503    0  0.00000000000E+00  0.00000000000E+00  0.15079957391E+03  0.15079957391E+03  0.00000000000E+00 0. -1.
          1   -1    0    0  502    0 -0.00000000000E+00 -0.00000000000E+00 -0.48152195533E+03  0.48152195533E+03  0.00000000000E+00 0. -1.
         25    2    1    2    0    0 -0.43706757600E+02 -0.96329277958E+02 -0.20259261929E+02  0.16498660729E+03  0.12498212848E+03 0.  0.
          4    1    3    3  501    0  0.37107084101E+02 -0.62800446830E+02  0.71176014660E+01  0.73301466310E+02  0.12700000000E+01 0. -1.
         -4    1    3    3    0  501 -0.80813841701E+02 -0.33528831128E+02 -0.27376863395E+02  0.91685140981E+02  0.12700000000E+01 0. -1.
          2    1    1    2  502    0 -0.15846953808E+01  0.61097016253E+02 -0.37559307576E+03  0.38053319857E+03  0.00000000000E+00 0. -1.
          1    1    1    2  503    0  0.45291452980E+02  0.35232261705E+02  0.65129956272E+02  0.86801723381E+02  0.00000000000E+00 0. -1.
<mgrwt>
<rscale>  0 0.59770961E+02</rscale>
<asrwt>0</asrwt>
<pdfrwt beam="1">  1        2 0.23199934E-01 0.57381425E+02</pdfrwt>
<pdfrwt beam="2">  1        1 0.74080301E-01 0.62260004E+02</pdfrwt>
<totfact> 0.14862587E+03</totfact>
</mgrwt>
</event>
<event>
 7    1  0.5277388E-004  0.4981230E+02  0.7546771E-02  0.1535698E+00
          1   -1    0    0  502    0 -0.00000000000E+00  0.00000000000E+00  0.16072723941E+04  0.16072723941E+04  0.00000000000E+00 0. -1.
          2   -1    0    0  503    0  0.00000000000E+00 -0.00000000000E+00 -0.12456007555E+04  0.12456007555E+04  0.00000000000E+00 0. -1.
         25    2    1    2    0    0  0.19127511820E+02  0.59118852700E+02  0.88165005626E+02  0.16509786025E+03  0.12499333898E+03 0.  0.
          4    1    3    3  501    0  0.66184545494E+02  0.38230870793E+02  0.83775953476E+02  0.11341083204E+03  0.12700000000E+01 0. -1.
         -4    1    3    3    0  501 -0.47057033674E+02  0.20887981907E+02  0.43890521494E+01  0.51687028209E+02  0.12700000000E+01 0. -1.
          2    1    1    2  502    0  0.14538752201E+02 -0.22442679886E+02  0.14800068202E+04  0.14802483701E+04  0.00000000000E+00 0. -1.
          1    1    1    2  503    0 -0.33666264021E+02 -0.36676172814E+02 -0.12065001873E+04  0.12075269193E+04  0.00000000000E+00 0. -1.
<mgrwt>
<rscale>  0 0.36496588E+02</rscale>
<asrwt>0</asrwt>
<pdfrwt beam="2">  1        2 0.19163088E+00 0.49812297E+02</pdfrwt>
<pdfrwt beam="1">  1        1 0.24727268E+00 0.26740404E+02</pdfrwt>
<totfact> 0.22482639E+01</totfact>
</mgrwt>
</event>
<event>
 7    1  0.5277388E-004  0.1671616E+03  0.7546771E-02  0.1323380E+00
          1   -1    0    0  502    0 -0.00000000000E+00  0.00000000000E+00  0.25507770142E+03  0.25507770142E+03  0.00000000000E+00 0. -1.
          2   -1    0    0  503    0  0.00000000000E+00 -0.00000000000E+00 -0.29745184848E+04  0.29745184848E+04  0.00000000000E+00 0. -1.
         25    2    1    2    0    0 -0.24464945839E+00 -0.13496160544E+03 -0.50188708033E+03  0.53453743716E+03  0.12499974212E+03 0.  0.
          4    1    3    3  501    0 -0.18772354737E+02 -0.71852657641E+02 -0.86674887326E+02  0.11414619882E+03  0.12700000000E+01 0.  1.
         -4    1    3    3    0  501  0.18527705279E+02 -0.63108947804E+02 -0.41521219300E+03  0.42039123834E+03  0.12700000000E+01 0.  1.
          2    1    1    2  502    0 -0.14094058609E+02 -0.37708851416E+02  0.23397595329E+03  0.23741387213E+03  0.00000000000E+00 0. -1.
          1    1    1    2  503    0  0.14338708067E+02  0.17267045686E+03 -0.24515296564E+04  0.24576448770E+04  0.00000000000E+00 0. -1.
<mgrwt>
<rscale>  0 0.82032729E+02</rscale>
<asrwt>0</asrwt>
<pdfrwt beam="2">  1        2 0.45761823E+00 0.16716156E+03</pdfrwt>
<pdfrwt beam="1">  1        1 0.39242723E-01 0.40256676E+02</pdfrwt>
<totfact> 0.33636806E+01</totfact>
</mgrwt>
</event>
<event>
 7    1  0.5277388E-004  0.9864479E+02  0.7546771E-02  0.1401186E+00
          2   -1    0    0  503    0  0.00000000000E+00  0.00000000000E+00  0.38081841989E+02  0.38081841989E+02  0.00000000000E+00 0. -1.
          1   -1    0    0  502    0 -0.00000000000E+00 -0.00000000000E+00 -0.18262038509E+04  0.18262038509E+04  0.00000000000E+00 0. -1.
         25    2    1    2    0    0  0.11586389743E+03  0.64067526419E+01 -0.35461418918E+03  0.39349672868E+03  0.12499185216E+03 0.  0.
          4    1    3    3  501    0  0.36059228194E+02  0.60809761317E+02 -0.18870848844E+03  0.20152072231E+03  0.12700000000E+01 0. -1.
         -4    1    3    3    0  501  0.79804669237E+02 -0.54403008675E+02 -0.16590570074E+03  0.19197600637E+03  0.12700000000E+01 0. -1.
          2    1    1    2  502    0 -0.94938866676E+02  0.22316925021E+02 -0.14318976843E+04  0.14352151100E+04  0.00000000000E+00 0. -1.
          1    1    1    2  503    0 -0.20925030755E+02 -0.28723677663E+02 -0.16101354356E+01  0.35573854257E+02  0.00000000000E+00 0. -1.
<mgrwt>
<rscale>  0 0.59207931E+02</rscale>
<asrwt>0</asrwt>
<pdfrwt beam="1">  1        2 0.58587468E-02 0.35537397E+02</pdfrwt>
<pdfrwt beam="2">  1        1 0.28095435E+00 0.98644791E+02</pdfrwt>
<totfact> 0.70950430E+02</totfact>
</mgrwt>
</event>
<event>
 7    1  0.5277388E-004  0.5010230E+02  0.7546771E-02  0.1448226E+00
          2   -1    0    0  503    0  0.00000000000E+00  0.00000000000E+00  0.11859163448E+04  0.11859163448E+04  0.00000000000E+00 0. -1.
         -2   -1    0    0    0  501 -0.00000000000E+00 -0.00000000000E+00 -0.32757377924E+03  0.32757377924E+03  0.00000000000E+00 0.  1.
         25    2    1    2    0    0 -0.31988669694E+01  0.61491789123E+01  0.74912194409E+02  0.14589782114E+03  0.12500516866E+03 0.  0.
          4    1    3    3  502    0  0.77942844534E+01 -0.33185263020E+02 -0.22090532227E+02  0.40640091855E+02  0.12700000000E+01 0.  1.
         -4    1    3    3    0  502 -0.10993151423E+02  0.39334441933E+02  0.97002726636E+02  0.10525772929E+03  0.12700000000E+01 0.  1.
          1    1    1    2  503    0  0.36099168634E+02  0.32902544719E+02  0.10727195693E+04  0.10738309931E+04  0.00000000000E+00 0. -1.
         -1    1    1    2    0  501 -0.32900301664E+02 -0.39051723632E+02 -0.28928919814E+03  0.29376130978E+03  0.00000000000E+00 0.  1.
<mgrwt>
<rscale>  0 0.49469102E+02</rscale>
<asrwt>0</asrwt>
<pdfrwt beam="1">  1        2 0.18244867E+00 0.48843909E+02</pdfrwt>
<pdfrwt beam="2">  1       -2 0.50395967E-01 0.50102297E+02</pdfrwt>
<totfact> 0.86777919E+01</totfact>
</mgrwt>
</event>
<event>
 7    1  0.5277388E-004  0.6508176E+02  0.7546771E-02  0.1464199E+00
          2   -1    0    0  503    0  0.00000000000E+00  0.00000000000E+00  0.24784961072E+03  0.24784961072E+03  0.00000000000E+00 0. -1.
          1   -1    0    0  502    0 -0.00000000000E+00 -0.00000000000E+00 -0.16346928793E+04  0.16346928793E+04  0.00000000000E+00 0. -1.
         25    2    1    2    0    0 -0.46899627012E+02  0.82473605704E+02 -0.99833192835E+03  0.10105907878E+04  0.12500252213E+03 0.  0.
          4    1    3    3  501    0  0.23582566742E+02 -0.14790906339E+02 -0.35842462678E+03  0.35950623687E+03  0.12700000000E+01 0. -1.
         -4    1    3    3    0  501 -0.70482193754E+02  0.97264512043E+02 -0.63990730158E+03  0.65108455092E+03  0.12700000000E+01 0. -1.
          2    1    1    2  502    0  0.26106286917E+02 -0.20931914799E+02 -0.62541188778E+03  0.62630640477E+03  0.00000000000E+00 0. -1.
          1    1    1    2  503    0  0.20793340095E+02 -0.61541690905E+02  0.23690054758E+03  0.24564529744E+03  0.00000000000E+00 0. -1.
<mgrwt>
<rscale>  0 0.46666308E+02</rscale>
<asrwt>0</asrwt>
<pdfrwt beam="1">  1        2 0.38130710E-01 0.65081759E+02</pdfrwt>
<pdfrwt beam="2">  1        1 0.25149121E+00 0.33461669E+02</pdfrwt>
<totfact> 0.13133276E+02</totfact>
</mgrwt>
</event>
<event>
 7    1  0.5277388E-004  0.8462033E+02  0.7546771E-02  0.1422236E+00
          2   -1    0    0  503    0  0.00000000000E+00  0.00000000000E+00  0.13859196725E+04  0.13859196725E+04  0.00000000000E+00 0. -1.
         -2   -1    0    0    0  501 -0.00000000000E+00 -0.00000000000E+00 -0.83158550989E+02  0.83158550989E+02  0.00000000000E+00 0.  1.
         25    2    1    2    0    0 -0.43914466286E+02  0.33070079860E+02  0.34770906759E+03  0.37356207894E+03  0.12499968242E+03 0.  0.
          4    1    3    3  502    0 -0.12327728788E+02  0.70226505405E+02  0.11139940683E+03  0.13226933015E+03  0.12700000000E+01 0.  1.
         -4    1    3    3    0  502 -0.31586737498E+02 -0.37156425545E+02  0.23630966076E+03  0.24129274878E+03  0.12700000000E+01 0.  1.
          1    1    1    2  503    0 -0.12921579297E+02  0.32706147070E+02  0.99795567988E+03  0.99857508395E+03  0.00000000000E+00 0. -1.
         -1    1    1    2    0  501  0.56836045583E+02 -0.65776226929E+02 -0.42903625976E+02  0.96941060591E+02  0.00000000000E+00 0.  1.
<mgrwt>
<rscale>  0 0.54550644E+02</rscale>
<asrwt>0</asrwt>
<pdfrwt beam="1">  1        2 0.21321839E+00 0.35166167E+02</pdfrwt>
<pdfrwt beam="2">  1       -2 0.12793624E-01 0.84620334E+02</pdfrwt>
<totfact> 0.77246617E+02</totfact>
</mgrwt>
</event>
<event>
 7    1  0.5277388E-004  0.1482973E+03  0.7546771E-02  0.1321700E+00
         -1   -1    0    0    0  502 -0.00000000000E+00  0.00000000000E+00  0.24116541249E+03  0.24116541249E+03  0.00000000000E+00 0.  1.
         -2   -1    0    0    0  501  0.00000000000E+00 -0.00000000000E+00 -0.19638121891E+04  0.19638121891E+04  0.00000000000E+00 0.  1.
         25    2    1    2    0    0 -0.15962114788E+03 -0.10520136555E+03 -0.13662959783E+03  0.26615700327E+03  0.12500266087E+03 0.  0.
          4    1    3    3  503    0 -0.82737982431E+02  0.49896220252E+01 -0.93679683881E+02  0.12509183082E+03  0.12700000000E+01 0.  1.
         -4    1    3    3    0  503 -0.76883165453E+02 -0.11019098757E+03 -0.42949913946E+02  0.14106517246E+03  0.12700000000E+01 0.  1.
         -2    1    1    2    0  502  0.32695654489E+02  0.32443658935E+02  0.17030077569E+03  0.17641981473E+03  0.00000000000E+00 0.  1.
         -1    1    1    2    0  501  0.12692549340E+03  0.72757706613E+02 -0.17563179545E+04  0.17624007836E+04  0.00000000000E+00 0.  1.
<mgrwt>
<rscale>  0 0.82647996E+02</rscale>
<asrwt>0</asrwt>
<pdfrwt beam="2">  1       -2 0.30212496E+00 0.14829730E+03</pdfrwt>
<pdfrwt beam="1">  1       -1 0.37102371E-01 0.46060795E+02</pdfrwt>
<totfact> 0.19750364E+00</totfact>
</mgrwt>
</event>
<event>
 7    1  0.5277388E-004  0.5758424E+02  0.7546771E-02  0.1478964E+00
         -1   -1    0    0    0  501 -0.00000000000E+00  0.00000000000E+00  0.59913423433E+03  0.59913423433E+03  0.00000000000E+00 0.  1.
          1   -1    0    0  503    0  0.00000000000E+00 -0.00000000000E+00 -0.19143194872E+03  0.19143194872E+03  0.00000000000E+00 0. -1.
         25    2    1    2    0    0  0.34330537631E+02  0.45457093831E+02  0.19913557377E+02  0.13880156763E+03  0.12499756884E+03 0.  0.
          4    1    3    3  502    0 -0.79186917415E+01 -0.40319904083E+02  0.12117472933E+02  0.42858446011E+02  0.12700000000E+01 0.  1.
         -4    1    3    3    0  502  0.42249229373E+02  0.85776997915E+02  0.77960844441E+01  0.95943121622E+02  0.12700000000E+01 0.  1.
          2    1    1    2  503    0  0.20554733328E+02 -0.27122371951E+02 -0.12814963330E+03  0.13259128416E+03  0.00000000000E+00 0. -1.
         -2    1    1    2    0  501 -0.54885270959E+02 -0.18334721880E+02  0.51593836152E+03  0.51917333125E+03  0.00000000000E+00 0.  1.
<mgrwt>
<rscale>  0 0.44268033E+02</rscale>
<asrwt>0</asrwt>
<pdfrwt beam="2">  1        1 0.29451069E-01 0.34031164E+02</pdfrwt>
<pdfrwt beam="1">  1       -1 0.92174497E-01 0.57584241E+02</pdfrwt>
<totfact> 0.19163181E+02</totfact>
</mgrwt>
</event>
<event>
 7    1  0.5277388E-004  0.4961954E+02  0.7546771E-02  0.1478502E+00
          1   -1    0    0  503    0  0.00000000000E+00  0.00000000000E+00  0.49853537923E+03  0.49853537923E+03  0.00000000000E+00 0. -1.
         -1   -1    0    0    0  501 -0.00000000000E+00 -0.00000000000E+00 -0.16502703151E+03  0.16502703151E+03  0.00000000000E+00 0.  1.
         25    2    1    2    0    0 -0.43249500459E+02  0.68566419745E+01 -0.33787026331E+02  0.13669696485E+03  0.12500785664E+03 0.  0.
          4    1    3    3  502    0 -0.84920476505E+02 -0.12298336174E+02 -0.28926987589E+02  0.90560034857E+02  0.12700000000E+01 0.  1.
         -4    1    3    3    0  502  0.41670976045E+02  0.19154978148E+02 -0.48600387419E+01  0.46136929991E+02  0.12700000000E+01 0.  1.
          2    1    1    2  503    0  0.26129742949E+02 -0.42590332629E+02  0.44066044014E+03  0.44348429893E+03  0.00000000000E+00 0. -1.
         -2    1    1    2    0  501  0.17119757510E+02  0.35733690654E+02 -0.73365066087E+02  0.83381146951E+02  0.00000000000E+00 0.  1.
<mgrwt>
<rscale>  0 0.44340449E+02</rscale>
<asrwt>0</asrwt>
<pdfrwt beam="1">  1        1 0.76697750E-01 0.49619540E+02</pdfrwt>
<pdfrwt beam="2">  1       -1 0.25388774E-01 0.39623008E+02</pdfrwt>
<totfact> 0.61164086E+02</totfact>
</mgrwt>
</event>
<event>
 7    1  0.2502292E-003  0.8903809E+02  0.7546771E-02  0.1352320E+00
          2   -1    0    0  503    0  0.00000000000E+00  0.00000000000E+00  0.38154656438E+03  0.38154656438E+03  0.00000000000E+00 0. -1.
         -2   -1    0    0    0  501 -0.00000000000E+00 -0.00000000000E+00 -0.63476386425E+02  0.63476386425E+02  0.00000000000E+00 0.  1.
         25    2    1    2    0    0  0.11035391868E+03  0.14412174540E+02  0.18054194924E+03  0.24618383383E+03  0.12500154583E+03 0.  0.
          4    1    3    3  502    0  0.98628696000E+01  0.24922882032E+02 -0.11489084839E+02  0.29189693660E+02  0.12700000000E+01 0.  1.
         -4    1    3    3    0  502  0.10049104908E+03 -0.10510707491E+02  0.19203103408E+03  0.21699414017E+03  0.12700000000E+01 0.  1.
          3    1    1    2  503    0 -0.65051240385E+02 -0.51848477143E+02  0.95138215401E+02  0.12637724672E+03  0.00000000000E+00 0. -1.
         -3    1    1    2    0  501 -0.45302678297E+02  0.37436302603E+02  0.42390013318E+02  0.72461870266E+02  0.00000000000E+00 0.  1.
<mgrwt>
<rscale>  0 0.72337337E+02</rscale>
<asrwt>0</asrwt>
<pdfrwt beam="1">  1        2 0.58699470E-01 0.89038092E+02</pdfrwt>
<pdfrwt beam="2">  1       -2 0.97655981E-02 0.58769120E+02</pdfrwt>
<totfact> 0.52498137E+03</totfact>
</mgrwt>
</event>
<event>
 7    1  0.5277388E-004  0.9942701E+02  0.7546771E-02  0.1341341E+00
         -2   -1    0    0    0  501 -0.00000000000E+00  0.00000000000E+00  0.11271356242E+04  0.11271356242E+04  0.00000000000E+00 0.  1.
          2   -1    0    0  503    0  0.00000000000E+00 -0.00000000000E+00 -0.23589715029E+03  0.23589715029E+03  0.00000000000E+00 0. -1.
         25    2    1    2    0    0  0.10739734254E+02 -0.84347568221E+02  0.53372574749E+03  0.55472400477E+03  0.12500277507E+03 0.  0.
          4    1    3    3  502    0 -0.53716884824E+02 -0.48247306612E+02  0.33528318949E+03  0.34297191775E+03  0.12700000000E+01 0. -1.
         -4    1    3    3    0  502  0.64456619078E+02 -0.36100261610E+02  0.19844255800E+03  0.21175208702E+03  0.12700000000E+01 0. -1.
          1    1    1    2  503    0  0.57731013304E+02 -0.32553648614E+01 -0.21626284503E+03  0.22385952166E+03  0.00000000000E+00 0. -1.
         -1    1    1    2    0  501 -0.68470747558E+02  0.87602933083E+02  0.57377557146E+03  0.58444924806E+03  0.00000000000E+00 0.  1.
<mgrwt>
<rscale>  0 0.75823085E+02</rscale>
<asrwt>0</asrwt>
<pdfrwt beam="2">  1        2 0.36291870E-01 0.57822723E+02</pdfrwt>
<pdfrwt beam="1">  1       -2 0.17340548E+00 0.99427005E+02</pdfrwt>
<totfact> 0.32023714E+01</totfact>
</mgrwt>
</event>
<event>
 7    1  0.5277388E-004  0.5195602E+02  0.7546771E-02  0.1522751E+00
          1   -1    0    0  502    0 -0.00000000000E+00  0.00000000000E+00  0.60526199096E+03  0.60526199096E+03  0.00000000000E+00 0. -1.
          2   -1    0    0  503    0  0.00000000000E+00 -0.00000000000E+00 -0.80598213914E+02  0.80598213914E+02  0.00000000000E+00 0. -1.
         25    2    1    2    0    0 -0.22565989923E+02 -0.11507596556E+02  0.23351618823E+03  0.26607499391E+03  0.12499777414E+03 0.  0.
          4    1    3    3  501    0  0.49319654573E+02  0.11724661794E+02  0.11261621417E+03  0.12350676344E+03  0.12700000000E+01 0.  1.
         -4    1    3    3    0  501 -0.71885644496E+02 -0.23232258351E+02  0.12089997406E+03  0.14256823047E+03  0.12700000000E+01 0.  1.
          2    1    1    2  502    0 -0.22976081763E+02 -0.15872459043E+02  0.34382725793E+03  0.34495944484E+03  0.00000000000E+00 0. -1.
          1    1    1    2  503    0  0.45542071685E+02  0.27380055599E+02 -0.52679669111E+02  0.74825766122E+02  0.00000000000E+00 0. -1.
<mgrwt>
<rscale>  0 0.38090674E+02</rscale>
<asrwt>0</asrwt>
<pdfrwt beam="2">  1        2 0.12399726E-01 0.51956020E+02</pdfrwt>
<pdfrwt beam="1">  1        1 0.93117226E-01 0.27925531E+02</pdfrwt>
<totfact> 0.22823182E+03</totfact>
</mgrwt>
</event>
<event>
 7    1  0.5277388E-004  0.1212860E+03  0.7546771E-02  0.1341906E+00
          2   -1    0    0  503    0  0.00000000000E+00  0.00000000000E+00  0.25208934327E+03  0.25208934327E+03  0.00000000000E+00 0. -1.
          1   -1    0    0  502    0 -0.00000000000E+00 -0.00000000000E+00 -0.27289061644E+03  0.27289061644E+03  0.00000000000E+00 0. -1.
         25    2    1    2    0    0 -0.48643625197E+02 -0.80829877206E+02 -0.32503826595E+02  0.15994058836E+03  0.12499928696E+03 0.  0.
          4    1    3    3  501    0  0.24058225285E+02  0.65913919238E+01 -0.38703368469E+02  0.46063090237E+02  0.12700000000E+01 0.  1.
         -4    1    3    3    0  501 -0.72701850482E+02 -0.87421269129E+02  0.61995418737E+01  0.11387749812E+03  0.12700000000E+01 0.  1.
          2    1    1    2  502    0  0.39156845603E+02  0.12703688843E+03 -0.14775325525E+03  0.19875274593E+03  0.00000000000E+00 0. -1.
          1    1    1    2  503    0  0.94867795934E+01 -0.46207011225E+02  0.15945580868E+03  0.16628662542E+03  0.00000000000E+00 0. -1.
<mgrwt>
<rscale>  0 0.75638353E+02</rscale>
<asrwt>0</asrwt>
<pdfrwt beam="1">  1        2 0.38782976E-01 0.47170827E+02</pdfrwt>
<pdfrwt beam="2">  1        1 0.41983172E-01 0.12128599E+03</pdfrwt>
<totfact> 0.17278925E+03</totfact>
</mgrwt>
</event>
<event>
 7    1  0.5277388E-004  0.7900398E+02  0.7546771E-02  0.1401967E+00
          2   -1    0    0  503    0  0.00000000000E+00  0.00000000000E+00  0.11011763227E+04  0.11011763227E+04  0.00000000000E+00 0. -1.
         -2   -1    0    0    0  501 -0.00000000000E+00 -0.00000000000E+00 -0.69358581556E+02  0.69358581556E+02  0.00000000000E+00 0.  1.
         25    2    1    2    0    0  0.12839993531E+01  0.87124966755E+02  0.38876747611E+03  0.41756009922E+03  0.12499550989E+03 0.  0.
          4    1    3    3  502    0  0.11475581966E+01  0.98000103232E+02  0.39357877260E+03  0.40559980309E+03  0.12700000000E+01 0. -1.
         -4    1    3    3    0  502  0.13644115645E+00 -0.10875136477E+02 -0.48112964931E+01  0.11960296130E+02  0.12700000000E+01 0. -1.
          1    1    1    2  503    0 -0.40200449792E+02 -0.18129231687E+02  0.66836163637E+03  0.66981491636E+03  0.00000000000E+00 0. -1.
         -3    1    1    2    0  501  0.38916450439E+02 -0.68995735068E+02 -0.25311371305E+02  0.83159888707E+02  0.00000000000E+00 0.  1.
<mgrwt>
<rscale>  0 0.59025565E+02</rscale>
<asrwt>0</asrwt>
<pdfrwt beam="1">  1        2 0.16941173E+00 0.44099265E+02</pdfrwt>
<pdfrwt beam="2">  1       -2 0.10670552E-01 0.79003977E+02</pdfrwt>
<totfact> 0.14098488E+03</totfact>
</mgrwt>
</event>
<event>
 7    1  0.5277388E-004  0.1255516E+03  0.7546771E-02  0.1319166E+00
          1   -1    0    0  502    0 -0.00000000000E+00  0.00000000000E+00  0.18023043684E+04  0.18023043684E+04  0.00000000000E+00 0. -1.
          2   -1    0    0  503    0  0.00000000000E+00 -0.00000000000E+00 -0.47603098665E+03  0.47603098665E+03  0.00000000000E+00 0. -1.
         25    2    1    2    0    0 -0.97502825793E+02  0.67073277335E+02  0.25441915957E+02  0.17402127771E+03  0.12502195182E+03 0.  0.
          4    1    3    3  501    0 -0.60490812072E+02  0.10301567299E+03  0.26623068237E+02  0.12240003222E+03  0.12700000000E+01 0.  1.
         -4    1    3    3    0  501 -0.37012013721E+02 -0.35942395650E+02 -0.11811522802E+01  0.51621245486E+02  0.12700000000E+01 0.  1.
          2    1    1    2  502    0 -0.28420511691E+02 -0.47846029579E+02  0.16920062693E+04  0.16929211983E+04  0.00000000000E+00 0. -1.
          1    1    1    2  503    0  0.12592333748E+03 -0.19227247757E+02 -0.39117480358E+03  0.41139287905E+03  0.00000000000E+00 0. -1.
<mgrwt>
<rscale>  0 0.83588254E+02</rscale>
<asrwt>0</asrwt>
<pdfrwt beam="2">  1        2 0.73235537E-01 0.12555157E+03</pdfrwt>
<pdfrwt beam="1">  1        1 0.27727759E+00 0.55650409E+02</pdfrwt>
<totfact> 0.49250905E+01</totfact>
</mgrwt>
</event>
<event>
 7    1  0.5277388E-004  0.1905652E+03  0.7546771E-02  0.1184889E+00
         -1   -1    0    0    0  501 -0.00000000000E+00  0.00000000000E+00  0.33304103608E+03  0.33304103608E+03  0.00000000000E+00 0.  1.
          1   -1    0    0  503    0  0.00000000000E+00 -0.00000000000E+00 -0.12489163973E+04  0.12489163973E+04  0.00000000000E+00 0. -1.
         25    2    1    2    0    0 -0.82059982650E+02  0.30683056028E+03  0.28558492148E+02  0.34251812215E+03  0.12499697216E+03 0.  0.
          4    1    3    3  502    0 -0.14571654736E+02  0.16041754373E+02  0.38093873497E+02  0.43845491252E+02  0.12700000000E+01 0.  1.
         -4    1    3    3    0  502 -0.67488327914E+02  0.29078880591E+03 -0.95353813492E+01  0.29867263089E+03  0.12700000000E+01 0.  1.
          2    1    1    2  503    0  0.13213150242E+02 -0.18476712140E+03 -0.10485934900E+04  0.10648294623E+04  0.00000000000E+00 0. -1.
         -2    1    1    2    0  501  0.68846832408E+02 -0.12206343888E+03  0.10415963663E+03  0.17460984894E+03  0.00000000000E+00 0.  1.
<mgrwt>
<rscale>  0 0.16341944E+03</rscale>
<asrwt>0</asrwt>
<pdfrwt beam="2">  1        1 0.19214099E+00 0.19056522E+03</pdfrwt>
<pdfrwt beam="1">  1       -1 0.51237082E-01 0.14014053E+03</pdfrwt>
<totfact> 0.43626350E+01</totfact>
</mgrwt>
</event>
<event>
 7    1  0.5277388E-004  0.8237790E+02  0.7546771E-02  0.1402365E+00
          2   -1    0    0  503    0  0.00000000000E+00  0.00000000000E+00  0.18451812084E+03  0.18451812084E+03  0.00000000000E+00 0. -1.
          1   -1    0    0  502    0 -0.00000000000E+00 -0.00000000000E+00 -0.86016340514E+03  0.86016340514E+03  0.00000000000E+00 0. -1.
         25    2    1    2    0    0 -0.38603608261E+02  0.23089210172E+02 -0.32978184006E+03  0.35553295198E+03  0.12499707081E+03 0.  0.
          4    1    3    3  501    0 -0.57621019199E+01  0.28122910926E+02 -0.31941507897E+03  0.32070501323E+03  0.12700000000E+01 0. -1.
         -4    1    3    3    0  501 -0.32841506341E+02 -0.50337007535E+01 -0.10366761091E+02  0.34827938749E+02  0.12700000000E+01 0. -1.
          2    1    1    2  502    0 -0.18518066723E+02  0.37875773893E+02 -0.50641196765E+03  0.50816392436E+03  0.00000000000E+00 0. -1.
          1    1    1    2  503    0  0.57121674984E+02 -0.60964984066E+02  0.16054852341E+03  0.18098464964E+03  0.00000000000E+00 0. -1.
<mgrwt>
<rscale>  0 0.58932836E+02</rscale>
<asrwt>0</asrwt>
<pdfrwt beam="1">  1        2 0.28387403E-01 0.82377903E+02</pdfrwt>
<pdfrwt beam="2">  1        1 0.13233283E+00 0.42160325E+02</pdfrwt>
<totfact> 0.56272752E+02</totfact>
</mgrwt>
</event>
<event>
 7    1  0.5277388E-004  0.3280032E+02  0.7546771E-02  0.1584095E+00
          2   -1    0    0  503    0  0.00000000000E+00  0.00000000000E+00  0.73550447023E+02  0.73550447023E+02  0.00000000000E+00 0. -1.
          1   -1    0    0  502    0 -0.00000000000E+00 -0.00000000000E+00 -0.16023503617E+04  0.16023503617E+04  0.00000000000E+00 0. -1.
         25    2    1    2    0    0 -0.56897329156E+02  0.16242369335E+02 -0.12013705705E+03  0.18318896883E+03  0.12499666075E+03 0.  0.
          4    1    3    3  501    0 -0.38474708337E+02  0.10852321826E+02 -0.14576036172E+03  0.15114817902E+03  0.12700000000E+01 0. -1.
         -4    1    3    3    0  501 -0.18422620819E+02  0.53900475093E+01  0.25623304670E+02  0.32040789818E+02  0.12700000000E+01 0. -1.
          2    1    1    2  502    0  0.27087031904E+02 -0.18252468168E+02 -0.14451688342E+04  0.14455378996E+04  0.00000000000E+00 0. -1.
          1    1    1    2  503    0  0.29810297252E+02  0.20100988331E+01  0.36505976547E+02  0.47173940298E+02  0.00000000000E+00 0. -1.
<mgrwt>
<rscale>  0 0.31305074E+02</rscale>
<asrwt>0</asrwt>
<pdfrwt beam="1">  1        2 0.11315454E-01 0.29877991E+02</pdfrwt>
<pdfrwt beam="2">  1        1 0.24651542E+00 0.32800319E+02</pdfrwt>
<totfact> 0.49694822E+02</totfact>
</mgrwt>
</event>
<event>
 7    1  0.5277388E-004  0.6917835E+02  0.7546771E-02  0.1486276E+00
         -1   -1    0    0    0  501 -0.00000000000E+00  0.00000000000E+00  0.21528748338E+03  0.21528748338E+03  0.00000000000E+00 0.  1.
          1   -1    0    0  503    0  0.00000000000E+00 -0.00000000000E+00 -0.26946002044E+03  0.26946002044E+03  0.00000000000E+00 0. -1.
         25    2    1    2    0    0 -0.14292687469E+02  0.72091492282E+02  0.88566549591E+01  0.14524990532E+03  0.12497051846E+03 0.  0.
          4    1    3    3  502    0  0.30197097820E+02  0.84302580920E+02  0.30050111389E+02  0.94463812971E+02  0.12700000000E+01 0.  1.
         -4    1    3    3    0  502 -0.44489785290E+02 -0.12211088638E+02 -0.21193456430E+02  0.50786092351E+02  0.12700000000E+01 0.  1.
          2    1    1    2  503    0 -0.12317014273E+02 -0.68104940359E+02 -0.19390412580E+03  0.20588540926E+03  0.00000000000E+00 0. -1.
         -2    1    1    2    0  501  0.26609701743E+02 -0.39865519229E+01  0.13087493378E+03  0.13361218925E+03  0.00000000000E+00 0.  1.
<mgrwt>
<rscale>  0 0.43143469E+02</rscale>
<asrwt>0</asrwt>
<pdfrwt beam="2">  1        1 0.41455388E-01 0.69178349E+02</pdfrwt>
<pdfrwt beam="1">  1       -1 0.33121151E-01 0.26906669E+02</pdfrwt>
<totfact> 0.83188202E+02</totfact>
</mgrwt>
</event>
<event>
 7    1  0.5277388E-004  0.1140697E+03  0.7546771E-02  0.1436021E+00
          2   -1    0    0  503    0  0.00000000000E+00  0.00000000000E+00  0.27364186207E+04  0.27364186207E+04  0.00000000000E+00 0. -1.
         -2   -1    0    0    0  501 -0.00000000000E+00 -0.00000000000E+00 -0.24916538902E+03  0.24916538902E+03  0.00000000000E+00 0.  1.
         25    2    1    2    0    0 -0.23505721263E+02 -0.89124933802E+02  0.13520948389E+04  0.13609851995E+04  0.12499794818E+03 0.  0.
          4    1    3    3  502    0 -0.63674054230E+02 -0.25151663453E+02  0.90187118216E+03  0.90446682275E+03  0.12700000000E+01 0. -1.
         -4    1    3    3    0  502  0.40168332967E+02 -0.63973270348E+02  0.45022365677E+03  0.45651837674E+03  0.12700000000E+01 0. -1.
          1    1    1    2  503    0  0.29844783715E+01 -0.23305428185E+02  0.13664285860E+04  0.13666305758E+04  0.00000000000E+00 0. -1.
         -1    1    1    2    0  501  0.20521242892E+02  0.11243036199E+03 -0.23127019322E+03  0.25796823444E+03  0.00000000000E+00 0.  1.
<mgrwt>
<rscale>  0 0.51770183E+02</rscale>
<asrwt>0</asrwt>
<pdfrwt beam="1">  1        2 0.42098746E+00 0.23495746E+02</pdfrwt>
<pdfrwt beam="2">  1       -2 0.38333139E-01 0.11406966E+03</pdfrwt>
<totfact> 0.28061910E+01</totfact>
</mgrwt>
</event>
<event>
 7    1  0.5277388E-004  0.1068979E+03  0.7546771E-02  0.1275318E+00
          1   -1    0    0  503    0  0.00000000000E+00  0.00000000000E+00  0.84991387938E+03  0.84991387938E+03  0.00000000000E+00 0. -1.
         -1   -1    0    0    0  501 -0.00000000000E+00 -0.00000000000E+00 -0.12935826915E+03  0.12935826915E+03  0.00000000000E+00 0.  1.
         25    2    1    2    0    0  0.12258289008E+03 -0.70931915801E+02  0.46372186994E+03  0.50071794714E+03  0.12499035287E+03 0.  0.
          4    1    3    3  502    0  0.10146547873E+03 -0.38240800379E+02  0.44403571604E+03  0.45708525705E+03  0.12700000000E+01 0.  1.
         -4    1    3    3    0  502  0.21117411345E+02 -0.32691115422E+02  0.19686153893E+02  0.43632690091E+02  0.12700000000E+01 0.  1.
          2    1    1    2  503    0 -0.18613299069E+02  0.96319160542E+02  0.33302889373E+03  0.34717730290E+03  0.00000000000E+00 0. -1.
         -2    1    1    2    0  501 -0.10396959101E+03 -0.25387244741E+02 -0.76195153441E+02  0.13137689850E+03  0.00000000000E+00 0.  1.
<mgrwt>
<rscale>  0 0.10240513E+03</rscale>
<asrwt>0</asrwt>
<pdfrwt beam="1">  1        1 0.13075598E+00 0.98101150E+02</pdfrwt>
<pdfrwt beam="2">  1       -1 0.19901273E-01 0.10689793E+03</pdfrwt>
<totfact> 0.43912947E+02</totfact>
</mgrwt>
</event>
<event>
 7    1  0.5277388E-004  0.1235698E+03  0.7546771E-02  0.1303572E+00
          2   -1    0    0  503    0  0.00000000000E+00  0.00000000000E+00  0.51963863049E+03  0.51963863049E+03  0.00000000000E+00 0. -1.
          1   -1    0    0  502    0 -0.00000000000E+00 -0.00000000000E+00 -0.51682635998E+03  0.51682635998E+03  0.00000000000E+00 0. -1.
         25    2    1    2    0    0 -0.12086339983E+03 -0.29160649741E+02 -0.11657518318E+03  0.21135363191E+03  0.12498911744E+03 0.  0.
          4    1    3    3  501    0  0.22472098265E+02 -0.19892695556E+02 -0.74119049708E+01  0.30939679575E+02  0.12700000000E+01 0.  1.
         -4    1    3    3    0  501 -0.14333549809E+03 -0.92679541851E+01 -0.10916327821E+03  0.18041395233E+03  0.12700000000E+01 0.  1.
          2    1    1    2  502    0  0.31300218649E+02 -0.57102475260E+02 -0.34154640131E+03  0.34769863477E+03  0.00000000000E+00 0. -1.
          1    1    1    2  503    0  0.89563181177E+02  0.86263125001E+02  0.46093385500E+03  0.47741272380E+03  0.00000000000E+00 0. -1.
<mgrwt>
<rscale>  0 0.89703158E+02</rscale>
<asrwt>0</asrwt>
<pdfrwt beam="1">  1        2 0.79944405E-01 0.12356977E+03</pdfrwt>
<pdfrwt beam="2">  1        1 0.79511748E-01 0.65118326E+02</pdfrwt>
<totfact> 0.36920063E+02</totfact>
</mgrwt>
</event>
<event>
 7    1  0.5277388E-004  0.1149128E+03  0.7546771E-02  0.1365129E+00
          2   -1    0    0  503    0  0.00000000000E+00  0.00000000000E+00  0.47928922526E+02  0.47928922526E+02  0.00000000000E+00 0. -1.
          1   -1    0    0  502    0 -0.00000000000E+00 -0.00000000000E+00 -0.20279120374E+04  0.20279120374E+04  0.00000000000E+00 0. -1.
         25    2    1    2    0    0 -0.79083752682E+02  0.10063560712E+03 -0.10377628683E+04  0.10530716628E+04  0.12500556288E+03 0.  0.
          4    1    3    3  501    0 -0.81831344269E+02  0.99458630238E+02 -0.53456748191E+03  0.54986579603E+03  0.12700000000E+01 0.  1.
         -4    1    3    3    0  501  0.27475915874E+01  0.11769768797E+01 -0.50319538637E+03  0.50320586672E+03  0.12700000000E+01 0.  1.
          2    1    1    2  502    0 -0.16266599156E+02 -0.37505253254E+02 -0.89990957546E+03  0.90083766033E+03  0.00000000000E+00 0. -1.
          1    1    1    2  503    0  0.95350351838E+02 -0.63130353863E+02 -0.42310671157E+02  0.12193163686E+03  0.00000000000E+00 0. -1.
<mgrwt>
<rscale>  0 0.68540045E+02</rscale>
<asrwt>0</asrwt>
<pdfrwt beam="1">  1        2 0.73736787E-02 0.11491284E+03</pdfrwt>
<pdfrwt beam="2">  1        1 0.31198654E+00 0.40880879E+02</pdfrwt>
<totfact> 0.49591073E+02</totfact>
</mgrwt>
</event>
<event>
 7    1  0.5277388E-004  0.6541830E+02  0.7546771E-02  0.1455907E+00
          1   -1    0    0  503    0  0.00000000000E+00  0.00000000000E+00  0.41543733404E+03  0.41543733404E+03  0.00000000000E+00 0. -1.
         -1   -1    0    0    0  501 -0.00000000000E+00 -0.00000000000E+00 -0.14594600194E+04  0.14594600194E+04  0.00000000000E+00 0.  1.
         25    2    1    2    0    0 -0.71739337860E+02 -0.61850588647E+02  0.92885516497E+02  0.18227881490E+03  0.12500327705E+03 0.  0.
          4    1    3    3  502    0 -0.29254572414E+02 -0.96616222288E+02  0.69667560509E+02  0.12266094042E+03  0.12700000000E+01 0. -1.
         -4    1    3    3    0  502 -0.42484765446E+02  0.34765633641E+02  0.23217955988E+02  0.59617874482E+02  0.12700000000E+01 0. -1.
          2    1    1    2  503    0  0.13308502283E+02  0.32755903239E+02  0.27597387049E+03  0.27822947835E+03  0.00000000000E+00 0. -1.
         -2    1    1    2    0  501  0.58430835577E+02  0.29094685408E+02 -0.14128820724E+04  0.14143890602E+04  0.00000000000E+00 0.  1.
<mgrwt>
<rscale>  0 0.48093103E+02</rscale>
<asrwt>0</asrwt>
<pdfrwt beam="1">  1        1 0.63913437E-01 0.35356264E+02</pdfrwt>
<pdfrwt beam="2">  1       -1 0.22453231E+00 0.65418297E+02</pdfrwt>
<totfact> 0.79366247E+00</totfact>
</mgrwt>
</event>
<event>
 7    1  0.5277388E-004  0.3069584E+02  0.7546771E-02  0.1624394E+00
          2   -1    0    0  503    0  0.00000000000E+00  0.00000000000E+00  0.55319138901E+03  0.55319138901E+03  0.00000000000E+00 0. -1.
          1   -1    0    0  502    0 -0.00000000000E+00 -0.00000000000E+00 -0.12049796457E+03  0.12049796457E+03  0.00000000000E+00 0. -1.
         25    2    1    2    0    0 -0.16571122147E+02  0.43557797138E+02  0.33841654103E+02  0.13763366039E+03  0.12500353251E+03 0.  0.
          4    1    3    3  501    0 -0.10714361334E+02 -0.33687789001E+02  0.47229626636E+02  0.59007755412E+02  0.12700000000E+01 0. -1.
         -4    1    3    3    0  501 -0.58567608131E+01  0.77245586139E+02 -0.13387972533E+02  0.78625904978E+02  0.12700000000E+01 0. -1.
          2    1    1    2  502    0  0.23279297109E+02 -0.19386622845E+02 -0.64901852855E+02  0.71624139249E+02  0.00000000000E+00 0. -1.
          1    1    1    2  503    0 -0.67081749613E+01 -0.24171174292E+02  0.46375362319E+03  0.46443155395E+03  0.00000000000E+00 0. -1.
<mgrwt>
<rscale>  0 0.27748836E+02</rscale>
<asrwt>0</asrwt>
<pdfrwt beam="1">  1        2 0.85106366E-01 0.25084762E+02</pdfrwt>
<pdfrwt beam="2">  1        1 0.18538149E-01 0.30695843E+02</pdfrwt>
<totfact> 0.20256495E+03</totfact>
</mgrwt>
</event>
<event>
 7    1  0.5277388E-004  0.1085762E+03  0.7546771E-02  0.1343776E+00
          2   -1    0    0  503    0  0.00000000000E+00  0.00000000000E+00  0.32095140536E+03  0.32095140536E+03  0.00000000000E+00 0. -1.
          1   -1    0    0  502    0 -0.00000000000E+00 -0.00000000000E+00 -0.94140966853E+03  0.94140966853E+03  0.00000000000E+00 0. -1.
         25    2    1    2    0    0  0.84112105501E+02 -0.38704295819E+02 -0.11088528697E+03  0.19103212286E+03  0.12499942516E+03 0.  0.
          4    1    3    3  501    0  0.41157283556E+01 -0.66700587292E+02 -0.70471084278E+02  0.97127206201E+02  0.12700000000E+01 0. -1.
         -4    1    3    3    0  501  0.79996377146E+02  0.27996291473E+02 -0.40414202695E+02  0.93904916656E+02  0.12700000000E+01 0. -1.
          2    1    1    2  502    0 -0.67879324049E+02  0.87947285125E+02 -0.78410871047E+03  0.79193989509E+03  0.00000000000E+00 0. -1.
          1    1    1    2  503    0 -0.16232781452E+02 -0.49242989306E+02  0.27453573428E+03  0.27938905595E+03  0.00000000000E+00 0. -1.
<mgrwt>
<rscale>  0 0.75030847E+02</rscale>
<asrwt>0</asrwt>
<pdfrwt beam="1">  1        2 0.49377138E-01 0.51849544E+02</pdfrwt>
<pdfrwt beam="2">  1        1 0.14483226E+00 0.10857623E+03</pdfrwt>
<totfact> 0.25801580E+02</totfact>
</mgrwt>
</event>
<event>
 7    1  0.5277388E-004  0.5098969E+02  0.7546771E-02  0.1493449E+00
         -2   -1    0    0    0  501 -0.00000000000E+00  0.00000000000E+00  0.28287194334E+02  0.28287194334E+02  0.00000000000E+00 0.  1.
          2   -1    0    0  503    0  0.00000000000E+00 -0.00000000000E+00 -0.12056004740E+04  0.12056004740E+04  0.00000000000E+00 0. -1.
         25    2    1    2    0    0 -0.76206693033E+01 -0.16088721253E+02 -0.76980223071E+03  0.78008796600E+03  0.12499935495E+03 0.  0.
          4    1    3    3  502    0 -0.48129149491E+02  0.34808207693E+02 -0.30257397016E+03  0.30835149858E+03  0.12700000000E+01 0.  1.
         -4    1    3    3    0  502  0.40508480188E+02 -0.50896928946E+02 -0.46722826054E+03  0.47173646742E+03  0.12700000000E+01 0.  1.
          1    1    1    2  503    0 -0.20665545844E+02 -0.27906141842E+02 -0.39935764345E+03  0.40086449696E+03  0.00000000000E+00 0. -1.
         -1    1    1    2    0  501  0.28286215147E+02  0.43994863095E+02 -0.81534054925E+01  0.52935205367E+02  0.00000000000E+00 0.  1.
<mgrwt>
<rscale>  0 0.42078628E+02</rscale>
<asrwt>0</asrwt>
<pdfrwt beam="2">  1        2 0.18547700E+00 0.34724884E+02</pdfrwt>
<pdfrwt beam="1">  1       -2 0.43518760E-02 0.50989686E+02</pdfrwt>
<totfact> 0.46463643E+03</totfact>
</mgrwt>
</event>
<event>
 7    1  0.5277388E-004  0.1319877E+03  0.7546771E-02  0.1306163E+00
          1   -1    0    0  502    0 -0.00000000000E+00  0.00000000000E+00  0.13031423746E+03  0.13031423746E+03  0.00000000000E+00 0. -1.
          2   -1    0    0  503    0  0.00000000000E+00 -0.00000000000E+00 -0.12790127773E+04  0.12790127773E+04  0.00000000000E+00 0. -1.
         25    2    1    2    0    0 -0.16301238575E+03  0.31035302609E+02 -0.67649261691E+02  0.21848295671E+03  0.12498860688E+03 0.  0.
          4    1    3    3  501    0 -0.14580886475E+03  0.71957229894E+02 -0.45455824915E+02  0.16883694173E+03  0.12700000000E+01 0. -1.
         -4    1    3    3    0  501 -0.17203520999E+02 -0.40921927285E+02 -0.22193436776E+02  0.49646014980E+02  0.12700000000E+01 0. -1.
          2    1    1    2  502    0  0.11789111898E+03  0.78078213115E+01 -0.10472027029E+02  0.11861256830E+03  0.00000000000E+00 0. -1.
          1    1    1    2  503    0  0.45121266766E+02 -0.38843123921E+02 -0.10705772511E+04  0.10722314897E+04  0.00000000000E+00 0. -1.
<mgrwt>
<rscale>  0 0.88646593E+02</rscale>
<asrwt>0</asrwt>
<pdfrwt beam="2">  1        2 0.19677120E+00 0.59537526E+02</pdfrwt>
<pdfrwt beam="1">  1        1 0.20048344E-01 0.13198766E+03</pdfrwt>
<totfact> 0.67713080E+02</totfact>
</mgrwt>
</event>
<event>
 7    1  0.5277388E-004  0.1500662E+03  0.7546771E-02  0.1382843E+00
          2   -1    0    0  503    0  0.00000000000E+00  0.00000000000E+00  0.29225672796E+03  0.29225672796E+03  0.00000000000E+00 0. -1.
          1   -1    0    0  502    0 -0.00000000000E+00 -0.00000000000E+00 -0.11591340876E+04  0.11591340876E+04  0.00000000000E+00 0. -1.
         25    2    1    2    0    0 -0.67509631370E+02  0.12595532561E+03 -0.96224566750E+01  0.19010108971E+03  0.12499415290E+03 0.  0.
          4    1    3    3  501    0 -0.25169678945E+02 -0.12485499409E+02 -0.33098221427E+02  0.43433922173E+02  0.12700000000E+01 0. -1.
         -4    1    3    3    0  501 -0.42339952425E+02  0.13844082502E+03  0.23475764752E+02  0.14666716754E+03  0.12700000000E+01 0. -1.
          2    1    1    2  502    0  0.19391868554E+02  0.18870671747E+02 -0.10302476820E+04  0.10306029464E+04  0.00000000000E+00 0. -1.
          1    1    1    2  503    0  0.48117762816E+02 -0.14482599736E+03  0.17299277905E+03  0.23068677945E+03  0.00000000000E+00 0. -1.
<mgrwt>
<rscale>  0 0.63722237E+02</rscale>
<asrwt>0</asrwt>
<pdfrwt beam="1">  1        2 0.44962574E-01 0.15006622E+03</pdfrwt>
<pdfrwt beam="2">  1        1 0.17832832E+00 0.27058212E+02</pdfrwt>
<totfact> 0.22387543E+02</totfact>
</mgrwt>
</event>
<event>
 7    1  0.5277388E-004  0.3561097E+02  0.7546771E-02  0.1611634E+00
         -2   -1    0    0    0  501 -0.00000000000E+00  0.00000000000E+00  0.24604744084E+03  0.24604744084E+03  0.00000000000E+00 0.  1.
          2   -1    0    0  503    0  0.00000000000E+00 -0.00000000000E+00 -0.22947422567E+04  0.22947422567E+04  0.00000000000E+00 0. -1.
         25    2    1    2    0    0  0.46131005409E+01  0.32956061069E+02 -0.29444859736E+03  0.32160921656E+03  0.12500051614E+03 0.  0.
          4    1    3    3  502    0  0.31953089803E+02  0.73241251687E+02 -0.16595925279E+03  0.18419926000E+03  0.12700000000E+01 0. -1.
         -4    1    3    3    0  502 -0.27339989262E+02 -0.40285190618E+02 -0.12848934457E+03  0.13740995657E+03  0.12700000000E+01 0. -1.
          1    1    1    2  503    0 -0.26233924821E+02 -0.24252331890E+02 -0.19859680975E+04  0.19862894247E+04  0.00000000000E+00 0. -1.
         -1    1    1    2    0  501  0.21620824280E+02 -0.87037291785E+01  0.23172187893E+03  0.23289105634E+03  0.00000000000E+00 0.  1.
<mgrwt>
<rscale>  0 0.28809440E+02</rscale>
<asrwt>0</asrwt>
<pdfrwt beam="2">  1        2 0.35303726E+00 0.35610969E+02</pdfrwt>
<pdfrwt beam="1">  1       -2 0.37853453E-01 0.23306972E+02</pdfrwt>
<totfact> 0.43105960E+01</totfact>
</mgrwt>
</event>
<event>
 7    1  0.5277388E-004  0.7490549E+02  0.7546771E-02  0.1418223E+00
          2   -1    0    0  503    0  0.00000000000E+00  0.00000000000E+00  0.31504278957E+03  0.31504278957E+03  0.00000000000E+00 0. -1.
         -2   -1    0    0    0  501 -0.00000000000E+00 -0.00000000000E+00 -0.65398379971E+03  0.65398379971E+03  0.00000000000E+00 0.  1.
         25    2    1    2    0    0 -0.10894029861E+03 -0.13302804808E+02  0.20465793070E+02  0.16759749023E+03  0.12500046708E+03 0.  0.
          4    1    3    3  502    0 -0.84563083312E+02  0.41570819118E+02 -0.18459590642E+02  0.96028211730E+02  0.12700000000E+01 0.  1.
         -4    1    3    3    0  502 -0.24377215296E+02 -0.54873623926E+02  0.38925383712E+02  0.71569278503E+02  0.12700000000E+01 0.  1.
          1    1    1    2  503    0  0.68862537174E+02  0.21815383625E+02  0.21435869630E+03  0.22620258767E+03  0.00000000000E+00 0. -1.
         -1    1    1    2    0  501  0.40077761434E+02 -0.85125788165E+01 -0.57376549951E+03  0.57522651138E+03  0.00000000000E+00 0.  1.
<mgrwt>
<rscale>  0 0.55398693E+02</rscale>
<asrwt>0</asrwt>
<pdfrwt beam="1">  1        2 0.48468121E-01 0.74905492E+02</pdfrwt>
<pdfrwt beam="2">  1       -2 0.10061289E+00 0.40971831E+02</pdfrwt>
<totfact> 0.92752391E+01</totfact>
</mgrwt>
</event>
<event>
 7    1  0.5277388E-004  0.7437517E+02  0.7546771E-02  0.1376790E+00
          2   -1    0    0  503    0  0.00000000000E+00  0.00000000000E+00  0.11033029901E+03  0.11033029901E+03  0.00000000000E+00 0. -1.
          1   -1    0    0  502    0 -0.00000000000E+00 -0.00000000000E+00 -0.10229643795E+04  0.10229643795E+04  0.00000000000E+00 0. -1.
         25    2    1    2    0    0  0.12733515759E+02  0.29844970819E+02 -0.41055886276E+02  0.13551116736E+03  0.12499930390E+03 0.  0.
          4    1    3    3  501    0 -0.99267762425E+01  0.12569088208E+02 -0.83136529129E+02  0.84674779247E+02  0.12700000000E+01 0. -1.
         -4    1    3    3    0  501  0.22660292001E+02  0.17275882611E+02  0.42080642852E+02  0.50836388114E+02  0.12700000000E+01 0. -1.
          2    1    1    2  502    0  0.19209886088E+02  0.54046409996E+02 -0.90137658394E+03  0.90319974547E+03  0.00000000000E+00 0. -1.
          1    1    1    2  503    0 -0.31943401847E+02 -0.83891380815E+02  0.29798389727E+02  0.94583765663E+02  0.00000000000E+00 0. -1.
<mgrwt>
<rscale>  0 0.65315174E+02</rscale>
<asrwt>0</asrwt>
<pdfrwt beam="1">  1        2 0.16973892E-01 0.74375171E+02</pdfrwt>
<pdfrwt beam="2">  1        1 0.15737914E+00 0.57358819E+02</pdfrwt>
<totfact> 0.73911290E+02</totfact>
</mgrwt>
</event>
<event>
 7    1  0.5277388E-004  0.1329648E+03  0.7546771E-02  0.1308836E+00
          2   -1    0    0  503    0  0.00000000000E+00  0.00000000000E+00  0.75322370531E+03  0.75322370531E+03  0.00000000000E+00 0. -1.
          1   -1    0    0  502    0 -0.00000000000E+00 -0.00000000000E+00 -0.29958901704E+03  0.29958901704E+03  0.00000000000E+00 0. -1.
         25    2    1    2    0    0  0.77680025018E+02  0.14992139456E+03 -0.31443873152E+02  0.21242300819E+03  0.12499682562E+03 0.  0.
          4    1    3    3  501    0  0.60406906719E+02  0.19635878452E+02 -0.48447779006E+02  0.79895946659E+02  0.12700000000E+01 0.  1.
         -4    1    3    3    0  501  0.17273118300E+02  0.13028551611E+03  0.17003905854E+02  0.13252706153E+03  0.12700000000E+01 0.  1.
          2    1    1    2  502    0 -0.53835215442E+02 -0.20700273765E+02 -0.16623305542E+03  0.17595499558E+03  0.00000000000E+00 0. -1.
          1    1    1    2  503    0 -0.23844809577E+02 -0.12922112080E+03  0.65131161685E+03  0.66443471857E+03  0.00000000000E+00 0. -1.
<mgrwt>
<rscale>  0 0.87573515E+02</rscale>
<asrwt>0</asrwt>
<pdfrwt beam="1">  1        2 0.11588057E+00 0.13296480E+03</pdfrwt>
<pdfrwt beam="2">  1        1 0.46090618E-01 0.57677827E+02</pdfrwt>
<totfact> 0.47007637E+02</totfact>
</mgrwt>
</event>
<event>
 7    1  0.5277388E-004  0.1362854E+03  0.7546771E-02  0.1384790E+00
          1   -1    0    0  502    0 -0.00000000000E+00  0.00000000000E+00  0.13400646101E+03  0.13400646101E+03  0.00000000000E+00 0. -1.
          2   -1    0    0  503    0  0.00000000000E+00 -0.00000000000E+00 -0.28912226733E+04  0.28912226733E+04  0.00000000000E+00 0. -1.
         25    2    1    2    0    0 -0.57401343824E+02 -0.12672101800E+03 -0.32673749554E+03  0.37646961904E+03  0.12497540715E+03 0.  0.
          4    1    3    3  501    0  0.35944781867E+02 -0.20534927142E+02 -0.44458564694E+02  0.60760903966E+02  0.12700000000E+01 0.  1.
         -4    1    3    3    0  501 -0.93346125691E+02 -0.10618609086E+03 -0.28227893085E+03  0.31570871507E+03  0.12700000000E+01 0.  1.
          2    1    1    2  502    0 -0.23741883548E+02  0.17217160436E+02  0.10530661740E+03  0.10931418625E+03  0.00000000000E+00 0. -1.
          1    1    1    2  503    0  0.81143227372E+02  0.10950385757E+03 -0.25357853342E+04  0.25394453291E+04  0.00000000000E+00 0. -1.
<mgrwt>
<rscale>  0 0.63221227E+02</rscale>
<asrwt>0</asrwt>
<pdfrwt beam="2">  1        2 0.44480349E+00 0.13628543E+03</pdfrwt>
<pdfrwt beam="1">  1        1 0.20616379E-01 0.29327592E+02</pdfrwt>
<totfact> 0.82369415E+01</totfact>
</mgrwt>
</event>
<event>
 7    1  0.5277388E-004  0.1207659E+03  0.7546771E-02  0.1313827E+00
          1   -1    0    0  502    0 -0.00000000000E+00  0.00000000000E+00  0.11561761389E+03  0.11561761389E+03  0.00000000000E+00 0. -1.
          2   -1    0    0  503    0  0.00000000000E+00 -0.00000000000E+00 -0.98360153200E+03  0.98360153200E+03  0.00000000000E+00 0. -1.
         25    2    1    2    0    0  0.82725223187E+02  0.60666663862E+02 -0.43318767978E+02  0.16741449361E+03  0.12500876112E+03 0.  0.
          4    1    3    3  501    0 -0.13081976850E+02 -0.21241317258E+02  0.14336920288E+02  0.28800900342E+02  0.12700000000E+01 0. -1.
         -4    1    3    3    0  501  0.95807200037E+02  0.81907981120E+02 -0.57655688266E+02  0.13861359327E+03  0.12700000000E+01 0. -1.
          2    1    1    2  502    0 -0.73804424822E+02 -0.12070566367E+03 -0.43120466910E+02  0.14790647393E+03  0.00000000000E+00 0. -1.
          1    1    1    2  503    0 -0.89207983643E+01  0.60038999806E+02 -0.78154468323E+03  0.78389817835E+03  0.00000000000E+00 0. -1.
<mgrwt>
<rscale>  0 0.85616948E+02</rscale>
<asrwt>0</asrwt>
<pdfrwt beam="2">  1        2 0.15132331E+00 0.60698123E+02</pdfrwt>
<pdfrwt beam="1">  1        1 0.17787326E-01 0.12076587E+03</pdfrwt>
<totfact> 0.11380425E+03</totfact>
</mgrwt>
</event>
<event>
 7    1  0.5277388E-004  0.2922678E+02  0.7546771E-02  0.1671781E+00
          2   -1    0    0  503    0  0.00000000000E+00  0.00000000000E+00  0.22974770021E+03  0.22974770021E+03  0.00000000000E+00 0. -1.
          1   -1    0    0  502    0 -0.00000000000E+00 -0.00000000000E+00 -0.20514047146E+03  0.20514047146E+03  0.00000000000E+00 0. -1.
         25    2    1    2    0    0 -0.13553589862E+02  0.44161966560E+02 -0.79667258790E+02  0.15526220104E+03  0.12500199943E+03 0.  0.
          4    1    3    3  501    0 -0.60005226191E+02  0.37367009500E+02 -0.10232948593E+02  0.71437012158E+02  0.12700000000E+01 0. -1.
         -4    1    3    3    0  501  0.46451636329E+02  0.67949570601E+01 -0.69434310197E+02  0.83825188885E+02  0.12700000000E+01 0. -1.
          2    1    1    2  502    0 -0.26030995182E+01 -0.19977606543E+02 -0.85395070762E+02  0.87739381128E+02  0.00000000000E+00 0. -1.
          1    1    1    2  503    0  0.16156689380E+02 -0.24184360017E+02  0.18966955830E+03  0.19188658949E+03  0.00000000000E+00 0. -1.
<mgrwt>
<rscale>  0 0.24265550E+02</rscale>
<asrwt>0</asrwt>
<pdfrwt beam="1">  1        2 0.35345800E-01 0.29226779E+02</pdfrwt>
<pdfrwt beam="2">  1        1 0.31560073E-01 0.20146486E+02</pdfrwt>
<totfact> 0.25592368E+03</totfact>
</mgrwt>
</event>
<event>
 7    1  0.5277388E-004  0.5401522E+02  0.7546771E-02  0.1435418E+00
          3   -1    0    0  502    0 -0.00000000000E+00  0.00000000000E+00  0.55512104875E+03  0.55512104875E+03  0.00000000000E+00 0. -1.
          2   -1    0    0  503    0  0.00000000000E+00 -0.00000000000E+00 -0.25541335049E+04  0.25541335049E+04  0.00000000000E+00 0. -1.
         25    2    1    2    0    0  0.46159021571E+02 -0.40310361496E+02 -0.37136776653E+03  0.39660755900E+03  0.12501182872E+03 0.  0.
          4    1    3    3  501    0  0.18834835069E+02 -0.27902884836E+02 -0.36416489332E+03  0.36571984417E+03  0.12700000000E+01 0. -1.
         -4    1    3    3    0  501  0.27324186502E+02 -0.12407476660E+02 -0.72028732183E+01  0.30887714834E+02  0.12700000000E+01 0. -1.
          2    1    1    2  502    0  0.17568684080E+01  0.54039865006E+02  0.54086687434E+03  0.54356266369E+03  0.00000000000E+00 0. -1.
          1    1    1    2  503    0 -0.47915889979E+02 -0.13729503509E+02 -0.21685115639E+04  0.21690843309E+04  0.00000000000E+00 0. -1.
<mgrwt>
<rscale>  0 0.51887753E+02</rscale>
<asrwt>0</asrwt>
<pdfrwt beam="2">  1        2 0.39294362E+00 0.49844075E+02</pdfrwt>
<pdfrwt beam="1">  1        3 0.85403238E-01 0.54015225E+02</pdfrwt>
<totfact> 0.36591426E+00</totfact>
</mgrwt>
</event>
<event>
 7    1  0.5277388E-004  0.9980606E+02  0.7546771E-02  0.1296027E+00
         -2   -1    0    0    0  501 -0.00000000000E+00  0.00000000000E+00  0.13917922706E+04  0.13917922706E+04  0.00000000000E+00 0.  1.
          2   -1    0    0  503    0  0.00000000000E+00 -0.00000000000E+00 -0.62373203574E+03  0.62373203574E+03  0.00000000000E+00 0. -1.
         25    2    1    2    0    0 -0.92677197534E+01  0.16726779767E+03  0.15351643096E+03  0.25933460397E+03  0.12499094156E+03 0.  0.
          4    1    3    3  502    0 -0.51964208279E+02  0.76663756676E+02  0.12425628536E+03  0.15498015319E+03  0.12700000000E+01 0. -1.
         -4    1    3    3    0  502  0.42696488525E+02  0.90604040997E+02  0.29260145599E+02  0.10435445078E+03  0.12700000000E+01 0. -1.
          1    1    1    2  503    0  0.44219066098E+02 -0.88218459807E+02 -0.56496503509E+03  0.57351836355E+03  0.00000000000E+00 0. -1.
         -1    1    1    2    0  501 -0.34951346345E+02 -0.79049337867E+02  0.11795088390E+04  0.11826713389E+04  0.00000000000E+00 0.  1.
<mgrwt>
<rscale>  0 0.92878319E+02</rscale>
<asrwt>0</asrwt>
<pdfrwt beam="2">  1        2 0.95958775E-01 0.99806064E+02</pdfrwt>
<pdfrwt beam="1">  1       -2 0.21412189E+00 0.86431444E+02</pdfrwt>
<totfact> 0.64136018E+00</totfact>
</mgrwt>
</event>
<event>
 7    1  0.5277388E-004  0.1079958E+03  0.7546771E-02  0.1307468E+00
          2   -1    0    0  503    0  0.00000000000E+00  0.00000000000E+00  0.33569594397E+03  0.33569594397E+03  0.00000000000E+00 0. -1.
          1   -1    0    0  502    0 -0.00000000000E+00 -0.00000000000E+00 -0.15991744980E+04  0.15991744980E+04  0.00000000000E+00 0. -1.
         25    2    1    2    0    0 -0.58223162340E+01 -0.39434406992E+02  0.82234358973E+02  0.15484054652E+03  0.12499653287E+03 0.  0.
          4    1    3    3  501    0  0.13486524114E+02  0.31266144307E+02 -0.11396551046E+02  0.35929825887E+02  0.12700000000E+01 0.  1.
         -4    1    3    3    0  501 -0.19308840348E+02 -0.70700551299E+02  0.93630910019E+02  0.11891072063E+03  0.12700000000E+01 0.  1.
          2    1    1    2  502    0  0.46527157968E+02  0.98706072024E+02 -0.15549545202E+04  0.15587787607E+04  0.00000000000E+00 0. -1.
          1    1    1    2  503    0 -0.40704841734E+02 -0.59271665031E+02  0.20924160721E+03  0.22125113469E+03  0.00000000000E+00 0. -1.
<mgrwt>
<rscale>  0 0.88120371E+02</rscale>
<asrwt>0</asrwt>
<pdfrwt beam="1">  1        2 0.51645531E-01 0.71902812E+02</pdfrwt>
<pdfrwt beam="2">  1        1 0.24602684E+00 0.10799577E+03</pdfrwt>
<totfact> 0.88915731E+01</totfact>
</mgrwt>
</event>
<event>
 7    1  0.5277388E-004  0.7539245E+02  0.7546771E-02  0.1410753E+00
         -2   -1    0    0    0  501 -0.00000000000E+00  0.00000000000E+00  0.34232907464E+02  0.34232907464E+02  0.00000000000E+00 0.  1.
          2   -1    0    0  503    0  0.00000000000E+00 -0.00000000000E+00 -0.54792471252E+03  0.54792471252E+03  0.00000000000E+00 0. -1.
         25    2    1    2    0    0  0.48337391137E+02  0.90180936236E+01 -0.23778617381E+03  0.27309035253E+03  0.12497298427E+03 0.  0.
          4    1    3    3  502    0 -0.25661981968E+02  0.39358339462E+02 -0.13434904830E+03  0.14233374822E+03  0.12700000000E+01 0. -1.
         -4    1    3    3    0  502  0.73999373105E+02 -0.30340245839E+02 -0.10343712551E+03  0.13075660431E+03  0.12700000000E+01 0. -1.
          1    1    1    2  503    0  0.42770913519E+02  0.55841817833E+01 -0.12450421070E+03  0.13176430704E+03  0.00000000000E+00 0. -1.
         -1    1    1    2    0  501 -0.91108304656E+02 -0.14602275407E+02 -0.15140142056E+03  0.17730296041E+03  0.00000000000E+00 0.  1.
<mgrwt>
<rscale>  0 0.57026058E+02</rscale>
<asrwt>0</asrwt>
<pdfrwt beam="2">  1        2 0.84296104E-01 0.43133909E+02</pdfrwt>
<pdfrwt beam="1">  1       -2 0.52666015E-02 0.75392455E+02</pdfrwt>
<totfact> 0.93507011E+03</totfact>
</mgrwt>
</event>
<event>
 7    1  0.5277388E-004  0.3015144E+02  0.7546771E-02  0.1632792E+00
          1   -1    0    0  503    0  0.00000000000E+00  0.00000000000E+00  0.21299599549E+03  0.21299599549E+03  0.00000000000E+00 0. -1.
         -1   -1    0    0    0  501 -0.00000000000E+00 -0.00000000000E+00 -0.14335266819E+04  0.14335266819E+04  0.00000000000E+00 0.  1.
         25    2    1    2    0    0  0.43441965800E+02 -0.15704687490E+02 -0.25088855962E+03  0.28408374809E+03  0.12499865992E+03 0.  0.
          4    1    3    3  502    0  0.24418961104E+02  0.53664902260E+02 -0.13986140152E+03  0.15178613880E+03  0.12700000000E+01 0.  1.
         -4    1    3    3    0  502  0.19023004696E+02 -0.69369589750E+02 -0.11102715810E+03  0.13229760929E+03  0.12700000000E+01 0.  1.
          2    1    1    2  503    0 -0.13734182541E+02  0.20074934425E+02  0.19545111865E+03  0.19695880418E+03  0.00000000000E+00 0. -1.
         -2    1    1    2    0  501 -0.29707783259E+02 -0.43702469350E+01 -0.11650932455E+04  0.11654801251E+04  0.00000000000E+00 0.  1.
<mgrwt>
<rscale>  0 0.27081127E+02</rscale>
<asrwt>0</asrwt>
<pdfrwt beam="1">  1        1 0.32768614E-01 0.24323461E+02</pdfrwt>
<pdfrwt beam="2">  1       -1 0.22054257E+00 0.30151442E+02</pdfrwt>
<totfact> 0.19787574E+01</totfact>
</mgrwt>
</event>
<event>
 7    1  0.5277388E-004  0.2666931E+03  0.7546771E-02  0.1112002E+00
          1   -1    0    0  503    0  0.00000000000E+00  0.00000000000E+00  0.80746856868E+03  0.80746856868E+03  0.00000000000E+00 0. -1.
         -1   -1    0    0    0  501 -0.00000000000E+00 -0.00000000000E+00 -0.18344672561E+04  0.18344672561E+04  0.00000000000E+00 0.  1.
         25    2    1    2    0    0  0.11333101235E+03  0.32841578371E+03 -0.48279185842E+03  0.60779412672E+03  0.12499950627E+03 0.  0.
          4    1    3    3  502    0  0.26051510912E+02  0.10171724528E+03 -0.62081787209E+02  0.12198705018E+03  0.12700000000E+01 0.  1.
         -4    1    3    3    0  502  0.87279501436E+02  0.22669853843E+03 -0.42071007122E+03  0.48580707654E+03  0.12700000000E+01 0.  1.
          2    1    1    2  503    0  0.12156939813E+03 -0.20490423422E+03  0.71168925611E+03  0.75051080007E+03  0.00000000000E+00 0. -1.
         -2    1    1    2    0  501 -0.23490041048E+03 -0.12351154949E+03 -0.12558960851E+04  0.12836308980E+04  0.00000000000E+00 0.  1.
<mgrwt>
<rscale>  0 0.25207268E+03</rscale>
<asrwt>0</asrwt>
<pdfrwt beam="1">  1        1 0.12422593E+00 0.23825378E+03</pdfrwt>
<pdfrwt beam="2">  1       -1 0.28222573E+00 0.26669310E+03</pdfrwt>
<totfact> 0.11632628E+00</totfact>
</mgrwt>
</event>
<event>
 7    1  0.5277388E-004  0.6554649E+02  0.7546771E-02  0.1527978E+00
          2   -1    0    0  503    0  0.00000000000E+00  0.00000000000E+00  0.62144079744E+02  0.62144079744E+02  0.00000000000E+00 0. -1.
          1   -1    0    0  502    0 -0.00000000000E+00 -0.00000000000E+00 -0.17909452978E+04  0.17909452978E+04  0.00000000000E+00 0. -1.
         25    2    1    2    0    0 -0.40150842421E+02  0.23661774461E+02 -0.22563283400E+03  0.26212083864E+03  0.12500075420E+03 0.  0.
          4    1    3    3  501    0 -0.42442232413E+01  0.56223918216E+02 -0.19891991602E+03  0.20676046116E+03  0.12700000000E+01 0.  1.
         -4    1    3    3    0  501 -0.35906619180E+02 -0.32562143755E+02 -0.26712917976E+02  0.55360377470E+02  0.12700000000E+01 0.  1.
          2    1    1    2  502    0  0.51468789892E+02 -0.41801125010E+02 -0.15437106599E+04  0.15451339657E+04  0.00000000000E+00 0. -1.
          1    1    1    2  503    0 -0.11317947470E+02  0.18139350549E+02  0.40542275842E+02  0.45834573236E+02  0.00000000000E+00 0. -1.
<mgrwt>
<rscale>  0 0.37435627E+02</rscale>
<asrwt>0</asrwt>
<pdfrwt beam="1">  1        2 0.95606278E-02 0.21380645E+02</pdfrwt>
<pdfrwt beam="2">  1        1 0.27553004E+00 0.65546486E+02</pdfrwt>
<totfact> 0.41355505E+02</totfact>
</mgrwt>
</event>
<event>
 7    1  0.5277388E-004  0.4024954E+02  0.7546771E-02  0.1595215E+00
         -2   -1    0    0    0  501  0.00000000000E+00  0.00000000000E+00  0.18530378561E+03  0.18530378561E+03  0.00000000000E+00 0.  1.
         -1   -1    0    0    0  502 -0.00000000000E+00 -0.00000000000E+00 -0.25319502118E+03  0.25319502118E+03  0.00000000000E+00 0.  1.
         25    2    1    2    0    0 -0.14717479517E+02  0.18129217274E+02 -0.89766261052E+02  0.15562301905E+03  0.12496107279E+03 0.  0.
          4    1    3    3  503    0  0.21472528533E+02 -0.19192618501E+02 -0.98731025625E+02  0.10285355807E+03  0.12700000000E+01 0. -1.
         -4    1    3    3    0  503 -0.36190008049E+02  0.37321835775E+02  0.89647645734E+01  0.52769460979E+02  0.12700000000E+01 0. -1.
         -2    1    1    2    0  502  0.11388819902E+02 -0.40636505918E+02 -0.12619668496E+03  0.13306627720E+03  0.00000000000E+00 0.  1.
         -1    1    1    2    0  501  0.33286596146E+01  0.22507288644E+02  0.14807171045E+03  0.14980951055E+03  0.00000000000E+00 0.  1.
<mgrwt>
<rscale>  0 0.30261551E+02</rscale>
<asrwt>0</asrwt>
<pdfrwt beam="1">  1       -2 0.28508275E-01 0.22752099E+02</pdfrwt>
<pdfrwt beam="2">  1       -1 0.38953080E-01 0.40249537E+02</pdfrwt>
<totfact> 0.49633825E+02</totfact>
</mgrwt>
</event>
<event>
 7    1  0.5277388E-004  0.9038886E+02  0.7546771E-02  0.1462704E+00
          2   -1    0    0  503    0  0.00000000000E+00  0.00000000000E+00  0.30673721980E+03  0.30673721980E+03  0.00000000000E+00 0. -1.
          1   -1    0    0  502    0 -0.00000000000E+00 -0.00000000000E+00 -0.56834814761E+03  0.56834814761E+03  0.00000000000E+00 0. -1.
         25    2    1    2    0    0 -0.92712251113E+02 -0.42842731633E+02 -0.91543878268E+02  0.18557142162E+03  0.12500163884E+03 0.  0.
          4    1    3    3  501    0  0.20440798498E+02 -0.30405279157E+02 -0.54829398385E+02  0.65955917635E+02  0.12700000000E+01 0. -1.
         -4    1    3    3    0  501 -0.11315304961E+03 -0.12437452476E+02 -0.36714479883E+02  0.11961550398E+03  0.12700000000E+01 0. -1.
          2    1    1    2  502    0  0.48806993406E+01  0.23860799814E+02 -0.42165617938E+03  0.42235896179E+03  0.00000000000E+00 0. -1.
          1    1    1    2  503    0  0.87831551773E+02  0.18981931819E+02  0.25158912984E+03  0.26715498400E+03  0.00000000000E+00 0. -1.
<mgrwt>
<rscale>  0 0.46919162E+02</rscale>
<asrwt>0</asrwt>
<pdfrwt beam="1">  1        2 0.47190342E-01 0.90388864E+02</pdfrwt>
<pdfrwt beam="2">  1        1 0.87438176E-01 0.24354856E+02</pdfrwt>
<totfact> 0.58983621E+02</totfact>
</mgrwt>
</event>
<event>
 7    1  0.5277388E-004  0.9139068E+02  0.7546771E-02  0.1430402E+00
          2   -1    0    0  503    0  0.00000000000E+00  0.00000000000E+00  0.16151059284E+03  0.16151059284E+03  0.00000000000E+00 0. -1.
          1   -1    0    0  502    0 -0.00000000000E+00 -0.00000000000E+00 -0.15225314052E+04  0.15225314052E+04  0.00000000000E+00 0. -1.
         25    2    1    2    0    0 -0.92039910081E+02 -0.71276165133E+02 -0.18343391032E+03  0.25064775463E+03  0.12499864273E+03 0.  0.
          4    1    3    3  501    0  0.98994762752E+01 -0.35268251958E+02 -0.11960040905E+03  0.12509084687E+03  0.12700000000E+01 0. -1.
         -4    1    3    3    0  501 -0.10193938636E+03 -0.36007913175E+02 -0.63833501272E+02  0.12555690776E+03  0.12700000000E+01 0. -1.
          2    1    1    2  502    0  0.61960962748E+02  0.65672250890E+02 -0.13020748238E+04  0.13052014604E+04  0.00000000000E+00 0. -1.
          1    1    1    2  503    0  0.30078947333E+02  0.56039142423E+01  0.12448792181E+03  0.12819278297E+03  0.00000000000E+00 0. -1.
<mgrwt>
<rscale>  0 0.52879455E+02</rscale>
<asrwt>0</asrwt>
<pdfrwt beam="1">  1        2 0.24847783E-01 0.30596518E+02</pdfrwt>
<pdfrwt beam="2">  1        1 0.23423561E+00 0.91390684E+02</pdfrwt>
<totfact> 0.21112840E+02</totfact>
</mgrwt>
</event>
<event>
 7    1  0.5277388E-004  0.5031409E+02  0.7546771E-02  0.1489783E+00
          2   -1    0    0  503    0  0.00000000000E+00  0.00000000000E+00  0.63428004805E+02  0.63428004805E+02  0.00000000000E+00 0. -1.
          1   -1    0    0  502    0 -0.00000000000E+00 -0.00000000000E+00 -0.55092657415E+03  0.55092657415E+03  0.00000000000E+00 0. -1.
         25    2    1    2    0    0  0.15428534204E+02 -0.20579746494E+02 -0.85707539055E+02  0.15372532825E+03  0.12499651459E+03 0.  0.
          4    1    3    3  501    0 -0.35898349732E+02 -0.94224422924E+01 -0.93504503765E+02  0.10060904063E+03  0.12700000000E+01 0. -1.
         -4    1    3    3    0  501  0.51326883936E+02 -0.11157304201E+02  0.77969647101E+01  0.53116287618E+02  0.12700000000E+01 0. -1.
          2    1    1    2  502    0  0.35926278966E+02 -0.35327290637E+01 -0.40227682889E+03  0.40389333339E+03  0.00000000000E+00 0. -1.
          1    1    1    2  503    0 -0.51354813171E+02  0.24112475558E+02  0.48579860189E+00  0.56735917315E+02  0.00000000000E+00 0. -1.
<mgrwt>
<rscale>  0 0.42618261E+02</rscale>
<asrwt>0</asrwt>
<pdfrwt beam="1">  1        2 0.97581548E-02 0.50314091E+02</pdfrwt>
<pdfrwt beam="2">  1        1 0.84757933E-01 0.36099553E+02</pdfrwt>
<totfact> 0.33730882E+03</totfact>
</mgrwt>
</event>
<event>
 7    1  0.5277388E-004  0.4730785E+02  0.7546771E-02  0.1489366E+00
          1   -1    0    0  502    0 -0.00000000000E+00  0.00000000000E+00  0.54243577530E+03  0.54243577530E+03  0.00000000000E+00 0. -1.
          2   -1    0    0  503    0  0.00000000000E+00 -0.00000000000E+00 -0.80657651095E+03  0.80657651095E+03  0.00000000000E+00 0. -1.
         25    2    1    2    0    0 -0.28823057563E+02 -0.26089183005E+02  0.19591189343E+03  0.23562343673E+03  0.12500207932E+03 0.  0.
          4    1    3    3  501    0 -0.27381497361E+02  0.10020339992E+01 -0.90394922172E+01  0.28880370313E+02  0.12700000000E+01 0.  1.
         -4    1    3    3    0  501 -0.14415602019E+01 -0.27091217004E+02  0.20495138564E+03  0.20674306642E+03  0.12700000000E+01 0.  1.
          2    1    1    2  502    0 -0.19038681415E+01  0.49294768804E+02  0.32433070761E+03  0.32806098037E+03  0.00000000000E+00 0. -1.
          1    1    1    2  503    0  0.30726925705E+02 -0.23205585799E+02 -0.78438333669E+03  0.78532786914E+03  0.00000000000E+00 0. -1.
<mgrwt>
<rscale>  0 0.42680133E+02</rscale>
<asrwt>0</asrwt>
<pdfrwt beam="2">  1        2 0.12408869E+00 0.38505106E+02</pdfrwt>
<pdfrwt beam="1">  1        1 0.83451658E-01 0.47307850E+02</pdfrwt>
<totfact> 0.21963264E+02</totfact>
</mgrwt>
</event>
<event>
 7    1  0.5277388E-004  0.8790653E+02  0.7546771E-02  0.1411728E+00
          2   -1    0    0  503    0  0.00000000000E+00  0.00000000000E+00  0.34325986386E+04  0.34325986386E+04  0.00000000000E+00 0. -1.
          1   -1    0    0  502    0 -0.00000000000E+00 -0.00000000000E+00 -0.57928961910E+02  0.57928961910E+02  0.00000000000E+00 0. -1.
         25    2    1    2    0    0  0.32015155983E+02 -0.10996322605E+03  0.10562429835E+04  0.10697618492E+04  0.12499716938E+03 0.  0.
          4    1    3    3  501    0  0.70957896451E+02 -0.10539834244E+03  0.88549776175E+03  0.89456790274E+03  0.12700000000E+01 0. -1.
         -4    1    3    3    0  501 -0.38942740469E+02 -0.45648836156E+01  0.17074522179E+03  0.17519394642E+03  0.12700000000E+01 0. -1.
          2    1    1    2  502    0 -0.43888866132E+02  0.75222664136E+02 -0.13863501511E+02  0.88186611479E+02  0.00000000000E+00 0. -1.
          1    1    1    2  503    0  0.11873710149E+02  0.34740561915E+02  0.23322901947E+04  0.23325791399E+04  0.00000000000E+00 0. -1.
<mgrwt>
<rscale>  0 0.56809938E+02</rscale>
<asrwt>0</asrwt>
<pdfrwt beam="1">  1        2 0.52809194E+00 0.36713644E+02</pdfrwt>
<pdfrwt beam="2">  1        1 0.89121506E-02 0.87906530E+02</pdfrwt>
<totfact> 0.15491022E+02</totfact>
</mgrwt>
</event>
<event>
 7    1  0.5277388E-004  0.7322719E+02  0.7546771E-02  0.1450915E+00
          2   -1    0    0  503    0  0.00000000000E+00  0.00000000000E+00  0.74794719453E+03  0.74794719453E+03  0.00000000000E+00 0. -1.
         -2   -1    0    0    0  501 -0.00000000000E+00 -0.00000000000E+00 -0.78411259624E+02  0.78411259624E+02  0.00000000000E+00 0.  1.
         25    2    1    2    0    0  0.84455282556E+02 -0.40883487431E+02  0.35524530206E+03  0.38810608521E+03  0.12499181749E+03 0.  0.
          4    1    3    3  502    0  0.79583340242E+02 -0.52634848991E+02  0.12379705703E+03  0.15630502104E+03  0.12700000000E+01 0.  1.
         -4    1    3    3    0  502  0.48719423141E+01  0.11751361561E+02  0.23144824503E+03  0.23180106417E+03  0.12700000000E+01 0.  1.
          1    1    1    2  503    0 -0.68607493901E+02  0.12207925241E+02  0.36843484929E+03  0.37496701166E+03  0.00000000000E+00 0. -1.
         -1    1    1    2    0  501 -0.15847788655E+02  0.28675562189E+02 -0.54144216451E+02  0.63285357289E+02  0.00000000000E+00 0.  1.
<mgrwt>
<rscale>  0 0.48981338E+02</rscale>
<asrwt>0</asrwt>
<pdfrwt beam="1">  1        2 0.11506879E+00 0.73227186E+02</pdfrwt>
<pdfrwt beam="2">  1       -2 0.12063271E-01 0.32763398E+02</pdfrwt>
<totfact> 0.17367030E+03</totfact>
</mgrwt>
</event>
<event>
 7    1  0.5277388E-004  0.4508959E+02  0.7546771E-02  0.1534151E+00
          2   -1    0    0  503    0  0.00000000000E+00  0.00000000000E+00  0.10762320656E+04  0.10762320656E+04  0.00000000000E+00 0. -1.
          1   -1    0    0  502    0 -0.00000000000E+00 -0.00000000000E+00 -0.75978531175E+02  0.75978531175E+02  0.00000000000E+00 0. -1.
         25    2    1    2    0    0  0.23412625689E+02 -0.34812485366E+02  0.60278897805E+02  0.14498046219E+03  0.12500291484E+03 0.  0.
          4    1    3    3  501    0 -0.71477794014E+01 -0.47021020734E+02  0.89235858572E+02  0.10112723914E+03  0.12700000000E+01 0.  1.
         -4    1    3    3    0  501  0.30560405090E+02  0.12208535368E+02 -0.28956960767E+02  0.43853223051E+02  0.12700000000E+01 0.  1.
          2    1    1    2  502    0 -0.44774506425E+02  0.13974202627E+02 -0.16925412212E+02  0.49864860806E+02  0.00000000000E+00 0. -1.
          1    1    1    2  503    0  0.21361880737E+02  0.20838282739E+02  0.95690004887E+03  0.95736527381E+03  0.00000000000E+00 0. -1.
<mgrwt>
<rscale>  0 0.36682118E+02</rscale>
<asrwt>0</asrwt>
<pdfrwt beam="1">  1        2 0.16557415E+00 0.29842319E+02</pdfrwt>
<pdfrwt beam="2">  1        1 0.11689006E-01 0.45089585E+02</pdfrwt>
<totfact> 0.17048605E+03</totfact>
</mgrwt>
</event>
<event>
 7    1  0.5277388E-004  0.7197475E+02  0.7546771E-02  0.1420482E+00
          2   -1    0    0  503    0  0.00000000000E+00  0.00000000000E+00  0.21555819607E+04  0.21555819607E+04  0.00000000000E+00 0. -1.
          1   -1    0    0  502    0 -0.00000000000E+00 -0.00000000000E+00 -0.34170824749E+03  0.34170824749E+03  0.00000000000E+00 0. -1.
         25    2    1    2    0    0  0.63830340565E+02 -0.30370971897E+02  0.95097744565E+02  0.17223660848E+03  0.12500063987E+03 0.  0.
          4    1    3    3  501    0  0.28585590359E+02 -0.78160682898E+02  0.45507640699E+02  0.94861934353E+02  0.12700000000E+01 0. -1.
         -4    1    3    3    0  501  0.35244750206E+02  0.47789711001E+02  0.49590103866E+02  0.77374674126E+02  0.12700000000E+01 0. -1.
          2    1    1    2  502    0 -0.71585559074E+02 -0.10810315439E+02 -0.29859554882E+03  0.30724689903E+03  0.00000000000E+00 0. -1.
          1    1    1    2  503    0  0.77552185094E+01  0.41181287335E+02  0.20173715174E+04  0.20178067007E+04  0.00000000000E+00 0. -1.
<mgrwt>
<rscale>  0 0.54919150E+02</rscale>
<asrwt>0</asrwt>
<pdfrwt beam="1">  1        2 0.33162798E+00 0.41905153E+02</pdfrwt>
<pdfrwt beam="2">  1        1 0.52570501E-01 0.71974752E+02</pdfrwt>
<totfact> 0.78437666E+01</totfact>
</mgrwt>
</event>
<event>
 7    1  0.5277388E-004  0.6953191E+02  0.7546771E-02  0.1385421E+00
          1   -1    0    0  502    0 -0.00000000000E+00  0.00000000000E+00  0.15370331379E+04  0.15370331379E+04  0.00000000000E+00 0. -1.
          2   -1    0    0  503    0  0.00000000000E+00 -0.00000000000E+00 -0.26152335882E+04  0.26152335882E+04  0.00000000000E+00 0. -1.
         25    2    1    2    0    0 -0.16944869267E+01 -0.18231634778E+02  0.17648875636E+02  0.12755829023E+03  0.12499748318E+03 0.  0.
          4    1    3    3  501    0  0.56694624787E+02 -0.67232282132E+01  0.33172066340E+02  0.66041510905E+02  0.12700000000E+01 0.  1.
         -4    1    3    3    0  501 -0.58389111714E+02 -0.11508406564E+02 -0.15523190704E+02  0.61516779321E+02  0.12700000000E+01 0.  1.
          2    1    1    2  502    0  0.41847578486E+02 -0.38981502589E+02  0.14633938396E+04  0.14645109447E+04  0.00000000000E+00 0. -1.
          1    1    1    2  503    0 -0.40153091560E+02  0.57213137366E+02 -0.25592431655E+04  0.25601974912E+04  0.00000000000E+00 0. -1.
<mgrwt>
<rscale>  0 0.63060127E+02</rscale>
<asrwt>0</asrwt>
<pdfrwt beam="2">  1        2 0.40234362E+00 0.69531915E+02</pdfrwt>
<pdfrwt beam="1">  1        1 0.23646664E+00 0.57190711E+02</pdfrwt>
<totfact> 0.45226508E+00</totfact>
</mgrwt>
</event>
<event>
 7    1  0.5277388E-004  0.8857873E+02  0.7546771E-02  0.1337076E+00
          2   -1    0    0  503    0  0.00000000000E+00  0.00000000000E+00  0.20668688315E+04  0.20668688315E+04  0.00000000000E+00 0. -1.
         -2   -1    0    0    0  501 -0.00000000000E+00 -0.00000000000E+00 -0.44864743712E+02  0.44864743712E+02  0.00000000000E+00 0.  1.
         25    2    1    2    0    0 -0.28600291215E+02  0.26871640588E+01  0.20076008166E+03  0.23823321373E+03  0.12500102490E+03 0.  0.
          4    1    3    3  502    0 -0.34310015321E+00  0.11863445682E+02 -0.15710047708E+02  0.19730118097E+02  0.12700000000E+01 0. -1.
         -4    1    3    3    0  502 -0.28257191061E+02 -0.91762816227E+01  0.21647012937E+03  0.21850309563E+03  0.12700000000E+01 0. -1.
          3    1    1    2  503    0  0.87603945772E+02  0.29787509105E+02  0.18007153759E+04  0.18030911269E+04  0.00000000000E+00 0. -1.
         -1    1    1    2    0  501 -0.59003654558E+02 -0.32474673164E+02  0.20528630195E+02  0.70409234522E+02  0.00000000000E+00 0.  1.
<mgrwt>
<rscale>  0 0.77238500E+02</rscale>
<asrwt>0</asrwt>
<pdfrwt beam="1">  1        2 0.31797975E+00 0.88578726E+02</pdfrwt>
<pdfrwt beam="2">  1       -2 0.69022699E-02 0.67350098E+02</pdfrwt>
<totfact> 0.82801266E+02</totfact>
</mgrwt>
</event>
<event>
 7    1  0.5277388E-004  0.7444021E+02  0.7546771E-02  0.1378381E+00
          1   -1    0    0  503    0  0.00000000000E+00  0.00000000000E+00  0.12941239869E+04  0.12941239869E+04  0.00000000000E+00 0. -1.
         -1   -1    0    0    0  501 -0.00000000000E+00 -0.00000000000E+00 -0.48384067579E+03  0.48384067579E+03  0.00000000000E+00 0.  1.
         25    2    1    2    0    0 -0.14488283962E-01 -0.12633034357E+03  0.15382031333E+03  0.23504133653E+03  0.12499754065E+03 0.  0.
          4    1    3    3  502    0  0.46360992784E+02 -0.61492154922E+01  0.57840869689E+02  0.74393101894E+02  0.12700000000E+01 0.  1.
         -4    1    3    3    0  502 -0.46375481068E+02 -0.12018112808E+03  0.95979443640E+02  0.16064823464E+03  0.12700000000E+01 0.  1.
          2    1    1    2  503    0  0.15683639193E+02  0.54349665238E+02  0.10958977335E+04  0.10973566899E+04  0.00000000000E+00 0. -1.
         -2    1    1    2    0  501 -0.15669150909E+02  0.71980678331E+02 -0.43943473573E+03  0.44556663621E+03  0.00000000000E+00 0.  1.
<mgrwt>
<rscale>  0 0.64891325E+02</rscale>
<asrwt>0</asrwt>
<pdfrwt beam="1">  1        1 0.19909600E+00 0.56567328E+02</pdfrwt>
<pdfrwt beam="2">  1       -1 0.74437027E-01 0.74440215E+02</pdfrwt>
<totfact> 0.22336410E+01</totfact>
</mgrwt>
</event>
<event>
 7    1  0.5277388E-004  0.3975567E+02  0.7546771E-02  0.1578752E+00
          1   -1    0    0  502    0 -0.00000000000E+00  0.00000000000E+00  0.22383668311E+03  0.22383668311E+03  0.00000000000E+00 0. -1.
          2   -1    0    0  503    0  0.00000000000E+00 -0.00000000000E+00 -0.69860706628E+02  0.69860706628E+02  0.00000000000E+00 0. -1.
         25    2    1    2    0    0 -0.30245698149E+02  0.32586425972E+01  0.30011680518E+02  0.13211241526E+03  0.12501027274E+03 0.  0.
          4    1    3    3  501    0 -0.22800677569E+02 -0.60134236091E+02  0.92850091956E+01  0.64990934319E+02  0.12700000000E+01 0.  1.
         -4    1    3    3    0  501 -0.74450205793E+01  0.63392878688E+02  0.20726671323E+02  0.67121480942E+02  0.12700000000E+01 0.  1.
          2    1    1    2  502    0  0.34339013008E+02  0.21886384405E+02  0.12929621344E+03  0.13555697122E+03  0.00000000000E+00 0. -1.
          1    1    1    2  503    0 -0.40933148596E+01 -0.25145027002E+02 -0.53319174768E+01  0.26028003255E+02  0.00000000000E+00 0. -1.
<mgrwt>
<rscale>  0 0.31824774E+02</rscale>
<asrwt>0</asrwt>
<pdfrwt beam="2">  1        2 0.10747801E-01 0.25476020E+02</pdfrwt>
<pdfrwt beam="1">  1        1 0.34436412E-01 0.39755668E+02</pdfrwt>
<totfact> 0.83819565E+03</totfact>
</mgrwt>
</event>
<event>
 7    1  0.5277388E-004  0.1674106E+03  0.7546771E-02  0.1240089E+00
         -1   -1    0    0    0  501 -0.00000000000E+00  0.00000000000E+00  0.34247390464E+03  0.34247390464E+03  0.00000000000E+00 0.  1.
          1   -1    0    0  503    0  0.00000000000E+00 -0.00000000000E+00 -0.61287814301E+03  0.61287814301E+03  0.00000000000E+00 0. -1.
         25    2    1    2    0    0  0.19469156993E+03 -0.11983945179E+03 -0.11263051398E+03  0.28386065963E+03  0.12499975920E+03 0.  0.
          4    1    3    3  502    0  0.11465720652E+03 -0.97394026796E+02 -0.13012021974E+03  0.19890891370E+03  0.12700000000E+01 0.  1.
         -4    1    3    3    0  502  0.80034363411E+02 -0.22445424995E+02  0.17489705762E+02  0.84951745935E+02  0.12700000000E+01 0.  1.
          2    1    1    2  503    0 -0.15203047724E+03  0.42098954481E+02 -0.39118903120E+03  0.42179905893E+03  0.00000000000E+00 0. -1.
         -2    1    1    2    0  501 -0.42661092699E+02  0.77740497310E+02  0.23341530681E+03  0.24969232909E+03  0.00000000000E+00 0.  1.
<mgrwt>
<rscale>  0 0.12184177E+03</rscale>
<asrwt>0</asrwt>
<pdfrwt beam="2">  1        1 0.94288944E-01 0.16741061E+03</pdfrwt>
<pdfrwt beam="1">  1       -1 0.52688294E-01 0.88676681E+02</pdfrwt>
<totfact> 0.13233770E+02</totfact>
</mgrwt>
</event>
<event>
 7    1  0.5277388E-004  0.1928971E+03  0.7546771E-02  0.1215350E+00
          2   -1    0    0  503    0  0.00000000000E+00  0.00000000000E+00  0.54997377017E+03  0.54997377017E+03  0.00000000000E+00 0. -1.
          1   -1    0    0  502    0 -0.00000000000E+00 -0.00000000000E+00 -0.57381131994E+03  0.57381131994E+03  0.00000000000E+00 0. -1.
         25    2    1    2    0    0  0.14351343208E+03  0.14779726103E+03  0.74229260437E+02  0.25214229893E+03  0.12500248098E+03 0.  0.
          4    1    3    3  501    0  0.83207400619E+02  0.15567129189E+03  0.73760581938E+02  0.19130932801E+03  0.12700000000E+01 0. -1.
         -4    1    3    3    0  501  0.60306031458E+02 -0.78740308537E+01  0.46867849945E+00  0.60832970925E+02  0.12700000000E+01 0. -1.
          2    1    1    2  502    0 -0.91173162083E+02  0.39734965931E+02 -0.45463210203E+03  0.46538345609E+03  0.00000000000E+00 0. -1.
          1    1    1    2  503    0 -0.52340269994E+02 -0.18753222696E+03  0.35656529183E+03  0.40625933509E+03  0.00000000000E+00 0. -1.
<mgrwt>
<rscale>  0 0.13850882E+03</rscale>
<asrwt>0</asrwt>
<pdfrwt beam="1">  1        2 0.84611349E-01 0.19289708E+03</pdfrwt>
<pdfrwt beam="2">  1        1 0.88278665E-01 0.99455583E+02</pdfrwt>
<totfact> 0.29658253E+02</totfact>
</mgrwt>
</event>
<event>
 7    1  0.5277388E-004  0.6536048E+02  0.7546771E-02  0.1465292E+00
          2   -1    0    0  503    0  0.00000000000E+00  0.00000000000E+00  0.12777187570E+04  0.12777187570E+04  0.00000000000E+00 0. -1.
         -2   -1    0    0    0  501 -0.00000000000E+00 -0.00000000000E+00 -0.13218390966E+03  0.13218390966E+03  0.00000000000E+00 0.  1.
         25    2    1    2    0    0  0.41996034109E+02 -0.47818280369E+02  0.28937874763E+03  0.32158156604E+03  0.12499755685E+03 0.  0.
          4    1    3    3  502    0  0.85550494655E+02 -0.44434964659E+02  0.20592932692E+03  0.22738041650E+03  0.12700000000E+01 0. -1.
         -4    1    3    3    0  502 -0.43554460546E+02 -0.33833157102E+01  0.83449420702E+02  0.94201149538E+02  0.12700000000E+01 0. -1.
          1    1    1    2  503    0 -0.62332880195E+02  0.21756794243E+02  0.96873857720E+03  0.97098567292E+03  0.00000000000E+00 0. -1.
         -1    1    1    2    0  501  0.20336846086E+02  0.26061486127E+02 -0.11258247747E+03  0.11733542773E+03  0.00000000000E+00 0.  1.
<mgrwt>
<rscale>  0 0.46482732E+02</rscale>
<asrwt>0</asrwt>
<pdfrwt beam="1">  1        2 0.19657211E+00 0.65360485E+02</pdfrwt>
<pdfrwt beam="2">  1       -2 0.20335987E-01 0.33057350E+02</pdfrwt>
<totfact> 0.37550263E+02</totfact>
</mgrwt>
</event>
<event>
 7    1  0.5277388E-004  0.4859901E+02  0.7546771E-02  0.1555361E+00
          2   -1    0    0  503    0  0.00000000000E+00  0.00000000000E+00  0.39900252585E+04  0.39900252585E+04  0.00000000000E+00 0. -1.
          1   -1    0    0  502    0 -0.00000000000E+00 -0.00000000000E+00 -0.12174205530E+03  0.12174205530E+03  0.00000000000E+00 0. -1.
         25    2    1    2    0    0 -0.20826517313E+01  0.34686991419E+02  0.15439773076E+04  0.15494260320E+04  0.12509027765E+03 0.  0.
          4    1    3    3  501    0  0.17266683741E+02 -0.34281186545E+02  0.10017983862E+04  0.10025342676E+04  0.12700000000E+01 0. -1.
         -4    1    3    3    0  501 -0.19349335472E+02  0.68968177964E+02  0.54217892137E+03  0.54689176446E+03  0.12700000000E+01 0. -1.
          2    1    1    2  502    0 -0.22313995857E+02  0.92046425958E+01 -0.11753303530E+03  0.11998605854E+03  0.00000000000E+00 0. -1.
          1    1    1    2  503    0  0.24396647588E+02 -0.43891634015E+02  0.24418389309E+04  0.24423552232E+04  0.00000000000E+00 0. -1.
<mgrwt>
<rscale>  0 0.34250250E+02</rscale>
<asrwt>0</asrwt>
<pdfrwt beam="1">  1        2 0.61384994E+00 0.48599007E+02</pdfrwt>
<pdfrwt beam="2">  1        1 0.18729550E-01 0.24137934E+02</pdfrwt>
<totfact> 0.22555341E+01</totfact>
</mgrwt>
</event>
<event>
 7    1  0.5277388E-004  0.1666184E+03  0.7546771E-02  0.1209724E+00
          2   -1    0    0  503    0  0.00000000000E+00  0.00000000000E+00  0.22731679156E+04  0.22731679156E+04  0.00000000000E+00 0. -1.
         -2   -1    0    0    0  501 -0.00000000000E+00 -0.00000000000E+00 -0.94140732874E+03  0.94140732874E+03  0.00000000000E+00 0.  1.
         25    2    1    2    0    0 -0.61423722309E+02 -0.83803263898E+01  0.17857276511E+03  0.22662873761E+03  0.12501699380E+03 0.  0.
          4    1    3    3  502    0  0.43121858024E+01 -0.56860900521E+02  0.61565482660E+02  0.83926625749E+02  0.12700000000E+01 0.  1.
         -4    1    3    3    0  502 -0.65735908111E+02  0.48480574131E+02  0.11700728245E+03  0.14270211186E+03  0.12700000000E+01 0.  1.
          1    1    1    2  503    0 -0.71878016006E+02 -0.98872158470E+02  0.20607630862E+04  0.20643852961E+04  0.00000000000E+00 0. -1.
         -1    1    1    2    0  501  0.13330173831E+03  0.10725248486E+03 -0.90757526455E+03  0.92356121062E+03  0.00000000000E+00 0.  1.
<mgrwt>
<rscale>  0 0.14271341E+03</rscale>
<asrwt>0</asrwt>
<pdfrwt beam="1">  1        2 0.34971814E+00 0.12223810E+03</pdfrwt>
<pdfrwt beam="2">  1       -2 0.14483190E+00 0.16661841E+03</pdfrwt>
<totfact> 0.21120493E+00</totfact>
</mgrwt>
</event>
<event>
 7    1  0.5277388E-004  0.1436285E+03  0.7546771E-02  0.1273759E+00
          1   -1    0    0  502    0 -0.00000000000E+00  0.00000000000E+00  0.38642855762E+03  0.38642855762E+03  0.00000000000E+00 0. -1.
          2   -1    0    0  503    0  0.00000000000E+00 -0.00000000000E+00 -0.25104216443E+03  0.25104216443E+03  0.00000000000E+00 0. -1.
         25    2    1    2    0    0 -0.36150802221E+02  0.96246043704E+02  0.39534523452E+02  0.16661303706E+03  0.12500697638E+03 0.  0.
          4    1    3    3  501    0  0.18771053310E+02  0.10976819197E+01 -0.30836614556E+02  0.36139549599E+02  0.12700000000E+01 0. -1.
         -4    1    3    3    0  501 -0.54921855531E+02  0.95148361784E+02  0.70371138008E+02  0.13047348746E+03  0.12700000000E+01 0. -1.
          2    1    1    2  502    0 -0.70748010780E+02  0.22081796295E+02  0.24289246285E+03  0.25394809562E+03  0.00000000000E+00 0. -1.
          1    1    1    2  503    0  0.10689881300E+03 -0.11832784000E+03 -0.14704059311E+03  0.21690958938E+03  0.00000000000E+00 0. -1.
<mgrwt>
<rscale>  0 0.10317405E+03</rscale>
<asrwt>0</asrwt>
<pdfrwt beam="2">  1        2 0.38621872E-01 0.14362850E+03</pdfrwt>
<pdfrwt beam="1">  1        1 0.59450547E-01 0.74114012E+02</pdfrwt>
<totfact> 0.11526461E+03</totfact>
</mgrwt>
</event>
<event>
 7    1  0.5277388E-004  0.9265046E+02  0.7546771E-02  0.1312334E+00
          2   -1    0    0  503    0  0.00000000000E+00  0.00000000000E+00  0.22815308018E+04  0.22815308018E+04  0.00000000000E+00 0. -1.
          1   -1    0    0  502    0 -0.00000000000E+00 -0.00000000000E+00 -0.23977923019E+03  0.23977923019E+03  0.00000000000E+00 0. -1.
         25    2    1    2    0    0  0.39725784311E+02 -0.29571752962E+02  0.65389162060E+03  0.66757155608E+03  0.12499961793E+03 0.  0.
          4    1    3    3  501    0  0.83646405262E+02 -0.49238157682E+01  0.38750332729E+03  0.39646110356E+03  0.12700000000E+01 0.  1.
         -4    1    3    3    0  501 -0.43920620951E+02 -0.24647937194E+02  0.26638829330E+03  0.27111045251E+03  0.12700000000E+01 0.  1.
          2    1    1    2  502    0 -0.73008416125E+02 -0.57042779766E+02 -0.22233765970E+03  0.24086955488E+03  0.00000000000E+00 0. -1.
          3    1    1    2  503    0  0.33282631814E+02  0.86614532728E+02  0.16101976107E+04  0.16128689210E+04  0.00000000000E+00 0. -1.
<mgrwt>
<rscale>  0 0.86196006E+02</rscale>
<asrwt>0</asrwt>
<pdfrwt beam="1">  1        2 0.35100473E+00 0.80191199E+02</pdfrwt>
<pdfrwt beam="2">  1        1 0.36889114E-01 0.92650459E+02</pdfrwt>
<totfact> 0.96159770E+01</totfact>
</mgrwt>
</event>
<event>
 7    1  0.5277388E-004  0.8922505E+02  0.7546771E-02  0.1322983E+00
          2   -1    0    0  503    0  0.00000000000E+00  0.00000000000E+00  0.12257710296E+04  0.12257710296E+04  0.00000000000E+00 0. -1.
          1   -1    0    0  502    0 -0.00000000000E+00 -0.00000000000E+00 -0.12566970356E+04  0.12566970356E+04  0.00000000000E+00 0. -1.
         25    2    1    2    0    0 -0.88605438990E+02 -0.13614154630E+03  0.62172596005E+02  0.21418577651E+03  0.12499868286E+03 0.  0.
          4    1    3    3  501    0 -0.19053895312E+02 -0.28172090398E+02 -0.38212596710E+02  0.51171603955E+02  0.12700000000E+01 0.  1.
         -4    1    3    3    0  501 -0.69551543678E+02 -0.10796945591E+03  0.10038519271E+03  0.16301417255E+03  0.12700000000E+01 0.  1.
          2    1    1    2  502    0  0.57388142041E+02  0.67192435688E+02 -0.11777164874E+04  0.11810268189E+04  0.00000000000E+00 0. -1.
          1    1    1    2  503    0  0.31217296949E+02  0.68949110615E+02  0.10846178853E+04  0.10872554698E+04  0.00000000000E+00 0. -1.
<mgrwt>
<rscale>  0 0.82177633E+02</rscale>
<asrwt>0</asrwt>
<pdfrwt beam="1">  1        2 0.18858016E+00 0.75686851E+02</pdfrwt>
<pdfrwt beam="2">  1        1 0.19333800E+00 0.89225054E+02</pdfrwt>
<totfact> 0.32925325E+01</totfact>
</mgrwt>
</event>
<event>
 7    1  0.5277388E-004  0.2888855E+02  0.7546771E-02  0.1626999E+00
         -2   -1    0    0    0  501 -0.00000000000E+00  0.00000000000E+00  0.17326222105E+03  0.17326222105E+03  0.00000000000E+00 0.  1.
          2   -1    0    0  503    0  0.00000000000E+00 -0.00000000000E+00 -0.13774407613E+04  0.13774407613E+04  0.00000000000E+00 0. -1.
         25    2    1    2    0    0  0.29684207702E+02  0.36178801291E+02 -0.75467261326E+02  0.15332468695E+03  0.12499237675E+03 0.  0.
          4    1    3    3  502    0  0.29904614712E+02  0.79989390744E+02 -0.67311020257E+02  0.10874270072E+03  0.12700000000E+01 0.  1.
         -4    1    3    3    0  502 -0.22040701079E+00 -0.43810589453E+02 -0.81562410692E+01  0.44581986226E+02  0.12700000000E+01 0.  1.
          1    1    1    2  503    0 -0.27027724914E+02 -0.10060694912E+02 -0.12615957675E+04  0.12619253528E+04  0.00000000000E+00 0. -1.
         -1    1    1    2    0  501 -0.26564827876E+01 -0.26118106379E+02  0.13288448852E+03  0.13545294264E+03  0.00000000000E+00 0.  1.
<mgrwt>
<rscale>  0 0.27539189E+02</rscale>
<asrwt>0</asrwt>
<pdfrwt beam="2">  1        2 0.21191397E+00 0.28888551E+02</pdfrwt>
<pdfrwt beam="1">  1       -2 0.26655726E-01 0.26252855E+02</pdfrwt>
<totfact> 0.22439490E+02</totfact>
</mgrwt>
</event>
<event>
 7    1  0.5277388E-004  0.7143176E+02  0.7546771E-02  0.1457574E+00
         -2   -1    0    0    0  501 -0.00000000000E+00  0.00000000000E+00  0.67868298239E+03  0.67868298239E+03  0.00000000000E+00 0.  1.
          2   -1    0    0  503    0  0.00000000000E+00 -0.00000000000E+00 -0.19115087164E+04  0.19115087164E+04  0.00000000000E+00 0. -1.
         25    2    1    2    0    0 -0.50306615001E+02 -0.19368115750E+01 -0.10932180176E+03  0.17352479198E+03  0.12500036136E+03 0.  0.
          4    1    3    3  502    0  0.24857280623E+02 -0.42562572764E+02 -0.40434637680E+02  0.63765428130E+02  0.12700000000E+01 0.  1.
         -4    1    3    3    0  502 -0.75163895625E+02  0.40625761189E+02 -0.68887164077E+02  0.10975936385E+03  0.12700000000E+01 0.  1.
          3    1    1    2  503    0  0.65382706726E+02  0.30149671188E+02 -0.17689570130E+04  0.17704216489E+04  0.00000000000E+00 0. -1.
         -1    1    1    2    0  501 -0.15076091725E+02 -0.28212859613E+02  0.64545308073E+03  0.64624525794E+03  0.00000000000E+00 0.  1.
<mgrwt>
<rscale>  0 0.47801501E+02</rscale>
<asrwt>0</asrwt>
<pdfrwt beam="2">  1        2 0.29407826E+00 0.71431758E+02</pdfrwt>
<pdfrwt beam="1">  1       -2 0.10441277E+00 0.31988341E+02</pdfrwt>
<totfact> 0.79254564E+00</totfact>
</mgrwt>
</event>
<event>
 7    1  0.5277388E-004  0.9619810E+02  0.7546771E-02  0.1318017E+00
         -2   -1    0    0    0  501 -0.00000000000E+00  0.00000000000E+00  0.15737713865E+03  0.15737713865E+03  0.00000000000E+00 0.  1.
          2   -1    0    0  503    0  0.00000000000E+00 -0.00000000000E+00 -0.10838279218E+04  0.10838279218E+04  0.00000000000E+00 0. -1.
         25    2    1    2    0    0 -0.12163348796E+03 -0.10297751254E+03 -0.18727932060E+02  0.20340194405E+03  0.12499016730E+03 0.  0.
          4    1    3    3  502    0 -0.10182104618E+03 -0.74994112447E+02  0.42332906962E+02  0.13336165213E+03  0.12700000000E+01 0.  1.
         -4    1    3    3    0  502 -0.19812441781E+02 -0.27983400098E+02 -0.61060839022E+02  0.70040291921E+02  0.12700000000E+01 0.  1.
          3    1    1    2  503    0  0.52273690324E+02  0.79014138482E+02 -0.94892632543E+03  0.95364403415E+03  0.00000000000E+00 0. -1.
         -1    1    1    2    0  501  0.69359797636E+02  0.23963374063E+02  0.41203474348E+02  0.84159082237E+02  0.00000000000E+00 0.  1.
<mgrwt>
<rscale>  0 0.84019518E+02</rscale>
<asrwt>0</asrwt>
<pdfrwt beam="2">  1        2 0.16674276E+00 0.96198105E+02</pdfrwt>
<pdfrwt beam="1">  1       -2 0.24211867E-01 0.73382728E+02</pdfrwt>
<totfact> 0.36165574E+02</totfact>
</mgrwt>
</event>
<event>
 7    1  0.5277388E-004  0.5067673E+02  0.7546771E-02  0.1532035E+00
          2   -1    0    0  503    0  0.00000000000E+00  0.00000000000E+00  0.13904230566E+04  0.13904230566E+04  0.00000000000E+00 0. -1.
          1   -1    0    0  502    0 -0.00000000000E+00 -0.00000000000E+00 -0.23300495600E+03  0.23300495600E+03  0.00000000000E+00 0. -1.
         25    2    1    2    0    0 -0.64325597451E+02  0.32267398035E+02 -0.15382818039E+03  0.21087286569E+03  0.12500115575E+03 0.  0.
          4    1    3    3  501    0 -0.20928510979E+02 -0.99176649315E+01  0.17570619184E+02  0.29098147845E+02  0.12700000000E+01 0.  1.
         -4    1    3    3    0  501 -0.43397086472E+02  0.42185062967E+02 -0.17139879957E+03  0.18177471784E+03  0.12700000000E+01 0.  1.
          2    1    1    2  502    0  0.14627958051E+02 -0.22603484077E+02 -0.46571373621E+02  0.53793935440E+02  0.00000000000E+00 0. -1.
          1    1    1    2  503    0  0.49697639400E+02 -0.96639139578E+01  0.13578176547E+04  0.13587612115E+04  0.00000000000E+00 0. -1.
<mgrwt>
<rscale>  0 0.36937968E+02</rscale>
<asrwt>0</asrwt>
<pdfrwt beam="1">  1        2 0.21391123E+00 0.50676728E+02</pdfrwt>
<pdfrwt beam="2">  1        1 0.35846917E-01 0.26923868E+02</pdfrwt>
<totfact> 0.28362971E+02</totfact>
</mgrwt>
</event>
<event>
 7    1  0.5277388E-004  0.3797103E+02  0.7546771E-02  0.1562754E+00
          2   -1    0    0  503    0  0.00000000000E+00  0.00000000000E+00  0.16670286391E+03  0.16670286391E+03  0.00000000000E+00 0. -1.
          1   -1    0    0  502    0 -0.00000000000E+00 -0.00000000000E+00 -0.25364955174E+04  0.25364955174E+04  0.00000000000E+00 0. -1.
         25    2    1    2    0    0  0.41213696517E+02  0.35368260868E+02 -0.14770545066E+04  0.14833280575E+04  0.12499051165E+03 0.  0.
          4    1    3    3  501    0  0.49460580091E+02  0.62280469957E+02 -0.53773028200E+03  0.54358134166E+03  0.12700000000E+01 0.  1.
         -4    1    3    3    0  501 -0.82468835739E+01 -0.26912209089E+02 -0.93932422456E+03  0.93974671579E+03  0.12700000000E+01 0.  1.
          2    1    1    2  502    0 -0.37535048804E+01 -0.29238044140E+02 -0.10538931308E+04  0.10543053084E+04  0.00000000000E+00 0. -1.
          1    1    1    2  503    0 -0.37460191637E+02 -0.61302167285E+01  0.16115498392E+03  0.16556501549E+03  0.00000000000E+00 0. -1.
<mgrwt>
<rscale>  0 0.33456086E+02</rscale>
<asrwt>0</asrwt>
<pdfrwt beam="1">  1        2 0.25646595E-01 0.37971028E+02</pdfrwt>
<pdfrwt beam="2">  1        1 0.39023007E+00 0.29477992E+02</pdfrwt>
<totfact> 0.56801663E+01</totfact>
</mgrwt>
</event>
<event>
 7    1  0.5277388E-004  0.1674101E+03  0.7546771E-02  0.1331310E+00
          2   -1    0    0  503    0  0.00000000000E+00  0.00000000000E+00  0.43340692801E+03  0.43340692801E+03  0.00000000000E+00 0. -1.
          1   -1    0    0  502    0 -0.00000000000E+00 -0.00000000000E+00 -0.34867784037E+03  0.34867784037E+03  0.00000000000E+00 0. -1.
         25    2    1    2    0    0  0.11188123088E+03 -0.16382228664E+03  0.96848972346E+02  0.25369195257E+03  0.12499892771E+03 0.  0.
          4    1    3    3  501    0  0.42200191025E+02  0.12553119925E+01  0.55591612503E+02  0.69817420544E+02  0.12700000000E+01 0.  1.
         -4    1    3    3    0  501  0.69681039857E+02 -0.16507759863E+03  0.41257359842E+02  0.18387453202E+03  0.12700000000E+01 0.  1.
          2    1    1    2  502    0 -0.82302459981E+02  0.14080761756E+03 -0.24400735801E+03  0.29349628762E+03  0.00000000000E+00 0. -1.
          1    1    1    2  503    0 -0.29578770900E+02  0.23014669080E+02  0.23188747331E+03  0.23489652819E+03  0.00000000000E+00 0. -1.
<mgrwt>
<rscale>  0 0.79209507E+02</rscale>
<asrwt>0</asrwt>
<pdfrwt beam="1">  1        2 0.66677989E-01 0.37477709E+02</pdfrwt>
<pdfrwt beam="2">  1        1 0.53642745E-01 0.16741007E+03</pdfrwt>
<totfact> 0.73283576E+02</totfact>
</mgrwt>
</event>
<event>
 7    1  0.5277388E-004  0.4324114E+02  0.7546771E-02  0.1544264E+00
          1   -1    0    0  503    0  0.00000000000E+00  0.00000000000E+00  0.92195475417E+03  0.92195475417E+03  0.00000000000E+00 0. -1.
         -1   -1    0    0    0  501 -0.00000000000E+00 -0.00000000000E+00 -0.13426947231E+04  0.13426947231E+04  0.00000000000E+00 0.  1.
         25    2    1    2    0    0 -0.64059611591E+01 -0.19880913798E+02  0.15833190362E+02  0.12771821606E+03  0.12499986290E+03 0.  0.
          4    1    3    3  502    0  0.51018129482E+02 -0.35247510418E+02 -0.10119070441E+02  0.62843018809E+02  0.12700000000E+01 0. -1.
         -4    1    3    3    0  502 -0.57424090641E+02  0.15366596620E+02  0.25952260803E+02  0.64875197251E+02  0.12700000000E+01 0. -1.
          2    1    1    2  503    0 -0.13164919154E+02  0.41462092362E+02  0.84945748981E+03  0.85057065973E+03  0.00000000000E+00 0. -1.
         -2    1    1    2    0  501  0.19570880313E+02 -0.21581178565E+02 -0.12860306491E+04  0.12863606015E+04  0.00000000000E+00 0.  1.
<mgrwt>
<rscale>  0 0.35493241E+02</rscale>
<asrwt>0</asrwt>
<pdfrwt beam="1">  1        1 0.14183919E+00 0.43241144E+02</pdfrwt>
<pdfrwt beam="2">  1       -1 0.20656842E+00 0.29133600E+02</pdfrwt>
<totfact> 0.38439224E+00</totfact>
</mgrwt>
</event>
<event>
 7    1  0.5277388E-004  0.7829340E+02  0.7546771E-02  0.1386417E+00
          1   -1    0    0  503    0  0.00000000000E+00  0.00000000000E+00  0.17561384677E+03  0.17561384677E+03  0.00000000000E+00 0. -1.
         -1   -1    0    0    0  501 -0.00000000000E+00 -0.00000000000E+00 -0.28979740066E+03  0.28979740066E+03  0.00000000000E+00 0.  1.
         25    2    1    2    0    0 -0.31681212299E+02  0.35448432018E+02 -0.12046695163E+03  0.17998957061E+03  0.12499467407E+03 0.  0.
          4    1    3    3  502    0 -0.29000067825E+02  0.15288258797E+02 -0.14467417858E+03  0.14834744905E+03  0.12700000000E+01 0. -1.
         -4    1    3    3    0  502 -0.26811444737E+01  0.20160173221E+02  0.24207226952E+02  0.31642121558E+02  0.12700000000E+01 0. -1.
          2    1    1    2  503    0 -0.18987193900E+02  0.46668668105E+02  0.12362762978E+03  0.13350007101E+03  0.00000000000E+00 0. -1.
         -2    1    1    2    0  501  0.50668406199E+02 -0.82117100124E+02 -0.11734423205E+03  0.15192160582E+03  0.00000000000E+00 0.  1.
<mgrwt>
<rscale>  0 0.62806695E+02</rscale>
<asrwt>0</asrwt>
<pdfrwt beam="1">  1        1 0.27017515E-01 0.50383312E+02</pdfrwt>
<pdfrwt beam="2">  1       -1 0.44584216E-01 0.78293404E+02</pdfrwt>
<totfact> 0.85260547E+02</totfact>
</mgrwt>
</event>
<event>
 7    1  0.5277388E-004  0.2930428E+03  0.7546771E-02  0.1160422E+00
          1   -1    0    0  502    0 -0.00000000000E+00  0.00000000000E+00  0.58104418604E+03  0.58104418604E+03  0.00000000000E+00 0. -1.
          2   -1    0    0  503    0  0.00000000000E+00 -0.00000000000E+00 -0.30015479589E+04  0.30015479589E+04  0.00000000000E+00 0. -1.
         25    2    1    2    0    0  0.59806503381E+02  0.21627422823E+03  0.15394047907E+03  0.29944735231E+03  0.12497874246E+03 0.  0.
          4    1    3    3  501    0  0.19768006274E+02  0.58095256444E+02 -0.16431465323E+02  0.63540843920E+02  0.12700000000E+01 0.  1.
         -4    1    3    3    0  501  0.40038497107E+02  0.15817897178E+03  0.17037194439E+03  0.23590650839E+03  0.12700000000E+01 0.  1.
          2    1    1    2  502    0 -0.91892614218E+02  0.77806442239E+02  0.33640374692E+03  0.35730319890E+03  0.00000000000E+00 0. -1.
          1    1    1    2  503    0  0.32086110837E+02 -0.29408067046E+03 -0.29108479989E+04  0.29258415938E+04  0.00000000000E+00 0. -1.
<mgrwt>
<rscale>  0 0.18784226E+03</rscale>
<asrwt>0</asrwt>
<pdfrwt beam="2">  1        2 0.46177662E+00 0.29304285E+03</pdfrwt>
<pdfrwt beam="1">  1        1 0.89391411E-01 0.12040804E+03</pdfrwt>
<totfact> 0.10675029E+01</totfact>
</mgrwt>
</event>
<event>
 7    1  0.5277388E-004  0.2860560E+03  0.7546771E-02  0.1180426E+00
          2   -1    0    0  503    0  0.00000000000E+00  0.00000000000E+00  0.41492046872E+03  0.41492046872E+03  0.00000000000E+00 0. -1.
          1   -1    0    0  502    0 -0.00000000000E+00 -0.00000000000E+00 -0.15969074780E+04  0.15969074780E+04  0.00000000000E+00 0. -1.
         25    2    1    2    0    0  0.32549035958E+03  0.17564711268E+03 -0.25527083700E+03  0.46646188357E+03  0.12501042449E+03 0.  0.
          4    1    3    3  501    0  0.33047455264E+03  0.15814606453E+03 -0.25789253499E+03  0.44803323556E+03  0.12700000000E+01 0.  1.
         -4    1    3    3    0  501 -0.49841930637E+01  0.17501048157E+02  0.26216979857E+01  0.18428648009E+02  0.12700000000E+01 0.  1.
          2    1    1    2  502    0 -0.89580225149E+02 -0.40083494285E+02 -0.11737617882E+04  0.11778573932E+04  0.00000000000E+00 0. -1.
          1    1    1    2  503    0 -0.23591013443E+03 -0.13556361840E+03  0.24704561592E+03  0.36750866997E+03  0.00000000000E+00 0. -1.
<mgrwt>
<rscale>  0 0.16755092E+03</rscale>
<asrwt>0</asrwt>
<pdfrwt beam="1">  1        2 0.63833918E-01 0.28605603E+03</pdfrwt>
<pdfrwt beam="2">  1        1 0.24567808E+00 0.98139203E+02</pdfrwt>
<totfact> 0.71536547E+01</totfact>
</mgrwt>
</event>
<event>
 7    1  0.5277388E-004  0.1585106E+03  0.7546771E-02  0.1271530E+00
          2   -1    0    0  503    0  0.00000000000E+00  0.00000000000E+00  0.84242800299E+03  0.84242800299E+03  0.00000000000E+00 0. -1.
         -2   -1    0    0    0  501 -0.00000000000E+00 -0.00000000000E+00 -0.24466405295E+03  0.24466405295E+03  0.00000000000E+00 0.  1.
         25    2    1    2    0    0  0.14191018845E+03 -0.10193916464E+03  0.15301056440E+03  0.26376689853E+03  0.12502259422E+03 0.  0.
          4    1    3    3  502    0  0.58307788557E+02 -0.10377723046E+03  0.13156791464E+03  0.17742953765E+03  0.12700000000E+01 0. -1.
         -4    1    3    3    0  502  0.83602399894E+02  0.18380658267E+01  0.21442649766E+02  0.86337360876E+02  0.12700000000E+01 0. -1.
          1    1    1    2  503    0 -0.60127120333E+02 -0.33052136394E+02  0.59883479969E+03  0.60275271184E+03  0.00000000000E+00 0. -1.
         -1    1    1    2    0  501 -0.81783068119E+02  0.13499130103E+03 -0.15408141406E+03  0.22057244556E+03  0.00000000000E+00 0.  1.
<mgrwt>
<rscale>  0 0.10428737E+03</rscale>
<asrwt>0</asrwt>
<pdfrwt beam="1">  1        2 0.12960431E+00 0.68612785E+02</pdfrwt>
<pdfrwt beam="2">  1       -2 0.37640624E-01 0.15851061E+03</pdfrwt>
<totfact> 0.23598403E+02</totfact>
</mgrwt>
</event>
<event>
 7    1  0.5277388E-004  0.9278126E+02  0.7546771E-02  0.1372747E+00
          2   -1    0    0  503    0  0.00000000000E+00  0.00000000000E+00  0.14502413660E+04  0.14502413660E+04  0.00000000000E+00 0. -1.
          1   -1    0    0  502    0 -0.00000000000E+00 -0.00000000000E+00 -0.22292298241E+02  0.22292298241E+02  0.00000000000E+00 0. -1.
         25    2    1    2    0    0 -0.29760577438E+02 -0.49114592471E+02  0.45277527092E+03  0.47321124801E+03  0.12500201649E+03 0.  0.
          4    1    3    3  501    0  0.12007802315E+02 -0.75254341549E+02  0.17182928248E+03  0.18797424945E+03  0.12700000000E+01 0. -1.
         -4    1    3    3    0  501 -0.41768379753E+02  0.26139749078E+02  0.28094598844E+03  0.28523699857E+03  0.12700000000E+01 0. -1.
          2    1    1    2  502    0 -0.38491469574E+02 -0.27889520509E+02  0.52077356724E+02  0.70508649594E+02  0.00000000000E+00 0. -1.
          1    1    1    2  503    0  0.68252047012E+02  0.77004112980E+02  0.92309644016E+03  0.92881376668E+03  0.00000000000E+00 0. -1.
<mgrwt>
<rscale>  0 0.66409361E+02</rscale>
<asrwt>0</asrwt>
<pdfrwt beam="1">  1        2 0.22311398E+00 0.92781259E+02</pdfrwt>
<pdfrwt beam="2">  1        1 0.34295855E-02 0.47533342E+02</pdfrwt>
<totfact> 0.50117788E+03</totfact>
</mgrwt>
</event>
<event>
 7    1  0.5347241E-004  0.1054678E+03  0.7546771E-02  0.1408083E+00
         -2   -1    0    0    0  501 -0.00000000000E+00  0.00000000000E+00  0.61774843300E+02  0.61774843300E+02  0.00000000000E+00 0.  1.
          2   -1    0    0  503    0  0.00000000000E+00 -0.00000000000E+00 -0.38726249712E+03  0.38726249712E+03  0.00000000000E+00 0. -1.
         25    2    1    2    0    0  0.79023785983E+02 -0.70637799549E+02 -0.13158224688E+03  0.21017704616E+03  0.12500418217E+03 0.  0.
          4    1    3    3  502    0  0.88925452180E+02 -0.54006803519E+02 -0.32196328883E+02  0.10891596469E+03  0.12700000000E+01 0.  1.
         -4    1    3    3    0  502 -0.99016661971E+01 -0.16630996030E+02 -0.99385917999E+02  0.10126108146E+03  0.12700000000E+01 0.  1.
          1    1    1    2  503    0 -0.23421904615E+02 -0.21038639946E+02 -0.55175791727E+02  0.63526199156E+02  0.00000000000E+00 0. -1.
         -1    1    1    2    0  501 -0.55601881368E+02  0.91676439495E+02 -0.13872961521E+03  0.17533409511E+03  0.00000000000E+00 0.  1.
<mgrwt>
<rscale>  0 0.57623737E+02</rscale>
<asrwt>0</asrwt>
<pdfrwt beam="2">  1        2 0.59578844E-01 0.31483488E+02</pdfrwt>
<pdfrwt beam="1">  1       -2 0.95038223E-02 0.10546783E+03</pdfrwt>
<totfact> 0.56239487E+03</totfact>
</mgrwt>
</event>
<event>
 7    1  0.5277388E-004  0.7017311E+02  0.7546771E-02  0.1469549E+00
          2   -1    0    0  503    0  0.00000000000E+00  0.00000000000E+00  0.19324613404E+04  0.19324613404E+04  0.00000000000E+00 0. -1.
          1   -1    0    0  502    0 -0.00000000000E+00 -0.00000000000E+00 -0.25761948574E+03  0.25761948574E+03  0.00000000000E+00 0. -1.
         25    2    1    2    0    0 -0.60889090198E+02  0.40576661706E+02  0.45291813436E+02  0.15175813763E+03  0.12500094876E+03 0.  0.
          4    1    3    3  501    0 -0.71433305722E+02  0.25356131343E+02 -0.24397461409E+02  0.79639811565E+02  0.12700000000E+01 0. -1.
         -4    1    3    3    0  501  0.10544215523E+02  0.15220530363E+02  0.69689274845E+02  0.72118326062E+02  0.12700000000E+01 0. -1.
          2    1    1    2  502    0  0.37703609242E+02 -0.59396443851E+02 -0.19820664508E+03  0.21032207170E+03  0.00000000000E+00 0. -1.
          1    1    1    2  503    0  0.23185480956E+02  0.18819782145E+02  0.18277566863E+04  0.18280006168E+04  0.00000000000E+00 0. -1.
<mgrwt>
<rscale>  0 0.45776885E+02</rscale>
<asrwt>0</asrwt>
<pdfrwt beam="1">  1        2 0.29730174E+00 0.29862196E+02</pdfrwt>
<pdfrwt beam="2">  1        1 0.39633768E-01 0.70173112E+02</pdfrwt>
<totfact> 0.14744876E+02</totfact>
</mgrwt>
</event>
<event>
 7    1  0.5277388E-004  0.6557408E+02  0.7546771E-02  0.1383859E+00
          1   -1    0    0  502    0 -0.00000000000E+00  0.00000000000E+00  0.30079267953E+04  0.30079267953E+04  0.00000000000E+00 0. -1.
          2   -1    0    0  503    0  0.00000000000E+00 -0.00000000000E+00 -0.18766994331E+04  0.18766994331E+04  0.00000000000E+00 0. -1.
         25    2    1    2    0    0  0.14615360292E+02 -0.10081221475E+03  0.31057543625E+03  0.34994249236E+03  0.12500373977E+03 0.  0.
          4    1    3    3  501    0  0.37532470234E+02 -0.74099638573E+02  0.75538179049E+02  0.11228121905E+03  0.12700000000E+01 0.  1.
         -4    1    3    3    0  501 -0.22917109941E+02 -0.26712576173E+02  0.23503725720E+03  0.23766127330E+03  0.12700000000E+01 0.  1.
          2    1    1    2  502    0 -0.44835070283E+02  0.47347376854E+02  0.26767628975E+04  0.26775570148E+04  0.00000000000E+00 0. -1.
          1    1    1    2  503    0  0.30219709990E+02  0.53464837892E+02 -0.18561109716E+04  0.18571267212E+04  0.00000000000E+00 0. -1.
<mgrwt>
<rscale>  0 0.63460128E+02</rscale>
<asrwt>0</asrwt>
<pdfrwt beam="2">  1        2 0.28872299E+00 0.61414329E+02</pdfrwt>
<pdfrwt beam="1">  1        1 0.46275797E+00 0.65574076E+02</pdfrwt>
<totfact> 0.12497729E+00</totfact>
</mgrwt>
</event>
<event>
 7    1  0.5277388E-004  0.1213066E+03  0.7546771E-02  0.1316508E+00
          1   -1    0    0  502    0 -0.00000000000E+00  0.00000000000E+00  0.61435053395E+03  0.61435053395E+03  0.00000000000E+00 0. -1.
          2   -1    0    0  503    0  0.00000000000E+00 -0.00000000000E+00 -0.69994700789E+03  0.69994700789E+03  0.00000000000E+00 0. -1.
         25    2    1    2    0    0  0.83066882504E+02 -0.15832053360E+03  0.17845841512E+03  0.28183808789E+03  0.12497921237E+03 0.  0.
          4    1    3    3  501    0  0.95582987135E+02 -0.16972795939E+03  0.14026922087E+03  0.24004323538E+03  0.12700000000E+01 0. -1.
         -4    1    3    3    0  501 -0.12516104631E+02  0.11407425788E+02  0.38189194252E+02  0.41794852504E+02  0.12700000000E+01 0. -1.
          2    1    1    2  502    0 -0.24692108120E+02  0.53569981368E+02  0.37633945894E+03  0.38093415634E+03  0.00000000000E+00 0. -1.
          1    1    1    2  503    0 -0.58374774384E+02  0.10475055224E+03 -0.64039434800E+03  0.65152529761E+03  0.00000000000E+00 0. -1.
<mgrwt>
<rscale>  0 0.84590114E+02</rscale>
<asrwt>0</asrwt>
<pdfrwt beam="2">  1        2 0.10768416E+00 0.12130658E+03</pdfrwt>
<pdfrwt beam="1">  1        1 0.94515466E-01 0.58986805E+02</pdfrwt>
<totfact> 0.21095865E+02</totfact>
</mgrwt>
</event>
<event>
 7    1  0.5277388E-004  0.7056225E+02  0.7546771E-02  0.1364982E+00
          2   -1    0    0  503    0  0.00000000000E+00  0.00000000000E+00  0.25967583918E+03  0.25967583918E+03  0.00000000000E+00 0. -1.
          1   -1    0    0  502    0 -0.00000000000E+00 -0.00000000000E+00 -0.18061811263E+04  0.18061811263E+04  0.00000000000E+00 0. -1.
         25    2    1    2    0    0  0.64909454258E+02  0.11848130670E+03 -0.37791902330E+03  0.42035708431E+03  0.12500493137E+03 0.  0.
          4    1    3    3  501    0  0.44950504506E+01 -0.24687631971E+02 -0.86736396226E+02  0.90302270077E+02  0.12700000000E+01 0. -1.
         -4    1    3    3    0  501  0.60414403808E+02  0.14316893867E+03 -0.29118262708E+03  0.33005481424E+03  0.12700000000E+01 0. -1.
          2    1    1    2  502    0 -0.39977434971E+02 -0.53339114298E+02 -0.14011330980E+04  0.14027177959E+04  0.00000000000E+00 0. -1.
          1    1    1    2  503    0 -0.24932019287E+02 -0.65142192403E+02  0.23254683424E+03  0.24278208528E+03  0.00000000000E+00 0. -1.
<mgrwt>
<rscale>  0 0.68582225E+02</rscale>
<asrwt>0</asrwt>
<pdfrwt beam="1">  1        2 0.39950129E-01 0.70562255E+02</pdfrwt>
<pdfrwt beam="2">  1        1 0.27787402E+00 0.66657756E+02</pdfrwt>
<totfact> 0.90678020E+01</totfact>
</mgrwt>
</event>
<event>
 7    1  0.5277388E-004  0.2321480E+03  0.7546771E-02  0.1148517E+00
          2   -1    0    0  503    0  0.00000000000E+00  0.00000000000E+00  0.21922590476E+04  0.21922590476E+04  0.00000000000E+00 0. -1.
          1   -1    0    0  502    0 -0.00000000000E+00 -0.00000000000E+00 -0.12306528864E+04  0.12306528864E+04  0.00000000000E+00 0. -1.
         25    2    1    2    0    0  0.37207498145E+03  0.15429326011E+03  0.47884811766E+03  0.63809526488E+03  0.12499538129E+03 0.  0.
          4    1    3    3  501    0  0.10796737522E+03 -0.50458165940E+01  0.83130270911E+02  0.13636227198E+03  0.12700000000E+01 0.  1.
         -4    1    3    3    0  501  0.26410760622E+03  0.15933907670E+03  0.39571784675E+03  0.50173299290E+03  0.12700000000E+01 0.  1.
          2    1    1    2  502    0 -0.21545277080E+03 -0.76627501065E+02 -0.11349155576E+04  0.11577240575E+04  0.00000000000E+00 0. -1.
          1    1    1    2  503    0 -0.15662221065E+03 -0.77665759045E+02  0.16176736011E+04  0.16270926116E+04  0.00000000000E+00 0. -1.
<mgrwt>
<rscale>  0 0.20145573E+03</rscale>
<asrwt>0</asrwt>
<pdfrwt beam="1">  1        2 0.33727062E+00 0.17482130E+03</pdfrwt>
<pdfrwt beam="2">  1        1 0.18933121E+00 0.23214799E+03</pdfrwt>
<totfact> 0.93923754E+00</totfact>
</mgrwt>
</event>
<event>
 7    1  0.5277388E-004  0.1129502E+03  0.7546771E-02  0.1316426E+00
          1   -1    0    0  502    0 -0.00000000000E+00  0.00000000000E+00  0.94988699171E+03  0.94988699171E+03  0.00000000000E+00 0. -1.
          2   -1    0    0  503    0  0.00000000000E+00 -0.00000000000E+00 -0.11894223294E+04  0.11894223294E+04  0.00000000000E+00 0. -1.
         25    2    1    2    0    0  0.11213459101E+03 -0.13043859322E+03  0.13327453885E+03  0.25095061193E+03  0.12500285526E+03 0.  0.
          4    1    3    3  501    0 -0.25793312926E+02 -0.57301596195E+01  0.12831313093E+02  0.29400428851E+02  0.12700000000E+01 0. -1.
         -4    1    3    3    0  501  0.13792790393E+03 -0.12470843360E+03  0.12044322576E+03  0.22155018308E+03  0.12700000000E+01 0. -1.
          2    1    1    2  502    0 -0.75308956533E+02  0.78833295690E+02  0.75295655339E+03  0.76080858220E+03  0.00000000000E+00 0. -1.
          3    1    1    2  503    0 -0.36825634474E+02  0.51605297526E+02 -0.11257664300E+04  0.11275501270E+04  0.00000000000E+00 0. -1.
<mgrwt>
<rscale>  0 0.84621239E+02</rscale>
<asrwt>0</asrwt>
<pdfrwt beam="2">  1        2 0.18298805E+00 0.63397430E+02</pdfrwt>
<pdfrwt beam="1">  1        1 0.14613646E+00 0.11295023E+03</pdfrwt>
<totfact> 0.56093604E+01</totfact>
</mgrwt>
</event>
<event>
 7    1  0.5277388E-004  0.1205244E+03  0.7546771E-02  0.1257631E+00
          1   -1    0    0  502    0 -0.00000000000E+00  0.00000000000E+00  0.21653947105E+03  0.21653947105E+03  0.00000000000E+00 0. -1.
          2   -1    0    0  503    0  0.00000000000E+00 -0.00000000000E+00 -0.18994570438E+04  0.18994570438E+04  0.00000000000E+00 0. -1.
         25    2    1    2    0    0  0.16401463925E+02  0.37009099781E+02 -0.34979011644E+03  0.37365225839E+03  0.12499681259E+03 0.  0.
          4    1    3    3  501    0  0.28749038476E+02  0.42104091141E+02 -0.35544981871E+03  0.35908974954E+03  0.12700000000E+01 0. -1.
         -4    1    3    3    0  501 -0.12347574551E+02 -0.50949913605E+01  0.56597022706E+01  0.14562508852E+02  0.12700000000E+01 0. -1.
          2    1    1    2  502    0  0.52459935387E+02 -0.11406358317E+03  0.18342362461E+03  0.22227634128E+03  0.00000000000E+00 0. -1.
          3    1    1    2  503    0 -0.68861399312E+02  0.77054483387E+02 -0.15165510810E+04  0.15200679152E+04  0.00000000000E+00 0. -1.
<mgrwt>
<rscale>  0 0.11160225E+03</rscale>
<asrwt>0</asrwt>
<pdfrwt beam="2">  1        2 0.29222417E+00 0.10334063E+03</pdfrwt>
<pdfrwt beam="1">  1        1 0.33313764E-01 0.12052435E+03</pdfrwt>
<totfact> 0.16563168E+02</totfact>
</mgrwt>
</event>
<event>
 7    1  0.5277388E-004  0.5151828E+02  0.7546771E-02  0.1444032E+00
          1   -1    0    0  502    0 -0.00000000000E+00  0.00000000000E+00  0.40272302879E+02  0.40272302879E+02  0.00000000000E+00 0. -1.
          2   -1    0    0  503    0  0.00000000000E+00 -0.00000000000E+00 -0.13235201443E+04  0.13235201443E+04  0.00000000000E+00 0. -1.
         25    2    1    2    0    0 -0.21428753504E+02  0.11455837992E+02 -0.19333223816E+03  0.23152707654E+03  0.12504801141E+03 0.  0.
          4    1    3    3  501    0 -0.45787145914E+02 -0.14796426865E+02 -0.16172580123E+02  0.50779545358E+02  0.12700000000E+01 0.  1.
         -4    1    3    3    0  501  0.24358392411E+02  0.26252264858E+02 -0.17715965804E+03  0.18074753118E+03  0.12700000000E+01 0.  1.
          2    1    1    2  502    0  0.26451349317E+02  0.41247694064E+02 -0.87151110479E+01  0.49769461589E+02  0.00000000000E+00 0. -1.
          1    1    1    2  503    0 -0.50225958138E+01 -0.52703532056E+02 -0.10812004922E+04  0.10824959091E+04  0.00000000000E+00 0. -1.
<mgrwt>
<rscale>  0 0.50243608E+02</rscale>
<asrwt>0</asrwt>
<pdfrwt beam="2">  1        2 0.20361850E+00 0.51518283E+02</pdfrwt>
<pdfrwt beam="1">  1        1 0.61957384E-02 0.49000471E+02</pdfrwt>
<totfact> 0.27914545E+03</totfact>
</mgrwt>
</event>
<event>
 7    1  0.5277388E-004  0.9232055E+02  0.7546771E-02  0.1338846E+00
          2   -1    0    0  503    0  0.00000000000E+00  0.00000000000E+00  0.19299673061E+03  0.19299673061E+03  0.00000000000E+00 0. -1.
          1   -1    0    0  502    0 -0.00000000000E+00 -0.00000000000E+00 -0.21157290288E+04  0.21157290288E+04  0.00000000000E+00 0. -1.
         25    2    1    2    0    0 -0.16538646014E+02  0.13176898356E+03 -0.31393734408E+03  0.36306717274E+03  0.12499809628E+03 0.  0.
          4    1    3    3  501    0 -0.17350420991E+02  0.72689426362E+02 -0.28970851039E+03  0.29919462513E+03  0.12700000000E+01 0. -1.
         -4    1    3    3    0  501  0.81177497796E+00  0.59079557194E+02 -0.24228833697E+02  0.63872547617E+02  0.12700000000E+01 0. -1.
          2    1    1    2  502    0  0.48669694222E+02 -0.76843052196E+02 -0.17700067567E+04  0.17723423801E+04  0.00000000000E+00 0. -1.
          3    1    1    2  503    0 -0.32131048208E+02 -0.54925931359E+02  0.16121180251E+03  0.17331620658E+03  0.00000000000E+00 0. -1.
<mgrwt>
<rscale>  0 0.76646647E+02</rscale>
<asrwt>0</asrwt>
<pdfrwt beam="1">  1        2 0.29691803E-01 0.63633813E+02</pdfrwt>
<pdfrwt beam="2">  1        1 0.32549679E+00 0.92320547E+02</pdfrwt>
<totfact> 0.76024484E+01</totfact>
</mgrwt>
</event>
<event>
 7    1  0.5277388E-004  0.1171412E+03  0.7546771E-02  0.1315836E+00
          2   -1    0    0  503    0  0.00000000000E+00  0.00000000000E+00  0.75181757101E+03  0.75181757101E+03  0.00000000000E+00 0. -1.
          1   -1    0    0  502    0 -0.00000000000E+00 -0.00000000000E+00 -0.17501393219E+03  0.17501393219E+03  0.00000000000E+00 0. -1.
         25    2    1    2    0    0 -0.16063075763E+03  0.71935869835E+02  0.48766297403E+03  0.53330653026E+03  0.12499467713E+03 0.  0.
          4    1    3    3  501    0 -0.26545983347E+02  0.15147649032E+02  0.26812046385E+03  0.26985984611E+03  0.12700000000E+01 0. -1.
         -4    1    3    3    0  501 -0.13408477428E+03  0.56788220804E+02  0.21954251018E+03  0.26344668415E+03  0.12700000000E+01 0. -1.
          2    1    1    2  502    0  0.10388910336E+03 -0.48334825728E+02 -0.12568849332E+03  0.17007880093E+03  0.00000000000E+00 0. -1.
          1    1    1    2  503    0  0.56741654267E+02 -0.23601044107E+02  0.21482915810E+03  0.22344617200E+03  0.00000000000E+00 0. -1.
<mgrwt>
<rscale>  0 0.84845887E+02</rscale>
<asrwt>0</asrwt>
<pdfrwt beam="1">  1        2 0.11566424E+00 0.61454248E+02</pdfrwt>
<pdfrwt beam="2">  1        1 0.26925221E-01 0.11714120E+03</pdfrwt>
<totfact> 0.93971306E+02</totfact>
</mgrwt>
</event>
<event>
 7    1  0.5277388E-004  0.1515714E+03  0.7546771E-02  0.1280932E+00
          1   -1    0    0  502    0 -0.00000000000E+00  0.00000000000E+00  0.48680202722E+03  0.48680202722E+03  0.00000000000E+00 0. -1.
          2   -1    0    0  503    0  0.00000000000E+00 -0.00000000000E+00 -0.55847900766E+03  0.55847900766E+03  0.00000000000E+00 0. -1.
         25    2    1    2    0    0  0.70480741656E+02  0.19935715745E+03 -0.98616203703E+02  0.26469060651E+03  0.12500060147E+03 0.  0.
          4    1    3    3  501    0 -0.24862556885E+02  0.65785081333E+01 -0.28659699787E+02  0.38528103976E+02  0.12700000000E+01 0. -1.
         -4    1    3    3    0  501  0.95343298541E+02  0.19277864932E+03 -0.69956503915E+02  0.22616250253E+03  0.12700000000E+01 0. -1.
          2    1    1    2  502    0 -0.38761894842E+02 -0.14196030689E+03  0.38729835226E+03  0.41431295766E+03  0.00000000000E+00 0. -1.
          1    1    1    2  503    0 -0.31718846815E+02 -0.57396850569E+02 -0.36035912900E+03  0.36627747071E+03  0.00000000000E+00 0. -1.
<mgrwt>
<rscale>  0 0.99698333E+02</rscale>
<asrwt>0</asrwt>
<pdfrwt beam="2">  1        2 0.85919846E-01 0.65578073E+02</pdfrwt>
<pdfrwt beam="1">  1        1 0.74892620E-01 0.15157136E+03</pdfrwt>
<totfact> 0.36531057E+02</totfact>
</mgrwt>
</event>
<event>
 7    1  0.5277388E-004  0.5002077E+02  0.7546771E-02  0.1501601E+00
         -2   -1    0    0    0  501  0.00000000000E+00  0.00000000000E+00  0.93596948501E+03  0.93596948501E+03  0.00000000000E+00 0.  1.
         -1   -1    0    0    0  502 -0.00000000000E+00 -0.00000000000E+00 -0.58895243761E+02  0.58895243761E+02  0.00000000000E+00 0.  1.
         25    2    1    2    0    0 -0.12671959674E+02  0.63185952123E+02  0.57533933029E+03  0.59227874164E+03  0.12500287885E+03 0.  0.
          4    1    3    3  503    0 -0.80619521175E+01  0.22068379756E+02  0.53136681655E+03  0.53188750228E+03  0.12700000000E+01 0. -1.
         -4    1    3    3    0  503 -0.46100075569E+01  0.41117572366E+02  0.43972513737E+02  0.60391239359E+02  0.12700000000E+01 0. -1.
         -2    1    1    2    0  502  0.28628335064E+02 -0.17326107716E+02 -0.42978514348E+02  0.54469516913E+02  0.00000000000E+00 0.  1.
         -3    1    1    2    0  501 -0.15956375390E+02 -0.45859844406E+02  0.34471342531E+03  0.34811647022E+03  0.00000000000E+00 0.  1.
<mgrwt>
<rscale>  0 0.40912680E+02</rscale>
<asrwt>0</asrwt>
<pdfrwt beam="1">  1       -2 0.14399529E+00 0.50020770E+02</pdfrwt>
<pdfrwt beam="2">  1       -1 0.90608074E-02 0.33463048E+02</pdfrwt>
<totfact> 0.17184847E+02</totfact>
</mgrwt>
</event>
<event>
 7    1  0.5277388E-004  0.5316440E+02  0.7546771E-02  0.1457580E+00
         -1   -1    0    0    0  501 -0.00000000000E+00  0.00000000000E+00  0.20055675389E+03  0.20055675389E+03  0.00000000000E+00 0.  1.
          1   -1    0    0  503    0  0.00000000000E+00 -0.00000000000E+00 -0.72252095587E+02  0.72252095587E+02  0.00000000000E+00 0. -1.
         25    2    1    2    0    0  0.43940101676E+02 -0.21371014882E+02  0.53653617489E+02  0.14453801191E+03  0.12500029362E+03 0.  0.
          4    1    3    3  502    0  0.23480764418E+02 -0.62511767351E+02 -0.84004348717E+01  0.67314541973E+02  0.12700000000E+01 0.  1.
         -4    1    3    3    0  502  0.20459337258E+02  0.41140752469E+02  0.62054052361E+02  0.77223469937E+02  0.12700000000E+01 0.  1.
          2    1    1    2  503    0  0.12000063476E+02  0.41268219637E+02  0.43787377027E+02  0.61354721598E+02  0.00000000000E+00 0. -1.
         -2    1    1    2    0  501 -0.55940165152E+02 -0.19897204755E+02  0.30863663788E+02  0.66916115971E+02  0.00000000000E+00 0.  1.
<mgrwt>
<rscale>  0 0.47800360E+02</rscale>
<asrwt>0</asrwt>
<pdfrwt beam="2">  1        1 0.11115707E-01 0.42977523E+02</pdfrwt>
<pdfrwt beam="1">  1       -1 0.30854885E-01 0.53164404E+02</pdfrwt>
<totfact> 0.47218737E+03</totfact>
</mgrwt>
</event>
<event>
 7    1  0.5277388E-004  0.7427930E+02  0.7546771E-02  0.1455617E+00
          1   -1    0    0  502    0 -0.00000000000E+00  0.00000000000E+00  0.19493744578E+02  0.19493744578E+02  0.00000000000E+00 0. -1.
          2   -1    0    0  503    0  0.00000000000E+00 -0.00000000000E+00 -0.12013628661E+04  0.12013628661E+04  0.00000000000E+00 0. -1.
         25    2    1    2    0    0 -0.19106916208E+01  0.49297180083E+02 -0.46536019768E+03  0.48437548996E+03  0.12500255589E+03 0.  0.
          4    1    3    3  501    0 -0.10188776732E+02  0.48895496554E+02 -0.47140113799E+03  0.47404137642E+03  0.12700000000E+01 0. -1.
         -4    1    3    3    0  501  0.82780851114E+01  0.40168352871E+00  0.60409403122E+01  0.10334113538E+02  0.12700000000E+01 0. -1.
          2    1    1    2  502    0  0.26361927358E+01  0.31093016594E+02 -0.24118046711E+02  0.39438627895E+02  0.00000000000E+00 0. -1.
          1    1    1    2  503    0 -0.72550111500E+00 -0.80390196677E+02 -0.69239087708E+03  0.69704249278E+03  0.00000000000E+00 0. -1.
<mgrwt>
<rscale>  0 0.48144094E+02</rscale>
<asrwt>0</asrwt>
<pdfrwt beam="2">  1        2 0.18482508E+00 0.74279305E+02</pdfrwt>
<pdfrwt beam="1">  1        1 0.29990373E-02 0.31204570E+02</pdfrwt>
<totfact> 0.77493552E+03</totfact>
</mgrwt>
</event>
<event>
 7    1  0.5277388E-004  0.9161399E+02  0.7546771E-02  0.1343646E+00
          1   -1    0    0  502    0 -0.00000000000E+00  0.00000000000E+00  0.12245187095E+03  0.12245187095E+03  0.00000000000E+00 0. -1.
          2   -1    0    0  503    0  0.00000000000E+00 -0.00000000000E+00 -0.28910769204E+03  0.28910769204E+03  0.00000000000E+00 0. -1.
         25    2    1    2    0    0  0.11717414863E+03  0.12202761503E+02 -0.17722631338E+03  0.24680232612E+03  0.12499413397E+03 0.  0.
          4    1    3    3  501    0  0.95956381085E+01 -0.25587877199E+02 -0.11229901203E+03  0.11558328916E+03  0.12700000000E+01 0.  1.
         -4    1    3    3    0  501  0.10757851052E+03  0.37790638702E+02 -0.64927301351E+02  0.13121903696E+03  0.12700000000E+01 0.  1.
          2    1    1    2  502    0 -0.52685729495E+02  0.31759699290E+02  0.48161913486E+02  0.78128320743E+02  0.00000000000E+00 0. -1.
          1    1    1    2  503    0 -0.64488419133E+02 -0.43962460793E+02 -0.37591421200E+02  0.86628916125E+02  0.00000000000E+00 0. -1.
<mgrwt>
<rscale>  0 0.75072696E+02</rscale>
<asrwt>0</asrwt>
<pdfrwt beam="2">  1        2 0.44478106E-01 0.91613990E+02</pdfrwt>
<pdfrwt beam="1">  1        1 0.18838750E-01 0.61518002E+02</pdfrwt>
<totfact> 0.40026017E+03</totfact>
</mgrwt>
</event>
<event>
 7    1  0.5277388E-004  0.8469660E+02  0.7546771E-02  0.1365585E+00
          1   -1    0    0  503    0  0.00000000000E+00  0.00000000000E+00  0.49489172652E+02  0.49489172652E+02  0.00000000000E+00 0. -1.
         -1   -1    0    0    0  501 -0.00000000000E+00 -0.00000000000E+00 -0.57513987960E+03  0.57513987960E+03  0.00000000000E+00 0.  1.
         25    2    1    2    0    0 -0.55247358888E+01  0.12547777116E+03 -0.34972356535E+03  0.39205429702E+03  0.12499922356E+03 0.  0.
          4    1    3    3  502    0 -0.58435390128E+02  0.10475181574E+03 -0.22461167480E+03  0.25463631924E+03  0.12700000000E+01 0.  1.
         -4    1    3    3    0  502  0.52910654239E+02  0.20725955417E+02 -0.12511189055E+03  0.13741797778E+03  0.12700000000E+01 0.  1.
          2    1    1    2  503    0  0.14964481821E+00 -0.55254764684E+02 -0.15529040004E+02  0.57395666189E+02  0.00000000000E+00 0. -1.
         -2    1    1    2    0  501  0.53750910706E+01 -0.70223006475E+02 -0.16039810160E+03  0.17517908905E+03  0.00000000000E+00 0.  1.
<mgrwt>
<rscale>  0 0.68409853E+02</rscale>
<asrwt>0</asrwt>
<pdfrwt beam="1">  1        1 0.76137193E-02 0.55254967E+02</pdfrwt>
<pdfrwt beam="2">  1       -1 0.88483054E-01 0.84696602E+02</pdfrwt>
<totfact> 0.11425204E+03</totfact>
</mgrwt>
</event>
<event>
 7    1  0.5277388E-004  0.1218281E+03  0.7546771E-02  0.1254177E+00
          1   -1    0    0  502    0 -0.00000000000E+00  0.00000000000E+00  0.12933995743E+04  0.12933995743E+04  0.00000000000E+00 0. -1.
          2   -1    0    0  503    0  0.00000000000E+00 -0.00000000000E+00 -0.42837712859E+03  0.42837712859E+03  0.00000000000E+00 0. -1.
         25    2    1    2    0    0  0.70789615718E+02  0.29036094842E+01  0.23543039928E+03  0.27581083087E+03  0.12499816351E+03 0.  0.
          4    1    3    3  501    0  0.14245487881E+02  0.32305158591E+02  0.19956817539E+03  0.20267122816E+03  0.12700000000E+01 0.  1.
         -4    1    3    3    0  501  0.56544127837E+02 -0.29401549106E+02  0.35862223889E+02  0.73139602713E+02  0.12700000000E+01 0.  1.
          2    1    1    2  502    0  0.15493620101E+00 -0.10578850531E+03  0.10254278170E+04  0.10308702342E+04  0.00000000000E+00 0. -1.
          1    1    1    2  503    0 -0.70944551919E+02  0.10288489583E+03 -0.39583577060E+03  0.41509563780E+03  0.00000000000E+00 0. -1.
<mgrwt>
<rscale>  0 0.11352546E+03</rscale>
<asrwt>0</asrwt>
<pdfrwt beam="2">  1        2 0.65904174E-01 0.12182813E+03</pdfrwt>
<pdfrwt beam="1">  1        1 0.19898455E+00 0.10578862E+03</pdfrwt>
<totfact> 0.10862720E+02</totfact>
</mgrwt>
</event>
<event>
 7    1  0.5277388E-004  0.9255435E+02  0.7546771E-02  0.1388640E+00
          2   -1    0    0  503    0  0.00000000000E+00  0.00000000000E+00  0.22278224669E+03  0.22278224669E+03  0.00000000000E+00 0. -1.
          1   -1    0    0  502    0 -0.00000000000E+00 -0.00000000000E+00 -0.91826143781E+03  0.91826143781E+03  0.00000000000E+00 0. -1.
         25    2    1    2    0    0 -0.23944851654E+02  0.58377952964E+02 -0.20451478851E+02  0.14154826898E+03  0.12504522443E+03 0.  0.
          4    1    3    3  501    0  0.31448924981E+01  0.78348054271E+01 -0.67083874937E+02  0.67624948809E+02  0.12700000000E+01 0. -1.
         -4    1    3    3    0  501 -0.27089744152E+02  0.50543147537E+02  0.46632396085E+02  0.73923320176E+02  0.12700000000E+01 0. -1.
          2    1    1    2  502    0  0.19583559431E+01 -0.94002422181E+02 -0.83186782881E+03  0.83716448512E+03  0.00000000000E+00 0. -1.
          1    1    1    2  503    0  0.21986495711E+02  0.35624469217E+02  0.15684011655E+03  0.16233093038E+03  0.00000000000E+00 0. -1.
<mgrwt>
<rscale>  0 0.62246290E+02</rscale>
<asrwt>0</asrwt>
<pdfrwt beam="1">  1        2 0.34274192E-01 0.41862976E+02</pdfrwt>
<pdfrwt beam="2">  1        1 0.14127099E+00 0.92554350E+02</pdfrwt>
<totfact> 0.39222898E+02</totfact>
</mgrwt>
</event>
<event>
 7    1  0.5277388E-004  0.2783935E+03  0.7546771E-02  0.1211465E+00
          1   -1    0    0  502    0 -0.00000000000E+00  0.00000000000E+00  0.17240499976E+04  0.17240499976E+04  0.00000000000E+00 0. -1.
          2   -1    0    0  503    0  0.00000000000E+00 -0.00000000000E+00 -0.42080801454E+03  0.42080801454E+03  0.00000000000E+00 0. -1.
         25    2    1    2    0    0 -0.62153849219E+02 -0.32754288499E+03  0.16681054103E+03  0.39318763854E+03  0.12499327993E+03 0.  0.
          4    1    3    3  501    0 -0.16714294318E+02 -0.10980716355E+03  0.12435550199E+03  0.16674197005E+03  0.12700000000E+01 0.  1.
         -4    1    3    3    0  501 -0.45439554901E+02 -0.21773572144E+03  0.42455039039E+02  0.22644566849E+03  0.12700000000E+01 0.  1.
          2    1    1    2  502    0  0.16781046043E+02  0.27187954012E+03  0.14267916956E+04  0.14525614034E+04  0.00000000000E+00 0. -1.
          1    1    1    2  503    0  0.45372803176E+02  0.55663344869E+02 -0.29036025357E+03  0.29910897025E+03  0.00000000000E+00 0. -1.
<mgrwt>
<rscale>  0 0.14139399E+03</rscale>
<asrwt>0</asrwt>
<pdfrwt beam="2">  1        2 0.64739695E-01 0.71812946E+02</pdfrwt>
<pdfrwt beam="1">  1        1 0.26523846E+00 0.27839353E+03</pdfrwt>
<totfact> 0.53192144E+01</totfact>
</mgrwt>
</event>
<event>
 7    1  0.5277388E-004  0.9818159E+02  0.7546771E-02  0.1360007E+00
         -1   -1    0    0    0  502 -0.00000000000E+00  0.00000000000E+00  0.85676090164E+02  0.85676090164E+02  0.00000000000E+00 0.  1.
         -2   -1    0    0    0  501  0.00000000000E+00 -0.00000000000E+00 -0.95854833604E+03  0.95854833604E+03  0.00000000000E+00 0.  1.
         25    2    1    2    0    0 -0.52910849771E+02 -0.21689544379E+02 -0.60800557040E+03  0.62335026990E+03  0.12499916394E+03 0.  0.
          4    1    3    3  503    0 -0.65553395180E+02 -0.64998615557E+02 -0.40855845169E+03  0.41885998734E+03  0.12700000000E+01 0.  1.
         -4    1    3    3    0  503  0.12642545410E+02  0.43309071177E+02 -0.19944711871E+03  0.20449028256E+03  0.12700000000E+01 0.  1.
         -2    1    1    2    0  502  0.10036957904E+03  0.61323268236E+01  0.42722997186E+02  0.10925617748E+03  0.00000000000E+00 0.  1.
         -1    1    1    2    0  501 -0.47458729265E+02  0.15557217556E+02 -0.30758967267E+03  0.31161797883E+03  0.00000000000E+00 0.  1.
<mgrwt>
<rscale>  0 0.70025258E+02</rscale>
<asrwt>0</asrwt>
<pdfrwt beam="2">  1       -2 0.14746898E+00 0.49943548E+02</pdfrwt>
<pdfrwt beam="1">  1       -1 0.13180937E-01 0.98181586E+02</pdfrwt>
<totfact> 0.10007855E+02</totfact>
</mgrwt>
</event>
<event>
 7    1  0.5277388E-004  0.3692603E+02  0.7546771E-02  0.1592068E+00
          2   -1    0    0  503    0  0.00000000000E+00  0.00000000000E+00  0.16001431527E+04  0.16001431527E+04  0.00000000000E+00 0. -1.
          1   -1    0    0  502    0 -0.00000000000E+00 -0.00000000000E+00 -0.13710909898E+04  0.13710909898E+04  0.00000000000E+00 0. -1.
         25    2    1    2    0    0  0.35547975110E+02 -0.36559075291E+02  0.18920363678E+03  0.23243110587E+03  0.12500391308E+03 0.  0.
          4    1    3    3  501    0  0.82614030786E+02 -0.19240158497E+02  0.11959407475E+03  0.14662747832E+03  0.12700000000E+01 0. -1.
         -4    1    3    3    0  501 -0.47066055676E+02 -0.17318916795E+02  0.69609562026E+02  0.85803627553E+02  0.12700000000E+01 0. -1.
          2    1    1    2  502    0 -0.35149400474E+02  0.11284254703E+02 -0.13491097626E+04  0.13496147473E+04  0.00000000000E+00 0. -1.
          1    1    1    2  503    0 -0.39857463584E+00  0.25274820588E+02  0.13889582887E+04  0.13891882893E+04  0.00000000000E+00 0. -1.
<mgrwt>
<rscale>  0 0.30551837E+02</rscale>
<asrwt>0</asrwt>
<pdfrwt beam="1">  1        2 0.24617587E+00 0.25277963E+02</pdfrwt>
<pdfrwt beam="2">  1        1 0.21093707E+00 0.36926028E+02</pdfrwt>
<totfact> 0.21436399E+01</totfact>
</mgrwt>
</event>
<event>
 7    1  0.5277388E-004  0.2236243E+03  0.7546771E-02  0.1260750E+00
          1   -1    0    0  502    0 -0.00000000000E+00  0.00000000000E+00  0.11395533327E+04  0.11395533327E+04  0.00000000000E+00 0. -1.
          2   -1    0    0  503    0  0.00000000000E+00 -0.00000000000E+00 -0.21039870931E+04  0.21039870931E+04  0.00000000000E+00 0. -1.
         25    2    1    2    0    0  0.65934050515E+02  0.15838468139E+03  0.47822001177E+03  0.52321335888E+03  0.12499933177E+03 0.  0.
          4    1    3    3  501    0  0.32273015802E+02  0.38716241428E+02  0.30982111070E+03  0.31389684362E+03  0.12700000000E+01 0. -1.
         -4    1    3    3    0  501  0.33661034712E+02  0.11966843996E+03  0.16839890106E+03  0.20931651526E+03  0.12700000000E+01 0. -1.
          2    1    1    2  502    0  0.32601301922E+02  0.43064450890E+02  0.63164045616E+03  0.63394562675E+03  0.00000000000E+00 0. -1.
          1    1    1    2  503    0 -0.98535352436E+02 -0.20144913228E+03 -0.20742942282E+04  0.20863814402E+04  0.00000000000E+00 0. -1.
<mgrwt>
<rscale>  0 0.10990266E+03</rscale>
<asrwt>0</asrwt>
<pdfrwt beam="2">  1        2 0.32369032E+00 0.22362433E+03</pdfrwt>
<pdfrwt beam="1">  1        1 0.17531590E+00 0.54012886E+02</pdfrwt>
<totfact> 0.13099962E+01</totfact>
</mgrwt>
</event>
<event>
 7    1  0.5277388E-004  0.9557214E+02  0.7546771E-02  0.1386186E+00
          2   -1    0    0  503    0  0.00000000000E+00  0.00000000000E+00  0.68481946761E+02  0.68481946761E+02  0.00000000000E+00 0. -1.
         -2   -1    0    0    0  501 -0.00000000000E+00 -0.00000000000E+00 -0.37215541914E+03  0.37215541914E+03  0.00000000000E+00 0.  1.
         25    2    1    2    0    0  0.60491659762E+02 -0.88284475054E+02 -0.94218171030E+02  0.18961191700E+03  0.12498890303E+03 0.  0.
          4    1    3    3  502    0 -0.24869831856E+02 -0.45992469390E+01  0.13497148514E+02  0.28695775421E+02  0.12700000000E+01 0.  1.
         -4    1    3    3    0  502  0.85361491618E+02 -0.83685228115E+02 -0.10771531954E+03  0.16091614158E+03  0.12700000000E+01 0.  1.
          1    1    1    2  503    0 -0.41160762104E+02 -0.39685957922E+01 -0.42480143635E+02  0.59283393060E+02  0.00000000000E+00 0. -1.
         -1    1    1    2    0  501 -0.19330897658E+02  0.92253070847E+02 -0.16697515772E+03  0.19174205585E+03  0.00000000000E+00 0.  1.
<mgrwt>
<rscale>  0 0.62865450E+02</rscale>
<asrwt>0</asrwt>
<pdfrwt beam="1">  1        2 0.10535684E-01 0.41351640E+02</pdfrwt>
<pdfrwt beam="2">  1       -2 0.57254680E-01 0.95572143E+02</pdfrwt>
<totfact> 0.15720926E+03</totfact>
</mgrwt>
</event>
<event>
 7    1  0.5277388E-004  0.9156235E+02  0.7546771E-02  0.1341113E+00
          1   -1    0    0  502    0 -0.00000000000E+00  0.00000000000E+00  0.94693166115E+02  0.94693166115E+02  0.00000000000E+00 0. -1.
          2   -1    0    0  503    0  0.00000000000E+00 -0.00000000000E+00 -0.98067631765E+03  0.98067631765E+03  0.00000000000E+00 0. -1.
         25    2    1    2    0    0 -0.63654417414E+02  0.53728040999E+02 -0.55063134210E+03  0.57075169339E+03  0.12499613340E+03 0.  0.
          4    1    3    3  501    0 -0.46122322866E+01  0.67409437876E+02 -0.13764135205E+03  0.15333642652E+03  0.12700000000E+01 0. -1.
         -4    1    3    3    0  501 -0.59042185127E+02 -0.13681396877E+02 -0.41298999004E+03  0.41741526688E+03  0.12700000000E+01 0. -1.
          2    1    1    2  502    0  0.92868376128E+02  0.19909850976E+01  0.55851672269E+02  0.10838776961E+03  0.00000000000E+00 0. -1.
          1    1    1    2  503    0 -0.29213958715E+02 -0.55719026097E+02 -0.39120348170E+03  0.39623002076E+03  0.00000000000E+00 0. -1.
<mgrwt>
<rscale>  0 0.75897803E+02</rscale>
<asrwt>0</asrwt>
<pdfrwt beam="2">  1        2 0.15087329E+00 0.62913156E+02</pdfrwt>
<pdfrwt beam="1">  1        1 0.14568179E-01 0.91562351E+02</pdfrwt>
<totfact> 0.14552508E+03</totfact>
</mgrwt>
</event>
<event>
 7    1  0.5277388E-004  0.3832417E+02  0.7546771E-02  0.1521800E+00
          1   -1    0    0  502    0 -0.00000000000E+00  0.00000000000E+00  0.13660192517E+04  0.13660192517E+04  0.00000000000E+00 0. -1.
          2   -1    0    0  503    0  0.00000000000E+00 -0.00000000000E+00 -0.18989060247E+04  0.18989060247E+04  0.00000000000E+00 0. -1.
         25    2    1    2    0    0 -0.17489498984E+02  0.30641566740E+02 -0.48167116539E+03  0.49887612834E+03  0.12500196667E+03 0.  0.
          4    1    3    3  501    0 -0.68912596298E+02  0.21889113560E+02 -0.34688414822E+03  0.35434207259E+03  0.12700000000E+01 0.  1.
         -4    1    3    3    0  501  0.51423097314E+02  0.87524531799E+01 -0.13478701717E+03  0.14453405575E+03  0.12700000000E+01 0.  1.
          2    1    1    2  502    0 -0.21247699764E+02 -0.31894789143E+02  0.13568795670E+04  0.13574206797E+04  0.00000000000E+00 0. -1.
          1    1    1    2  503    0  0.38737198748E+02  0.12532224033E+01 -0.14080951746E+04  0.14086284683E+04  0.00000000000E+00 0. -1.
<mgrwt>
<rscale>  0 0.38211688E+02</rscale>
<asrwt>0</asrwt>
<pdfrwt beam="2">  1        2 0.29213939E+00 0.38099532E+02</pdfrwt>
<pdfrwt beam="1">  1        1 0.21015681E+00 0.38324174E+02</pdfrwt>
<totfact> 0.14854721E+01</totfact>
</mgrwt>
</event>
<event>
 7    1  0.5277388E-004  0.1095883E+03  0.7546771E-02  0.1312118E+00
          1   -1    0    0  502    0 -0.00000000000E+00  0.00000000000E+00  0.39282225369E+03  0.39282225369E+03  0.00000000000E+00 0. -1.
          2   -1    0    0  503    0  0.00000000000E+00 -0.00000000000E+00 -0.12252871847E+04  0.12252871847E+04  0.00000000000E+00 0. -1.
         25    2    1    2    0    0 -0.49992338714E+02  0.43214049613E+02  0.75359534376E+02  0.16024099255E+03  0.12502571039E+03 0.  0.
          4    1    3    3  501    0 -0.34662571747E+02  0.29610017469E+02 -0.28891446703E+02  0.53986809567E+02  0.12700000000E+01 0. -1.
         -4    1    3    3    0  501 -0.15329766968E+02  0.13604032144E+02  0.10425098108E+03  0.10625418299E+03  0.12700000000E+01 0. -1.
          2    1    1    2  502    0  0.22443687895E+02  0.64114695171E+02  0.26818288531E+03  0.27665226049E+03  0.00000000000E+00 0. -1.
          1    1    1    2  503    0  0.27548650819E+02 -0.10732874478E+03 -0.11760073507E+04  0.11812161853E+04  0.00000000000E+00 0. -1.
<mgrwt>
<rscale>  0 0.86280223E+02</rscale>
<asrwt>0</asrwt>
<pdfrwt beam="2">  1        2 0.18850572E+00 0.10958832E+03</pdfrwt>
<pdfrwt beam="1">  1        1 0.60434194E-01 0.67929473E+02</pdfrwt>
<totfact> 0.17686654E+02</totfact>
</mgrwt>
</event>
<event>
 7    1  0.5277388E-004  0.5650549E+02  0.7546771E-02  0.1485900E+00
          1   -1    0    0  502    0 -0.00000000000E+00  0.00000000000E+00  0.41796618831E+03  0.41796618831E+03  0.00000000000E+00 0. -1.
          2   -1    0    0  503    0  0.00000000000E+00 -0.00000000000E+00 -0.43397247623E+03  0.43397247623E+03  0.00000000000E+00 0. -1.
         25    2    1    2    0    0 -0.11576525647E+02 -0.22926809199E+02  0.15766756535E+02  0.12858571514E+03  0.12500416393E+03 0.  0.
          4    1    3    3  501    0  0.55081880257E+02  0.65982030369E-01  0.18185860297E+02  0.58020309383E+02  0.12700000000E+01 0. -1.
         -4    1    3    3    0  501 -0.66658405903E+02 -0.22992791229E+02 -0.24191037614E+01  0.70565405753E+02  0.12700000000E+01 0. -1.
          2    1    1    2  502    0  0.15592784888E+02  0.55709792592E+02  0.34263827051E+03  0.34748769813E+03  0.00000000000E+00 0. -1.
          1    1    1    2  503    0 -0.40162592414E+01 -0.32782983393E+02 -0.37441131497E+03  0.37586525127E+03  0.00000000000E+00 0. -1.
<mgrwt>
<rscale>  0 0.43200326E+02</rscale>
<asrwt>0</asrwt>
<pdfrwt beam="2">  1        2 0.66764997E-01 0.33028084E+02</pdfrwt>
<pdfrwt beam="1">  1        1 0.64302490E-01 0.56505493E+02</pdfrwt>
<totfact> 0.59140231E+02</totfact>
</mgrwt>
</event>
<event>
 7    1  0.5277388E-004  0.7072755E+02  0.7546771E-02  0.1357829E+00
         -2   -1    0    0    0  501 -0.00000000000E+00  0.00000000000E+00  0.12492863235E+03  0.12492863235E+03  0.00000000000E+00 0.  1.
          2   -1    0    0  503    0  0.00000000000E+00 -0.00000000000E+00 -0.10629636213E+04  0.10629636213E+04  0.00000000000E+00 0. -1.
         25    2    1    2    0    0  0.27862097865E+02  0.23849209128E+01 -0.12159238317E+03  0.17660760590E+03  0.12499421776E+03 0.  0.
          4    1    3    3  502    0  0.62708484594E+02 -0.17250648612E+02 -0.21013895735E+02  0.68360336684E+02  0.12700000000E+01 0.  1.
         -4    1    3    3    0  502 -0.34846386729E+02  0.19635569525E+02 -0.10057848743E+03  0.10824726922E+03  0.12700000000E+01 0.  1.
          1    1    1    2  503    0 -0.28466661980E+02  0.68340044981E+02 -0.89930196476E+03  0.90234402332E+03  0.00000000000E+00 0. -1.
         -1    1    1    2    0  501  0.60456411475E+00 -0.70724965893E+02  0.82859358934E+02  0.10894062448E+03  0.00000000000E+00 0.  1.
<mgrwt>
<rscale>  0 0.70670026E+02</rscale>
<asrwt>0</asrwt>
<pdfrwt beam="2">  1        2 0.16353287E+00 0.70612549E+02</pdfrwt>
<pdfrwt beam="1">  1       -2 0.19219789E-01 0.70727550E+02</pdfrwt>
<totfact> 0.55700052E+02</totfact>
</mgrwt>
</event>
<event>
 7    1  0.5277388E-004  0.5978223E+02  0.7546771E-02  0.1403164E+00
          1   -1    0    0  502    0 -0.00000000000E+00  0.00000000000E+00  0.25898921851E+04  0.25898921851E+04  0.00000000000E+00 0. -1.
          2   -1    0    0  503    0  0.00000000000E+00 -0.00000000000E+00 -0.25883137243E+03  0.25883137243E+03  0.00000000000E+00 0. -1.
         25    2    1    2    0    0  0.25238889432E+01 -0.99739942279E+00  0.30754602586E+03  0.33198884285E+03  0.12499867573E+03 0.  0.
          4    1    3    3  501    0  0.13265191611E+02 -0.52616806772E+02  0.24121269849E+03  0.24724415560E+03  0.12700000000E+01 0.  1.
         -4    1    3    3    0  501 -0.10741302668E+02  0.51619407349E+02  0.66333327368E+02  0.84744687254E+02  0.12700000000E+01 0.  1.
          2    1    1    2  502    0  0.53325937513E+02 -0.22117548889E+02  0.22660478606E+04  0.22667831278E+04  0.00000000000E+00 0. -1.
          1    1    1    2  503    0 -0.55849826456E+02  0.23114948311E+02 -0.24253307378E+03  0.24995158697E+03  0.00000000000E+00 0. -1.
<mgrwt>
<rscale>  0 0.58747546E+02</rscale>
<asrwt>0</asrwt>
<pdfrwt beam="2">  1        2 0.39820213E-01 0.59782232E+02</pdfrwt>
<pdfrwt beam="1">  1        1 0.39844493E+00 0.57730768E+02</pdfrwt>
<totfact> 0.30017464E+01</totfact>
</mgrwt>
</event>
<event>
 7    1  0.5277388E-004  0.2883180E+02  0.7546771E-02  0.1626828E+00
          2   -1    0    0  503    0  0.00000000000E+00  0.00000000000E+00  0.19148724821E+03  0.19148724821E+03  0.00000000000E+00 0. -1.
         -2   -1    0    0    0  501 -0.00000000000E+00 -0.00000000000E+00 -0.84532027771E+03  0.84532027771E+03  0.00000000000E+00 0.  1.
         25    2    1    2    0    0  0.34899527373E+01  0.32333005988E+02 -0.10138405248E+03  0.16419811525E+03  0.12499876762E+03 0.  0.
          4    1    3    3  502    0  0.17313989251E+02  0.29468983421E+02 -0.12883817791E+03  0.13330072841E+03  0.12700000000E+01 0.  1.
         -4    1    3    3    0  502 -0.13824036513E+02  0.28640225675E+01  0.27454125424E+02  0.30897386841E+02  0.12700000000E+01 0.  1.
          1    1    1    2  503    0  0.20615630878E+02 -0.16379979954E+02  0.15870185599E+03  0.16087133702E+03  0.00000000000E+00 0. -1.
         -1    1    1    2    0  501 -0.24105583616E+02 -0.15953026034E+02 -0.71115083301E+03  0.71173807365E+03  0.00000000000E+00 0.  1.
<mgrwt>
<rscale>  0 0.27552906E+02</rscale>
<asrwt>0</asrwt>
<pdfrwt beam="1">  1        2 0.29459577E-01 0.26330742E+02</pdfrwt>
<pdfrwt beam="2">  1       -2 0.13004927E+00 0.28831797E+02</pdfrwt>
<totfact> 0.84273931E+01</totfact>
</mgrwt>
</event>
<event>
 7    1  0.5277388E-004  0.3824439E+02  0.7546771E-02  0.1599671E+00
          2   -1    0    0  503    0  0.00000000000E+00  0.00000000000E+00  0.87049404835E+03  0.87049404835E+03  0.00000000000E+00 0. -1.
         -2   -1    0    0    0  501 -0.00000000000E+00 -0.00000000000E+00 -0.21374386110E+03  0.21374386110E+03  0.00000000000E+00 0.  1.
         25    2    1    2    0    0 -0.41321691624E+02 -0.21150947564E+02  0.21364035160E+03  0.25183787465E+03  0.12500108199E+03 0.  0.
          4    1    3    3  502    0 -0.15393725727E+02  0.50005342597E+02  0.12328923577E+03  0.13393785737E+03  0.12700000000E+01 0.  1.
         -4    1    3    3    0  502 -0.25927965897E+02 -0.71156290161E+02  0.90351115828E+02  0.11790001729E+03  0.12700000000E+01 0.  1.
          1    1    1    2  503    0  0.20573778069E+02 -0.10956999868E+02  0.63566225475E+03  0.63608948923E+03  0.00000000000E+00 0. -1.
         -1    1    1    2    0  501  0.20747913555E+02  0.32107947432E+02 -0.19255241909E+03  0.19631054557E+03  0.00000000000E+00 0.  1.
<mgrwt>
<rscale>  0 0.29857334E+02</rscale>
<asrwt>0</asrwt>
<pdfrwt beam="1">  1        2 0.13392216E+00 0.23309573E+02</pdfrwt>
<pdfrwt beam="2">  1       -2 0.32883671E-01 0.38244389E+02</pdfrwt>
<totfact> 0.29611765E+02</totfact>
</mgrwt>
</event>
<event>
 7    1  0.5277388E-004  0.1091113E+03  0.7546771E-02  0.1390057E+00
          2   -1    0    0  503    0  0.00000000000E+00  0.00000000000E+00  0.11453345415E+04  0.11453345415E+04  0.00000000000E+00 0. -1.
         -2   -1    0    0    0  501 -0.00000000000E+00 -0.00000000000E+00 -0.11910617554E+03  0.11910617554E+03  0.00000000000E+00 0.  1.
         25    2    1    2    0    0 -0.73293060667E+02  0.29470775949E+02  0.11386058918E+03  0.18662931772E+03  0.12500347631E+03 0.  0.
          4    1    3    3  502    0 -0.53428441286E+02  0.18432862881E+02  0.14058498617E+03  0.15152597140E+03  0.12700000000E+01 0. -1.
         -4    1    3    3    0  502 -0.19864619381E+02  0.11037913068E+02 -0.26724396997E+02  0.35103346321E+02  0.12700000000E+01 0. -1.
          1    1    1    2  503    0  0.10834494817E+03 -0.27486640938E+02  0.98806580283E+03  0.99436822855E+03  0.00000000000E+00 0. -1.
         -1    1    1    2    0  501 -0.35051887508E+02 -0.19841350119E+01 -0.75698026016E+02  0.83443170795E+02  0.00000000000E+00 0.  1.
<mgrwt>
<rscale>  0 0.61892477E+02</rscale>
<asrwt>0</asrwt>
<pdfrwt beam="1">  1        2 0.17620531E+00 0.10911128E+03</pdfrwt>
<pdfrwt beam="2">  1       -2 0.18324028E-01 0.35107999E+02</pdfrwt>
<totfact> 0.50886063E+02</totfact>
</mgrwt>
</event>
<event>
 7    1  0.5277388E-004  0.8835923E+02  0.7546771E-02  0.1329502E+00
          2   -1    0    0  503    0  0.00000000000E+00  0.00000000000E+00  0.18801081480E+04  0.18801081480E+04  0.00000000000E+00 0. -1.
          1   -1    0    0  502    0 -0.00000000000E+00 -0.00000000000E+00 -0.17105838071E+03  0.17105838071E+03  0.00000000000E+00 0. -1.
         25    2    1    2    0    0  0.13385533918E+03  0.50859915589E+02  0.84552927892E+03  0.86662965279E+03  0.12499284279E+03 0.  0.
          4    1    3    3  501    0  0.14015391950E+03  0.17405512436E+02  0.50430424945E+03  0.52370837488E+03  0.12700000000E+01 0.  1.
         -4    1    3    3    0  501 -0.62985803113E+01  0.33454403154E+02  0.34122502947E+03  0.34292127791E+03  0.12700000000E+01 0.  1.
          2    1    1    2  502    0 -0.87635360060E+02  0.45346030072E+01 -0.14713150714E+03  0.17131316164E+03  0.00000000000E+00 0. -1.
          1    1    1    2  503    0 -0.46219979125E+02 -0.55394518597E+02  0.10106519955E+04  0.10132237143E+04  0.00000000000E+00 0. -1.
<mgrwt>
<rscale>  0 0.79841333E+02</rscale>
<asrwt>0</asrwt>
<pdfrwt beam="1">  1        2 0.28924739E+00 0.72144571E+02</pdfrwt>
<pdfrwt beam="2">  1        1 0.26316675E-01 0.88359227E+02</pdfrwt>
<totfact> 0.23392134E+02</totfact>
</mgrwt>
</event>
<event>
 7    1  0.5277388E-004  0.6975754E+02  0.7546771E-02  0.1417035E+00
          2   -1    0    0  503    0  0.00000000000E+00  0.00000000000E+00  0.46954638695E+03  0.46954638695E+03  0.00000000000E+00 0. -1.
         -2   -1    0    0    0  501 -0.00000000000E+00 -0.00000000000E+00 -0.10719124283E+04  0.10719124283E+04  0.00000000000E+00 0.  1.
         25    2    1    2    0    0  0.47097323601E+02  0.48394811054E+01 -0.11306162108E+03  0.17507496239E+03  0.12500693512E+03 0.  0.
          4    1    3    3  502    0  0.55382891010E+02  0.39291674479E+02 -0.13309848929E+02  0.69208852602E+02  0.12700000000E+01 0. -1.
         -4    1    3    3    0  502 -0.82855674091E+01 -0.34452193374E+02 -0.99751772146E+02  0.10586610979E+03  0.12700000000E+01 0. -1.
          1    1    1    2  503    0  0.13394762183E+02 -0.42331957772E+02  0.43604597500E+03  0.43830070342E+03  0.00000000000E+00 0. -1.
         -1    1    1    2    0  501 -0.60492085783E+02  0.37492476667E+02 -0.92535039528E+03  0.92808314945E+03  0.00000000000E+00 0.  1.
<mgrwt>
<rscale>  0 0.55653189E+02</rscale>
<asrwt>0</asrwt>
<pdfrwt beam="1">  1        2 0.72237906E-01 0.44400612E+02</pdfrwt>
<pdfrwt beam="2">  1       -2 0.16490960E+00 0.69757540E+02</pdfrwt>
<totfact> 0.18347651E+01</totfact>
</mgrwt>
</event>
<event>
 7    1  0.5277388E-004  0.8657440E+02  0.7546771E-02  0.1429527E+00
          2   -1    0    0  503    0  0.00000000000E+00  0.00000000000E+00  0.17002630523E+03  0.17002630523E+03  0.00000000000E+00 0. -1.
          1   -1    0    0  502    0 -0.00000000000E+00 -0.00000000000E+00 -0.47062150151E+03  0.47062150151E+03  0.00000000000E+00 0. -1.
         25    2    1    2    0    0  0.52405403361E+02 -0.25038832957E+02 -0.72368791429E+02  0.15565078352E+03  0.12496661546E+03 0.  0.
          4    1    3    3  501    0  0.52204418776E+02  0.19913955890E+02 -0.91146578837E+02  0.10691669052E+03  0.12700000000E+01 0.  1.
         -4    1    3    3    0  501  0.20098458505E+00 -0.44952788847E+02  0.18777787408E+02  0.48734092993E+02  0.12700000000E+01 0.  1.
          2    1    1    2  502    0  0.29234631179E+02 -0.14229300385E+02 -0.33975708127E+03  0.34130925994E+03  0.00000000000E+00 0. -1.
          1    1    1    2  503    0 -0.81640034540E+02  0.39268133342E+02  0.11153067641E+03  0.14368776328E+03  0.00000000000E+00 0. -1.
<mgrwt>
<rscale>  0 0.53055147E+02</rscale>
<asrwt>0</asrwt>
<pdfrwt beam="1">  1        2 0.26157893E-01 0.86574398E+02</pdfrwt>
<pdfrwt beam="2">  1        1 0.72403307E-01 0.32513638E+02</pdfrwt>
<totfact> 0.13778756E+03</totfact>
</mgrwt>
</event>
<event>
 7    1  0.5277388E-004  0.5299132E+02  0.7546771E-02  0.1455050E+00
          1   -1    0    0  502    0 -0.00000000000E+00  0.00000000000E+00  0.48022718164E+03  0.48022718164E+03  0.00000000000E+00 0. -1.
          2   -1    0    0  503    0  0.00000000000E+00 -0.00000000000E+00 -0.10258668217E+04  0.10258668217E+04  0.00000000000E+00 0. -1.
         25    2    1    2    0    0  0.96549309904E+01 -0.25423350966E+02 -0.18014202979E+02  0.12918801394E+03  0.12500186787E+03 0.  0.
          4    1    3    3  501    0  0.24682557808E+01  0.51038658466E+02 -0.75766399492E+01  0.51672578003E+02  0.12700000000E+01 0. -1.
         -4    1    3    3    0  501  0.71866752097E+01 -0.76462009432E+02 -0.10437563030E+02  0.77515435940E+02  0.12700000000E+01 0. -1.
          2    1    1    2  502    0  0.42186854058E+02  0.12222675706E+02  0.42275030068E+03  0.42502581237E+03  0.00000000000E+00 0. -1.
          1    1    1    2  503    0 -0.51841785049E+02  0.13200675260E+02 -0.95037573772E+03  0.95188017699E+03  0.00000000000E+00 0. -1.
<mgrwt>
<rscale>  0 0.48243901E+02</rscale>
<asrwt>0</asrwt>
<pdfrwt beam="2">  1        2 0.15782566E+00 0.52991317E+02</pdfrwt>
<pdfrwt beam="1">  1        1 0.73881105E-01 0.43921799E+02</pdfrwt>
<totfact> 0.18711049E+02</totfact>
</mgrwt>
</event>
<event>
 7    1  0.5277388E-004  0.3493839E+02  0.7546771E-02  0.1554138E+00
          2   -1    0    0  503    0  0.00000000000E+00  0.00000000000E+00  0.23929510709E+03  0.23929510709E+03  0.00000000000E+00 0. -1.
          1   -1    0    0  502    0 -0.00000000000E+00 -0.00000000000E+00 -0.20901677392E+04  0.20901677392E+04  0.00000000000E+00 0. -1.
         25    2    1    2    0    0 -0.48961166481E+02  0.11778404418E+02 -0.69809749704E+03  0.71098621716E+03  0.12500143593E+03 0.  0.
          4    1    3    3  501    0 -0.77783187490E+02  0.38189504755E+02 -0.34454351369E+03  0.35527525702E+03  0.12700000000E+01 0.  1.
         -4    1    3    3    0  501  0.28822021009E+02 -0.26411100337E+02 -0.35355398336E+03  0.35571096014E+03  0.12700000000E+01 0.  1.
          2    1    1    2  502    0  0.18277397785E+02 -0.28478011736E+02 -0.13841076758E+04  0.13845212597E+04  0.00000000000E+00 0. -1.
          1    1    1    2  503    0  0.30683768696E+02  0.16699607318E+02  0.23133254065E+03  0.23395536948E+03  0.00000000000E+00 0. -1.
<mgrwt>
<rscale>  0 0.34384171E+02</rscale>
<asrwt>0</asrwt>
<pdfrwt beam="1">  1        2 0.36814632E-01 0.34938392E+02</pdfrwt>
<pdfrwt beam="2">  1        1 0.32156426E+00 0.33838741E+02</pdfrwt>
<totfact> 0.71412111E+01</totfact>
</mgrwt>
</event>
<event>
 7    1  0.5277388E-004  0.1772239E+03  0.7546771E-02  0.1204648E+00
          1   -1    0    0  502    0 -0.00000000000E+00  0.00000000000E+00  0.84535028375E+03  0.84535028375E+03  0.00000000000E+00 0. -1.
          2   -1    0    0  503    0  0.00000000000E+00 -0.00000000000E+00 -0.40076678093E+03  0.40076678093E+03  0.00000000000E+00 0. -1.
         25    2    1    2    0    0 -0.20521879696E+03 -0.17433787200E+03  0.35861949545E+03  0.46555513286E+03  0.12500076388E+03 0.  0.
          4    1    3    3  501    0 -0.41851953303E+02 -0.20127781159E+02  0.51624369591E+01  0.46743739955E+02  0.12700000000E+01 0.  1.
         -4    1    3    3    0  501 -0.16336684366E+03 -0.15421009084E+03  0.35345705850E+03  0.41881139290E+03  0.12700000000E+01 0.  1.
          2    1    1    2  502    0  0.96941685906E+02  0.11953928697E+03  0.40819026388E+03  0.43624147341E+03  0.00000000000E+00 0. -1.
          1    1    1    2  503    0  0.10827711105E+03  0.54798585033E+02 -0.32222625652E+03  0.34432045842E+03  0.00000000000E+00 0. -1.
<mgrwt>
<rscale>  0 0.14665214E+03</rscale>
<asrwt>0</asrwt>
<pdfrwt beam="2">  1        2 0.61656428E-01 0.12135410E+03</pdfrwt>
<pdfrwt beam="1">  1        1 0.13005389E+00 0.17722394E+03</pdfrwt>
<totfact> 0.23658694E+02</totfact>
</mgrwt>
</event>
<event>
 7    1  0.5277388E-004  0.1160145E+03  0.7546771E-02  0.1399338E+00
         -1   -1    0    0    0  501 -0.00000000000E+00  0.00000000000E+00  0.14296513430E+02  0.14296513430E+02  0.00000000000E+00 0.  1.
          1   -1    0    0  503    0  0.00000000000E+00 -0.00000000000E+00 -0.18446530367E+04  0.18446530367E+04  0.00000000000E+00 0. -1.
         25    2    1    2    0    0  0.16137921103E+01 -0.11611438963E+03 -0.11522088838E+04  0.11647723809E+04  0.12499692607E+03 0.  0.
          4    1    3    3  502    0 -0.28889990163E+02 -0.19201372299E+01 -0.65146046519E+02  0.71301744268E+02  0.12700000000E+01 0.  1.
         -4    1    3    3    0  502  0.30503782273E+02 -0.11419425240E+03 -0.10870628373E+04  0.10934706366E+04  0.12700000000E+01 0.  1.
          2    1    1    2  503    0 -0.30562676686E+02  0.24650343529E+01 -0.12150771503E+03  0.12531671243E+03  0.00000000000E+00 0. -1.
         -2    1    1    2    0  501  0.28948884576E+02  0.11364935528E+03 -0.55663992447E+03  0.56886045687E+03  0.00000000000E+00 0.  1.
<mgrwt>
<rscale>  0 0.59642500E+02</rscale>
<asrwt>0</asrwt>
<pdfrwt beam="2">  1        1 0.28379278E+00 0.30661924E+02</pdfrwt>
<pdfrwt beam="1">  1       -1 0.21994636E-02 0.11601450E+03</pdfrwt>
<totfact> 0.29786678E+03</totfact>
</mgrwt>
</event>
<event>
 7    1  0.5277388E-004  0.4080003E+02  0.7546771E-02  0.1508009E+00
          2   -1    0    0  503    0  0.00000000000E+00  0.00000000000E+00  0.34237244886E+04  0.34237244886E+04  0.00000000000E+00 0. -1.
          1   -1    0    0  502    0 -0.00000000000E+00 -0.00000000000E+00 -0.11265118067E+04  0.11265118067E+04  0.00000000000E+00 0. -1.
         25    2    1    2    0    0 -0.92159013568E+01  0.78766144163E+02  0.66161978477E+03  0.67797718565E+03  0.12499314523E+03 0.  0.
          4    1    3    3  501    0 -0.52803264677E+02  0.43255272420E+01  0.37279209532E+03  0.37654010966E+03  0.12700000000E+01 0.  1.
         -4    1    3    3    0  501  0.43587363320E+02  0.74440616921E+02  0.28882768945E+03  0.30143707599E+03  0.12700000000E+01 0.  1.
          2    1    1    2  502    0  0.27931252030E+01 -0.39170059629E+02 -0.11178422388E+04  0.11185317903E+04  0.00000000000E+00 0. -1.
          1    1    1    2  503    0  0.64227761538E+01 -0.39596084534E+02  0.27534351359E+04  0.27537273194E+04  0.00000000000E+00 0. -1.
<mgrwt>
<rscale>  0 0.40027462E+02</rscale>
<asrwt>0</asrwt>
<pdfrwt beam="1">  1        2 0.52672684E+00 0.40800035E+02</pdfrwt>
<pdfrwt beam="2">  1        1 0.17330951E+00 0.39269519E+02</pdfrwt>
<totfact> 0.33097039E+00</totfact>
</mgrwt>
</event>
<event>
 7    1  0.5277388E-004  0.5818758E+02  0.7546771E-02  0.1537302E+00
          1   -1    0    0  502    0 -0.00000000000E+00  0.00000000000E+00  0.88472678233E+03  0.88472678233E+03  0.00000000000E+00 0. -1.
          2   -1    0    0  503    0  0.00000000000E+00 -0.00000000000E+00 -0.14292291932E+04  0.14292291932E+04  0.00000000000E+00 0. -1.
         25    2    1    2    0    0 -0.38948164127E+02  0.51209795777E+02 -0.55776017004E+02  0.15124239451E+03  0.12499558053E+03 0.  0.
          4    1    3    3  501    0 -0.35201346721E+02  0.24010265957E+02  0.35776834687E+02  0.55652695196E+02  0.12700000000E+01 0.  1.
         -4    1    3    3    0  501 -0.37468174065E+01  0.27199529819E+02 -0.91552851691E+02  0.95589699319E+02  0.12700000000E+01 0.  1.
          2    1    1    2  502    0 -0.10253719360E+02 -0.20199067677E+02  0.83620227456E+03  0.83650904662E+03  0.00000000000E+00 0. -1.
          1    1    1    2  503    0  0.49201883487E+02 -0.31010728100E+02 -0.13249286685E+04  0.13262045344E+04  0.00000000000E+00 0. -1.
<mgrwt>
<rscale>  0 0.36305662E+02</rscale>
<asrwt>0</asrwt>
<pdfrwt beam="2">  1        2 0.21988141E+00 0.58187583E+02</pdfrwt>
<pdfrwt beam="1">  1        1 0.13611181E+00 0.22652618E+02</pdfrwt>
<totfact> 0.52201683E+01</totfact>
</mgrwt>
</event>
<event>
 7    1  0.5277388E-004  0.1082984E+03  0.7546771E-02  0.1374196E+00
          1   -1    0    0  503    0  0.00000000000E+00  0.00000000000E+00  0.14662113594E+04  0.14662113594E+04  0.00000000000E+00 0. -1.
         -1   -1    0    0    0  501 -0.00000000000E+00 -0.00000000000E+00 -0.86795286140E+02  0.86795286140E+02  0.00000000000E+00 0.  1.
         25    2    1    2    0    0 -0.13815125205E+03  0.25994895266E+02  0.27530346652E+03  0.33343587430E+03  0.12500392222E+03 0.  0.
          4    1    3    3  502    0 -0.12080596924E+03 -0.26054982018E+02  0.23441382433E+03  0.26499886458E+03  0.12700000000E+01 0.  1.
         -4    1    3    3    0  502 -0.17345282804E+02  0.52049877284E+02  0.40889642191E+02  0.68437009719E+02  0.12700000000E+01 0.  1.
          2    1    1    2  503    0  0.34817088149E+02 -0.20174310805E+02  0.11147967904E+04  0.11155227996E+04  0.00000000000E+00 0. -1.
         -2    1    1    2    0  501  0.10333416390E+03 -0.58205844612E+01 -0.10684183655E+02  0.10404797169E+03  0.00000000000E+00 0.  1.
<mgrwt>
<rscale>  0 0.66014343E+02</rscale>
<asrwt>0</asrwt>
<pdfrwt beam="1">  1        1 0.22557096E+00 0.40239687E+02</pdfrwt>
<pdfrwt beam="2">  1       -1 0.13353122E-01 0.10829839E+03</pdfrwt>
<totfact> 0.33594424E+02</totfact>
</mgrwt>
</event>
<event>
 7    1  0.5277388E-004  0.7922319E+02  0.7546771E-02  0.1335020E+00
         -1   -1    0    0    0  501 -0.00000000000E+00  0.00000000000E+00  0.11795554652E+04  0.11795554652E+04  0.00000000000E+00 0.  1.
          1   -1    0    0  503    0  0.00000000000E+00 -0.00000000000E+00 -0.11188950137E+03  0.11188950137E+03  0.00000000000E+00 0. -1.
         25    2    1    2    0    0  0.33241273215E+01 -0.62040102569E+01  0.78983238540E+02  0.14801663476E+03  0.12498412952E+03 0.  0.
          4    1    3    3  502    0  0.31856246564E+02 -0.20749810502E+02 -0.20700429773E+02  0.43306994514E+02  0.12700000000E+01 0. -1.
         -4    1    3    3    0  502 -0.28532119243E+02  0.14545800245E+02  0.99683668313E+02  0.10470964025E+03  0.12700000000E+01 0. -1.
          2    1    1    2  503    0 -0.58804165227E+01 -0.76438867183E+02 -0.56339680795E+02  0.95140103777E+02  0.00000000000E+00 0. -1.
         -2    1    1    2    0  501  0.25562892012E+01  0.82642877439E+02  0.10450224060E+04  0.10482882280E+04  0.00000000000E+00 0.  1.
<mgrwt>
<rscale>  0 0.77933457E+02</rscale>
<asrwt>0</asrwt>
<pdfrwt beam="2">  1        1 0.17213770E-01 0.76664723E+02</pdfrwt>
<pdfrwt beam="1">  1       -1 0.18147006E+00 0.79223187E+02</pdfrwt>
<totfact> 0.73315186E+01</totfact>
</mgrwt>
</event>
<event>
 7    1  0.5277388E-004  0.5794708E+02  0.7546771E-02  0.1498436E+00
          1   -1    0    0  503    0  0.00000000000E+00  0.00000000000E+00  0.13633842661E+04  0.13633842661E+04  0.00000000000E+00 0. -1.
         -1   -1    0    0    0  501 -0.00000000000E+00 -0.00000000000E+00 -0.38522804693E+02  0.38522804693E+02  0.00000000000E+00 0.  1.
         25    2    1    2    0    0  0.33334311313E+02  0.39738258341E+02  0.21705004026E+03  0.25578503681E+03  0.12499983837E+03 0.  0.
          4    1    3    3  502    0  0.60589222882E+02  0.62513685207E+02  0.95892639704E+02  0.12952229930E+03  0.12700000000E+01 0.  1.
         -4    1    3    3    0  502 -0.27254911569E+02 -0.22775426867E+02  0.12115740055E+03  0.12626273750E+03  0.12700000000E+01 0.  1.
          2    1    1    2  503    0 -0.55031914288E+02 -0.19721123054E+02  0.11143529328E+04  0.11158852509E+04  0.00000000000E+00 0. -1.
         -2    1    1    2    0  501  0.21697602975E+02 -0.20017135286E+02 -0.65415116233E+01  0.30236783134E+02  0.00000000000E+00 0.  1.
<mgrwt>
<rscale>  0 0.41359862E+02</rscale>
<asrwt>0</asrwt>
<pdfrwt beam="1">  1        1 0.20975139E+00 0.57947076E+02</pdfrwt>
<pdfrwt beam="2">  1       -1 0.59265864E-02 0.29520699E+02</pdfrwt>
<totfact> 0.11215507E+03</totfact>
</mgrwt>
</event>
<event>
 7    1  0.5277388E-004  0.8003774E+02  0.7546771E-02  0.1436975E+00
          1   -1    0    0  502    0 -0.00000000000E+00  0.00000000000E+00  0.13566869541E+03  0.13566869541E+03  0.00000000000E+00 0. -1.
          2   -1    0    0  503    0  0.00000000000E+00 -0.00000000000E+00 -0.31574997633E+04  0.31574997633E+04  0.00000000000E+00 0. -1.
         25    2    1    2    0    0 -0.54029088241E+02 -0.47848752371E+01 -0.90194094268E+03  0.91217636071E+03  0.12500484607E+03 0.  0.
          4    1    3    3  501    0 -0.79668801720E+02 -0.31606333420E+02 -0.78034213753E+03  0.78503601368E+03  0.12700000000E+01 0. -1.
         -4    1    3    3    0  501  0.25639713479E+02  0.26821458183E+02 -0.12159880516E+03  0.12714034703E+03  0.12700000000E+01 0. -1.
          2    1    1    2  502    0  0.78432387524E+02 -0.17794775217E+02  0.11802925877E+03  0.14282576576E+03  0.00000000000E+00 0. -1.
          1    1    1    2  503    0 -0.24403299283E+02  0.22579650454E+02 -0.22379193840E+04  0.22381663323E+04  0.00000000000E+00 0. -1.
<mgrwt>
<rscale>  0 0.51585009E+02</rscale>
<asrwt>0</asrwt>
<pdfrwt beam="2">  1        2 0.48576921E+00 0.33246979E+02</pdfrwt>
<pdfrwt beam="1">  1        1 0.20872106E-01 0.80037742E+02</pdfrwt>
<totfact> 0.76390982E+01</totfact>
</mgrwt>
</event>
<event>
 7    1  0.5277388E-004  0.8140896E+02  0.7546771E-02  0.1446394E+00
          1   -1    0    0  502    0 -0.00000000000E+00  0.00000000000E+00  0.26954205537E+04  0.26954205537E+04  0.00000000000E+00 0. -1.
          2   -1    0    0  503    0  0.00000000000E+00 -0.00000000000E+00 -0.11497531389E+03  0.11497531389E+03  0.00000000000E+00 0. -1.
         25    2    1    2    0    0  0.92420784010E+01  0.85749257889E+02  0.69142424155E+03  0.70790631374E+03  0.12500206395E+03 0.  0.
          4    1    3    3  501    0  0.15627630901E+02 -0.31104169269E+02  0.15951582241E+03  0.16327462354E+03  0.12700000000E+01 0. -1.
         -4    1    3    3    0  501 -0.63855525005E+01  0.11685342716E+03  0.53190841914E+03  0.54463169020E+03  0.12700000000E+01 0. -1.
          2    1    1    2  502    0 -0.29671773109E+02 -0.69316901539E+01  0.19800927474E+04  0.19803271828E+04  0.00000000000E+00 0. -1.
          1    1    1    2  503    0  0.20429694708E+02 -0.78817567735E+02 -0.91071749159E+02  0.12216237107E+03  0.00000000000E+00 0. -1.
<mgrwt>
<rscale>  0 0.49805486E+02</rscale>
<asrwt>0</asrwt>
<pdfrwt beam="2">  1        2 0.17688512E-01 0.81408958E+02</pdfrwt>
<pdfrwt beam="1">  1        1 0.41468004E+00 0.30470682E+02</pdfrwt>
<totfact> 0.69541087E+01</totfact>
</mgrwt>
</event>
<event>
 7    1  0.5277388E-004  0.7173127E+02  0.7546771E-02  0.1457479E+00
          2   -1    0    0  503    0  0.00000000000E+00  0.00000000000E+00  0.21113169956E+04  0.21113169956E+04  0.00000000000E+00 0. -1.
          1   -1    0    0  502    0 -0.00000000000E+00 -0.00000000000E+00 -0.53682601271E+02  0.53682601271E+02  0.00000000000E+00 0. -1.
         25    2    1    2    0    0 -0.42459131421E+02 -0.87378152808E+02  0.49604173839E+03  0.52069209063E+03  0.12500051036E+03 0.  0.
          4    1    3    3  501    0 -0.17435703463E+01  0.30959358478E+02  0.68360662176E+02  0.75075395091E+02  0.12700000000E+01 0.  1.
         -4    1    3    3    0  501 -0.40715561074E+02 -0.11833751129E+03  0.42768107622E+03  0.44561669554E+03  0.12700000000E+01 0.  1.
          2    1    1    2  502    0  0.43209934103E+02  0.55510318649E+02 -0.11165681848E+02  0.71226163261E+02  0.00000000000E+00 0. -1.
          1    1    1    2  503    0 -0.75080268200E+00  0.31867834159E+02  0.15727583377E+04  0.15730813429E+04  0.00000000000E+00 0. -1.
<mgrwt>
<rscale>  0 0.47817931E+02</rscale>
<asrwt>0</asrwt>
<pdfrwt beam="1">  1        2 0.32481794E+00 0.31876677E+02</pdfrwt>
<pdfrwt beam="2">  1        1 0.82588633E-02 0.71731268E+02</pdfrwt>
<totfact> 0.86203186E+02</totfact>
</mgrwt>
</event>
<event>
 7    1  0.5277388E-004  0.3892571E+02  0.7546771E-02  0.1592469E+00
          1   -1    0    0  502    0 -0.00000000000E+00  0.00000000000E+00  0.18615037196E+04  0.18615037196E+04  0.00000000000E+00 0. -1.
          2   -1    0    0  503    0  0.00000000000E+00 -0.00000000000E+00 -0.72318981490E+02  0.72318981490E+02  0.00000000000E+00 0. -1.
         25    2    1    2    0    0 -0.39118534366E+02 -0.44553337864E+02  0.26987904058E+03  0.30327462395E+03  0.12500216534E+03 0.  0.
          4    1    3    3  501    0  0.39895220413E+02 -0.17897306132E+02  0.42117358895E+02  0.60724187923E+02  0.12700000000E+01 0. -1.
         -4    1    3    3    0  501 -0.79013754780E+02 -0.26656031732E+02  0.22776168168E+03  0.24255043602E+03  0.12700000000E+01 0. -1.
          2    1    1    2  502    0  0.21600364547E+02  0.10278185450E+02  0.15681650712E+04  0.15683475085E+04  0.00000000000E+00 0. -1.
          1    1    1    2  503    0  0.17518169819E+02  0.34275152414E+02 -0.48859373665E+02  0.62200568661E+02  0.00000000000E+00 0. -1.
<mgrwt>
<rscale>  0 0.30514652E+02</rscale>
<asrwt>0</asrwt>
<pdfrwt beam="2">  1        2 0.11125999E-01 0.38925708E+02</pdfrwt>
<pdfrwt beam="1">  1        1 0.28638515E+00 0.23921054E+02</pdfrwt>
<totfact> 0.37747158E+02</totfact>
</mgrwt>
</event>
<event>
 7    1  0.5277388E-004  0.9573082E+02  0.7546771E-02  0.1395339E+00
          1   -1    0    0  502    0 -0.00000000000E+00  0.00000000000E+00  0.10735412560E+04  0.10735412560E+04  0.00000000000E+00 0. -1.
          2   -1    0    0  503    0  0.00000000000E+00 -0.00000000000E+00 -0.28032861775E+04  0.28032861775E+04  0.00000000000E+00 0. -1.
         25    2    1    2    0    0 -0.57839463598E+02 -0.76934692609E+02 -0.66573442237E+03  0.68416820706E+03  0.12497785385E+03 0.  0.
          4    1    3    3  501    0 -0.63206581972E+02 -0.99503072962E+02 -0.38926772393E+03  0.40672706736E+03  0.12700000000E+01 0. -1.
         -4    1    3    3    0  501  0.53671183739E+01  0.22568380353E+02 -0.27646669844E+03  0.27744113970E+03  0.12700000000E+01 0. -1.
          2    1    1    2  502    0  0.82910176788E+02  0.47902556215E+02  0.10619973476E+04  0.10663053590E+04  0.00000000000E+00 0. -1.
          1    1    1    2  503    0 -0.25070713189E+02  0.29032136393E+02 -0.21260078467E+04  0.21263538675E+04  0.00000000000E+00 0. -1.
<mgrwt>
<rscale>  0 0.60598099E+02</rscale>
<asrwt>0</asrwt>
<pdfrwt beam="2">  1        2 0.43127480E+00 0.38358905E+02</pdfrwt>
<pdfrwt beam="1">  1        1 0.16516019E+00 0.95730823E+02</pdfrwt>
<totfact> 0.76154027E+00</totfact>
</mgrwt>
</event>
<event>
 7    1  0.5277388E-004  0.7981820E+02  0.7546771E-02  0.1475153E+00
          1   -1    0    0  502    0 -0.00000000000E+00  0.00000000000E+00  0.76982597761E+03  0.76982597761E+03  0.00000000000E+00 0. -1.
          2   -1    0    0  503    0  0.00000000000E+00 -0.00000000000E+00 -0.96717222886E+03  0.96717222886E+03  0.00000000000E+00 0. -1.
         25    2    1    2    0    0 -0.67932286364E+02 -0.14808898514E+02 -0.13952678181E+03  0.19981597743E+03  0.12499841194E+03 0.  0.
          4    1    3    3  501    0 -0.10320433501E+03 -0.56888994774E+01 -0.12027257558E+03  0.15858941856E+03  0.12700000000E+01 0. -1.
         -4    1    3    3    0  501  0.35272048651E+02 -0.91199990363E+01 -0.19254206234E+02  0.41226558869E+02  0.12700000000E+01 0. -1.
          2    1    1    2  502    0  0.79635138631E+02 -0.75360862696E+01  0.73731819691E+03  0.74164457215E+03  0.00000000000E+00 0. -1.
          1    1    1    2  503    0 -0.11702852267E+02  0.22344984783E+02 -0.79513766635E+03  0.79553765690E+03  0.00000000000E+00 0. -1.
<mgrwt>
<rscale>  0 0.44870280E+02</rscale>
<asrwt>0</asrwt>
<pdfrwt beam="2">  1        2 0.14879573E+00 0.25224098E+02</pdfrwt>
<pdfrwt beam="1">  1        1 0.11843477E+00 0.79818197E+02</pdfrwt>
<totfact> 0.10999876E+02</totfact>
</mgrwt>
</event>
<event>
 7    1  0.5277388E-004  0.1018089E+03  0.7546771E-02  0.1356552E+00
         -1   -1    0    0    0  501 -0.00000000000E+00  0.00000000000E+00  0.21106481692E+02  0.21106481692E+02  0.00000000000E+00 0.  1.
          1   -1    0    0  503    0  0.00000000000E+00 -0.00000000000E+00 -0.33777024053E+04  0.33777024053E+04  0.00000000000E+00 0. -1.
         25    2    1    2    0    0  0.59767510079E+02 -0.36925371078E+02 -0.10865795508E+04  0.10959997756E+04  0.12499899847E+03 0.  0.
          4    1    3    3  502    0 -0.27240259658E+02  0.15571091197E+02 -0.47475905202E+03  0.47579644913E+03  0.12700000000E+01 0. -1.
         -4    1    3    3    0  502  0.87007769737E+02 -0.52496462275E+02 -0.61182049879E+03  0.62020332648E+03  0.12700000000E+01 0. -1.
          2    1    1    2  503    0  0.46275584630E+02  0.17816324866E+02 -0.21058872807E+04  0.21064710039E+04  0.00000000000E+00 0. -1.
         -2    1    1    2    0  501 -0.10604309471E+03  0.19109046211E+02 -0.16412909209E+03  0.19633810749E+03  0.00000000000E+00 0.  1.
<mgrwt>
<rscale>  0 0.71051947E+02</rscale>
<asrwt>0</asrwt>
<pdfrwt beam="2">  1        1 0.51964657E+00 0.49586804E+02</pdfrwt>
<pdfrwt beam="1">  1       -1 0.32471507E-02 0.10180892E+03</pdfrwt>
<totfact> 0.16199821E+02</totfact>
</mgrwt>
</event>
<event>
 7    1  0.5277388E-004  0.9437061E+02  0.7546771E-02  0.1448670E+00
          1   -1    0    0  502    0 -0.00000000000E+00  0.00000000000E+00  0.37226602753E+03  0.37226602753E+03  0.00000000000E+00 0. -1.
          2   -1    0    0  503    0  0.00000000000E+00 -0.00000000000E+00 -0.32628089954E+03  0.32628089954E+03  0.00000000000E+00 0. -1.
         25    2    1    2    0    0 -0.11411228536E+03 -0.16861723315E+02  0.51148349808E+02  0.17761650977E+03  0.12500215787E+03 0.  0.
          4    1    3    3  501    0 -0.99673522640E+02 -0.58768411070E+02  0.62950159644E+02  0.13173030310E+03  0.12700000000E+01 0.  1.
         -4    1    3    3    0  501 -0.14438762723E+02  0.41906687755E+02 -0.11801809836E+02  0.45886206675E+02  0.12700000000E+01 0.  1.
          2    1    1    2  502    0  0.88903818075E+02  0.22570592248E+02  0.24905140463E+03  0.26540520464E+03  0.00000000000E+00 0. -1.
          3    1    1    2  503    0  0.25208467289E+02 -0.57088689339E+01 -0.25421462644E+03  0.25552521266E+03  0.00000000000E+00 0. -1.
<mgrwt>
<rscale>  0 0.49388054E+02</rscale>
<asrwt>0</asrwt>
<pdfrwt beam="2">  1        2 0.50197061E-01 0.25846818E+02</pdfrwt>
<pdfrwt beam="1">  1        1 0.57271697E-01 0.94370606E+02</pdfrwt>
<totfact> 0.90056820E+02</totfact>
</mgrwt>
</event>
<event>
 7    1  0.5277388E-004  0.1537600E+03  0.7546771E-02  0.1201773E+00
          2   -1    0    0  503    0  0.00000000000E+00  0.00000000000E+00  0.14712039233E+04  0.14712039233E+04  0.00000000000E+00 0. -1.
         -2   -1    0    0    0  501 -0.00000000000E+00 -0.00000000000E+00 -0.99771073470E+02  0.99771073470E+02  0.00000000000E+00 0.  1.
         25    2    1    2    0    0  0.38291205721E+02 -0.13157969859E+02  0.84064359124E+02  0.15598266879E+03  0.12499771151E+03 0.  0.
          4    1    3    3  502    0  0.59145853171E+02  0.20583144053E+02 -0.42221987394E+00  0.62639356128E+02  0.12700000000E+01 0.  1.
         -4    1    3    3    0  502 -0.20854647451E+02 -0.33741113912E+02  0.84486578998E+02  0.93343312664E+02  0.12700000000E+01 0.  1.
          1    1    1    2  503    0 -0.55635879582E+01  0.16339460778E+03  0.12447424146E+04  0.12554331643E+04  0.00000000000E+00 0. -1.
         -1    1    1    2    0  501 -0.32727617762E+02 -0.15023663792E+03  0.42626076084E+02  0.15955916364E+03  0.00000000000E+00 0.  1.
<mgrwt>
<rscale>  0 0.14894721E+03</rscale>
<asrwt>0</asrwt>
<pdfrwt beam="1">  1        2 0.22633905E+00 0.14428505E+03</pdfrwt>
<pdfrwt beam="2">  1       -2 0.15349397E-01 0.15376002E+03</pdfrwt>
<totfact> 0.47982865E+02</totfact>
</mgrwt>
</event>
<event>
 7    1  0.5277388E-004  0.1636041E+03  0.7546771E-02  0.1234799E+00
         -2   -1    0    0    0  501 -0.00000000000E+00  0.00000000000E+00  0.18974658120E+03  0.18974658120E+03  0.00000000000E+00 0.  1.
          2   -1    0    0  503    0  0.00000000000E+00 -0.00000000000E+00 -0.22228013579E+04  0.22228013579E+04  0.00000000000E+00 0. -1.
         25    2    1    2    0    0 -0.34462371214E+02  0.24988616876E+03 -0.32104029833E+03  0.42699340346E+03  0.12500296429E+03 0.  0.
          4    1    3    3  502    0  0.27813820709E+02  0.80866639570E+02 -0.17617207251E+03  0.19583471105E+03  0.12700000000E+01 0.  1.
         -4    1    3    3    0  502 -0.62276191923E+02  0.16901952919E+03 -0.14486822582E+03  0.23115869242E+03  0.12700000000E+01 0.  1.
          1    1    1    2  503    0  0.34618150316E+02 -0.15411700806E+03 -0.18281859047E+04  0.18349970493E+04  0.00000000000E+00 0. -1.
         -1    1    1    2    0  501 -0.15577910260E+00 -0.95769160696E+02  0.11617142635E+03  0.15055748639E+03  0.00000000000E+00 0.  1.
<mgrwt>
<rscale>  0 0.12517286E+03</rscale>
<asrwt>0</asrwt>
<pdfrwt beam="2">  1        2 0.34196945E+00 0.16360408E+03</pdfrwt>
<pdfrwt beam="1">  1       -2 0.29191781E-01 0.95769287E+02</pdfrwt>
<totfact> 0.63855613E+01</totfact>
</mgrwt>
</event>
<event>
 7    1  0.5277388E-004  0.9476203E+02  0.7546771E-02  0.1302224E+00
          2   -1    0    0  503    0  0.00000000000E+00  0.00000000000E+00  0.13234509961E+04  0.13234509961E+04  0.00000000000E+00 0. -1.
          1   -1    0    0  502    0 -0.00000000000E+00 -0.00000000000E+00 -0.83654729181E+03  0.83654729181E+03  0.00000000000E+00 0. -1.
         25    2    1    2    0    0 -0.21543099348E+02  0.83569765630E+01  0.43857374458E+03  0.45662428200E+03  0.12499944516E+03 0.  0.
          4    1    3    3  501    0 -0.21803754953E+02  0.60277842455E+02  0.33120934923E+03  0.33735747797E+03  0.12700000000E+01 0. -1.
         -4    1    3    3    0  501  0.26065560530E+00 -0.51920865892E+02  0.10736439535E+03  0.11926680403E+03  0.12700000000E+01 0. -1.
          2    1    1    2  502    0  0.74536191287E+02  0.59339654233E+02 -0.82265648586E+03  0.82815489621E+03  0.00000000000E+00 0. -1.
          1    1    1    2  503    0 -0.52993091939E+02 -0.67696630796E+02  0.87098644559E+03  0.87521910972E+03  0.00000000000E+00 0. -1.
<mgrwt>
<rscale>  0 0.90259823E+02</rscale>
<asrwt>0</asrwt>
<pdfrwt beam="1">  1        2 0.20360785E+00 0.85971516E+02</pdfrwt>
<pdfrwt beam="2">  1        1 0.12869958E+00 0.94762033E+02</pdfrwt>
<totfact> 0.57511546E+01</totfact>
</mgrwt>
</event>
<event>
 7    1  0.5277388E-004  0.7894436E+02  0.7546771E-02  0.1338848E+00
          2   -1    0    0  503    0  0.00000000000E+00  0.00000000000E+00  0.62549974295E+03  0.62549974295E+03  0.00000000000E+00 0. -1.
          1   -1    0    0  502    0 -0.00000000000E+00 -0.00000000000E+00 -0.98807977134E+03  0.98807977134E+03  0.00000000000E+00 0. -1.
         25    2    1    2    0    0 -0.18766663666E+02 -0.12585614885E+02 -0.12341761740E+03  0.17710969184E+03  0.12500139716E+03 0.  0.
          4    1    3    3  501    0  0.53070536458E+02 -0.81830729336E+01 -0.40271541874E+02  0.67133110367E+02  0.12700000000E+01 0.  1.
         -4    1    3    3    0  501 -0.71837200124E+02 -0.44025419510E+01 -0.83146075526E+02  0.10997658147E+03  0.12700000000E+01 0.  1.
          2    1    1    2  502    0  0.77320382967E+02 -0.33338613812E+02 -0.83337391441E+03  0.83761684916E+03  0.00000000000E+00 0. -1.
          1    1    1    2  503    0 -0.58553719301E+02  0.45924228696E+02  0.59421150342E+03  0.59885297329E+03  0.00000000000E+00 0. -1.
<mgrwt>
<rscale>  0 0.76646162E+02</rscale>
<asrwt>0</asrwt>
<pdfrwt beam="1">  1        2 0.96230729E-01 0.74414870E+02</pdfrwt>
<pdfrwt beam="2">  1        1 0.15201227E+00 0.78944358E+02</pdfrwt>
<totfact> 0.11993672E+02</totfact>
</mgrwt>
</event>
<event>
 7    1  0.5277388E-004  0.2725421E+03  0.7546771E-02  0.1208934E+00
          1   -1    0    0  503    0  0.00000000000E+00  0.00000000000E+00  0.60216635552E+03  0.60216635552E+03  0.00000000000E+00 0. -1.
         -1   -1    0    0    0  501 -0.00000000000E+00 -0.00000000000E+00 -0.47773307816E+03  0.47773307816E+03  0.00000000000E+00 0.  1.
         25    2    1    2    0    0  0.70795781001E+02  0.29050311815E+03  0.28256407140E+03  0.42996622670E+03  0.12499758957E+03 0.  0.
          4    1    3    3  502    0  0.97675714037E+01 -0.31999717594E+00  0.54480778236E+02  0.55364934269E+02  0.12700000000E+01 0. -1.
         -4    1    3    3    0  502  0.61028209598E+02  0.29082311532E+03  0.22808329316E+03  0.37460129244E+03  0.12700000000E+01 0. -1.
          2    1    1    2  503    0 -0.60815773145E+01 -0.25188022862E+03  0.17604567229E+03  0.30736413890E+03  0.00000000000E+00 0. -1.
         -2    1    1    2    0  501 -0.64714203687E+02 -0.38622889528E+02 -0.33417646633E+03  0.34256906807E+03  0.00000000000E+00 0.  1.
<mgrwt>
<rscale>  0 0.14331688E+03</rscale>
<asrwt>0</asrwt>
<pdfrwt beam="1">  1        1 0.92640978E-01 0.27254215E+03</pdfrwt>
<pdfrwt beam="2">  1       -1 0.73497397E-01 0.75363491E+02</pdfrwt>
<totfact> 0.71269210E+01</totfact>
</mgrwt>
</event>
<event>
 7    1  0.5277388E-004  0.1037528E+03  0.7546771E-02  0.1422263E+00
          2   -1    0    0  503    0  0.00000000000E+00  0.00000000000E+00  0.16691944219E+04  0.16691944219E+04  0.00000000000E+00 0. -1.
          1   -1    0    0  502    0 -0.00000000000E+00 -0.00000000000E+00 -0.14737945092E+04  0.14737945092E+04  0.00000000000E+00 0. -1.
         25    2    1    2    0    0 -0.53872694364E+02 -0.58538470442E+02  0.29955608013E+03  0.33419824316E+03  0.12500240345E+03 0.  0.
          4    1    3    3  501    0 -0.84024576305E+02 -0.75316418237E+02  0.21383999169E+03  0.24178884843E+03  0.12700000000E+01 0.  1.
         -4    1    3    3    0  501  0.30151881941E+02  0.16777947796E+02  0.85716088433E+02  0.92409394723E+02  0.12700000000E+01 0.  1.
          2    1    1    2  502    0  0.56684938254E+02  0.87075765530E+02 -0.14544680128E+04  0.14581743968E+04  0.00000000000E+00 0. -1.
          3    1    1    2  503    0 -0.28122438901E+01 -0.28537295089E+02  0.13503118454E+04  0.13506162911E+04  0.00000000000E+00 0. -1.
<mgrwt>
<rscale>  0 0.54545093E+02</rscale>
<asrwt>0</asrwt>
<pdfrwt beam="1">  1        2 0.25679914E+00 0.28675528E+02</pdfrwt>
<pdfrwt beam="2">  1        1 0.22673762E+00 0.10375283E+03</pdfrwt>
<totfact> 0.15303514E+01</totfact>
</mgrwt>
</event>
<event>
 7    1  0.5277388E-004  0.4865110E+02  0.7546771E-02  0.1505080E+00
         -1   -1    0    0    0  501 -0.00000000000E+00  0.00000000000E+00  0.31404700209E+03  0.31404700209E+03  0.00000000000E+00 0.  1.
          1   -1    0    0  503    0  0.00000000000E+00 -0.00000000000E+00 -0.57093929456E+03  0.57093929456E+03  0.00000000000E+00 0. -1.
         25    2    1    2    0    0  0.11160610972E+01  0.19384111604E+02 -0.61904597547E+02  0.14083827381E+03  0.12500500309E+03 0.  0.
          4    1    3    3  502    0 -0.50380302406E+02  0.40098416137E+02 -0.55373313443E+02  0.84934531193E+02  0.12700000000E+01 0.  1.
         -4    1    3    3    0  502  0.51496363503E+02 -0.20714304533E+02 -0.65312841035E+01  0.55903742615E+02  0.12700000000E+01 0.  1.
          2    1    1    2  503    0  0.24922181313E+02  0.22529582015E+02 -0.46674240216E+03  0.46794996224E+03  0.00000000000E+00 0. -1.
         -2    1    1    2    0  501 -0.26038242410E+02 -0.41913693619E+02  0.27175470723E+03  0.27619806060E+03  0.00000000000E+00 0.  1.
<mgrwt>
<rscale>  0 0.40428786E+02</rscale>
<asrwt>0</asrwt>
<pdfrwt beam="2">  1        1 0.87836815E-01 0.33596089E+02</pdfrwt>
<pdfrwt beam="1">  1       -1 0.48314923E-01 0.48651101E+02</pdfrwt>
<totfact> 0.17904791E+02</totfact>
</mgrwt>
</event>
<event>
 7    1  0.5277388E-004  0.1040285E+03  0.7546771E-02  0.1357307E+00
          2   -1    0    0  503    0  0.00000000000E+00  0.00000000000E+00  0.29137215791E+04  0.29137215791E+04  0.00000000000E+00 0. -1.
          3   -1    0    0  502    0 -0.00000000000E+00 -0.00000000000E+00 -0.15318849061E+02  0.15318849061E+02  0.00000000000E+00 0. -1.
         25    2    1    2    0    0 -0.60836112346E+02 -0.11367402325E+02  0.48392145975E+03  0.50362131167E+03  0.12499678381E+03 0.  0.
          4    1    3    3  501    0  0.31735489279E+02  0.20553333960E+02  0.88360571100E+02  0.96118594672E+02  0.12700000000E+01 0. -1.
         -4    1    3    3    0  501 -0.92571601625E+02 -0.31920736285E+02  0.39556088865E+03  0.40750271699E+03  0.12700000000E+01 0. -1.
          2    1    1    2  502    0 -0.48217801955E+02 -0.48538340041E+00  0.13594244080E+03  0.14424125357E+03  0.00000000000E+00 0. -1.
          1    1    1    2  503    0  0.10905391430E+03  0.11852785725E+02  0.22785388295E+04  0.22811778629E+04  0.00000000000E+00 0. -1.
<mgrwt>
<rscale>  0 0.70825709E+02</rscale>
<asrwt>0</asrwt>
<pdfrwt beam="1">  1        2 0.44826442E+00 0.10402853E+03</pdfrwt>
<pdfrwt beam="2">  1        3 0.23567483E-02 0.48220245E+02</pdfrwt>
<totfact> 0.96603703E+02</totfact>
</mgrwt>
</event>
<event>
 7    1  0.5277388E-004  0.1266814E+03  0.7546771E-02  0.1339343E+00
          2   -1    0    0  503    0  0.00000000000E+00  0.00000000000E+00  0.20901214954E+03  0.20901214954E+03  0.00000000000E+00 0. -1.
          1   -1    0    0  502    0 -0.00000000000E+00 -0.00000000000E+00 -0.10228004503E+04  0.10228004503E+04  0.00000000000E+00 0. -1.
         25    2    1    2    0    0 -0.88513381979E+02  0.38248420329E+02 -0.51621892470E+02  0.16609773592E+03  0.12500431052E+03 0.  0.
          4    1    3    3  501    0 -0.27234022801E+02  0.11707413199E+01  0.40849282520E+02  0.49125751043E+02  0.12700000000E+01 0.  1.
         -4    1    3    3    0  501 -0.61279359178E+02  0.37077679009E+02 -0.92471174990E+02  0.11697198488E+03  0.12700000000E+01 0.  1.
          2    1    1    2  502    0 -0.44579460198E+02 -0.12031137744E+02 -0.88290647070E+03  0.88411306548E+03  0.00000000000E+00 0. -1.
          1    1    1    2  503    0  0.13309284218E+03 -0.26217282585E+02  0.12074006238E+03  0.18160179847E+03  0.00000000000E+00 0. -1.
<mgrwt>
<rscale>  0 0.76481627E+02</rscale>
<asrwt>0</asrwt>
<pdfrwt beam="1">  1        2 0.32155716E-01 0.12668140E+03</pdfrwt>
<pdfrwt beam="2">  1        1 0.15735391E+00 0.46174414E+02</pdfrwt>
<totfact> 0.37775594E+02</totfact>
</mgrwt>
</event>
<event>
 7    1  0.5277388E-004  0.3107877E+02  0.7546771E-02  0.1611136E+00
          1   -1    0    0  502    0 -0.00000000000E+00  0.00000000000E+00  0.16290583492E+04  0.16290583492E+04  0.00000000000E+00 0. -1.
          2   -1    0    0  503    0  0.00000000000E+00 -0.00000000000E+00 -0.29322979214E+04  0.29322979214E+04  0.00000000000E+00 0. -1.
         25    2    1    2    0    0 -0.28302414477E+02  0.40748674899E+02 -0.87219998868E+03  0.88250712520E+03  0.12499809841E+03 0.  0.
          4    1    3    3  501    0 -0.17071301785E+02 -0.41464333590E+02 -0.44987416107E+03  0.45210518025E+03  0.12700000000E+01 0.  1.
         -4    1    3    3    0  501 -0.11231112693E+02  0.82213008488E+02 -0.42232582761E+03  0.43040194496E+03  0.12700000000E+01 0.  1.
          2    1    1    2  502    0  0.86626828416E+00 -0.26770874497E+02  0.16236789722E+04  0.16238998845E+04  0.00000000000E+00 0. -1.
          1    1    1    2  503    0  0.27436146193E+02 -0.13977800402E+02 -0.20547185558E+04  0.20549492609E+04  0.00000000000E+00 0. -1.
<mgrwt>
<rscale>  0 0.28852061E+02</rscale>
<asrwt>0</asrwt>
<pdfrwt beam="2">  1        2 0.45112275E+00 0.31078774E+02</pdfrwt>
<pdfrwt beam="1">  1        1 0.25062436E+00 0.26784886E+02</pdfrwt>
<totfact> 0.33606256E+00</totfact>
</mgrwt>
</event>
<event>
 7    1  0.5277388E-004  0.7253755E+02  0.7546771E-02  0.1463413E+00
          2   -1    0    0  503    0  0.00000000000E+00  0.00000000000E+00  0.13351667554E+04  0.13351667554E+04  0.00000000000E+00 0. -1.
          1   -1    0    0  502    0 -0.00000000000E+00 -0.00000000000E+00 -0.98349989095E+03  0.98349989095E+03  0.00000000000E+00 0. -1.
         25    2    1    2    0    0 -0.11222320029E+02 -0.66280931820E+02 -0.31093520852E+03  0.34179383487E+03  0.12499287687E+03 0.  0.
          4    1    3    3  501    0  0.90756917974E+01 -0.59186881849E+02 -0.31433305822E+03  0.31998803033E+03  0.12700000000E+01 0.  1.
         -4    1    3    3    0  501 -0.20298011826E+02 -0.70940499715E+01  0.33978496987E+01  0.21805804541E+02  0.12700000000E+01 0.  1.
          2    1    1    2  502    0  0.41039573919E+02  0.61530551997E+02 -0.65488075692E+03  0.65904405106E+03  0.00000000000E+00 0. -1.
          1    1    1    2  503    0 -0.29817253890E+02  0.47503798233E+01  0.13174828299E+04  0.13178287604E+04  0.00000000000E+00 0. -1.
<mgrwt>
<rscale>  0 0.46799009E+02</rscale>
<asrwt>0</asrwt>
<pdfrwt beam="1">  1        2 0.20541027E+00 0.30193290E+02</pdfrwt>
<pdfrwt beam="2">  1        1 0.15130768E+00 0.72537550E+02</pdfrwt>
<totfact> 0.48394759E+01</totfact>
</mgrwt>
</event>
<event>
 7    1  0.5277388E-004  0.4401140E+02  0.7546771E-02  0.1480742E+00
          1   -1    0    0  503    0  0.00000000000E+00  0.00000000000E+00  0.36326018995E+03  0.36326018995E+03  0.00000000000E+00 0. -1.
         -1   -1    0    0    0  501 -0.00000000000E+00 -0.00000000000E+00 -0.84576821153E+02  0.84576821153E+02  0.00000000000E+00 0.  1.
         25    2    1    2    0    0  0.64027255087E+01  0.13131837548E+02  0.14933641906E+03  0.19529992760E+03  0.12500902211E+03 0.  0.
          4    1    3    3  502    0  0.25508013515E+02  0.62741331954E+02  0.56053019997E+02  0.87924327916E+02  0.12700000000E+01 0. -1.
         -4    1    3    3    0  502 -0.19105288006E+02 -0.49609494406E+02  0.93283399067E+02  0.10737559968E+03  0.12700000000E+01 0. -1.
          2    1    1    2  503    0 -0.49209606586E+02 -0.30841215630E+01  0.17931911716E+03  0.18597430727E+03  0.00000000000E+00 0. -1.
         -2    1    1    2    0  501  0.42806881077E+02 -0.10047715985E+02 -0.49972167421E+02  0.66562776240E+02  0.00000000000E+00 0.  1.
<mgrwt>
<rscale>  0 0.43990838E+02</rscale>
<asrwt>0</asrwt>
<pdfrwt beam="1">  1        1 0.55886182E-01 0.44011403E+02</pdfrwt>
<pdfrwt beam="2">  1       -1 0.13011819E-01 0.43970282E+02</pdfrwt>
<totfact> 0.25379197E+03</totfact>
</mgrwt>
</event>
<event>
 7    1  0.5277388E-004  0.9067300E+02  0.7546771E-02  0.1418552E+00
         -1   -1    0    0    0  501 -0.00000000000E+00  0.00000000000E+00  0.30238732131E+03  0.30238732131E+03  0.00000000000E+00 0.  1.
          1   -1    0    0  503    0  0.00000000000E+00 -0.00000000000E+00 -0.19374797305E+04  0.19374797305E+04  0.00000000000E+00 0. -1.
         25    2    1    2    0    0  0.43021084181E+02 -0.88693083680E+02  0.73733105133E+02  0.17542566681E+03  0.12498126662E+03 0.  0.
          4    1    3    3  502    0  0.27905441338E+02 -0.26673915654E+02 -0.33166822462E+02  0.50910337308E+02  0.12700000000E+01 0.  1.
         -4    1    3    3    0  502  0.15115642843E+02 -0.62019168025E+02  0.10689992760E+03  0.12451532950E+03  0.12700000000E+01 0.  1.
          2    1    1    2  503    0 -0.65067476994E+02  0.63123820351E+02 -0.18839309896E+04  0.18861109105E+04  0.00000000000E+00 0. -1.
         -2    1    1    2    0  501  0.22046392813E+02  0.25569263329E+02  0.17510547526E+03  0.17833047448E+03  0.00000000000E+00 0.  1.
<mgrwt>
<rscale>  0 0.55328523E+02</rscale>
<asrwt>0</asrwt>
<pdfrwt beam="2">  1        1 0.29807380E+00 0.90673001E+02</pdfrwt>
<pdfrwt beam="1">  1       -1 0.46521128E-01 0.33761378E+02</pdfrwt>
<totfact> 0.20056774E+01</totfact>
</mgrwt>
</event>
<event>
 7    1  0.5277388E-004  0.5656677E+02  0.7546771E-02  0.1474605E+00
          1   -1    0    0  502    0 -0.00000000000E+00  0.00000000000E+00  0.72507772359E+03  0.72507772359E+03  0.00000000000E+00 0. -1.
          2   -1    0    0  503    0  0.00000000000E+00 -0.00000000000E+00 -0.51399010957E+03  0.51399010957E+03  0.00000000000E+00 0. -1.
         25    2    1    2    0    0 -0.21697872005E+02  0.38156132649E+02 -0.35074735947E+03  0.37493240933E+03  0.12499565305E+03 0.  0.
          4    1    3    3  501    0 -0.52137072913E+02  0.69630675319E+01 -0.55475267508E+02  0.76458334317E+02  0.12700000000E+01 0.  1.
         -4    1    3    3    0  501  0.30439200908E+02  0.31193065117E+02 -0.29527209196E+03  0.29847407501E+03  0.12700000000E+01 0.  1.
          2    1    1    2  502    0  0.21338706577E+02  0.28659760381E+02  0.70512646802E+03  0.70603120198E+03  0.00000000000E+00 0. -1.
          1    1    1    2  503    0  0.35916542766E+00 -0.66815893030E+02 -0.14329149454E+03  0.15810422185E+03  0.00000000000E+00 0. -1.
<mgrwt>
<rscale>  0 0.44957776E+02</rscale>
<asrwt>0</asrwt>
<pdfrwt beam="2">  1        2 0.79075402E-01 0.56566774E+02</pdfrwt>
<pdfrwt beam="1">  1        1 0.11155042E+00 0.35731251E+02</pdfrwt>
<totfact> 0.24732019E+02</totfact>
</mgrwt>
</event>
<event>
 7    1  0.5277388E-004  0.1156955E+03  0.7546771E-02  0.1354132E+00
          2   -1    0    0  503    0  0.00000000000E+00  0.00000000000E+00  0.39860464167E+03  0.39860464167E+03  0.00000000000E+00 0. -1.
          1   -1    0    0  502    0 -0.00000000000E+00 -0.00000000000E+00 -0.17973123434E+03  0.17973123434E+03  0.00000000000E+00 0. -1.
         25    2    1    2    0    0 -0.12558308829E+03 -0.47901564755E+02  0.23579843621E+03  0.29881482833E+03  0.12499490845E+03 0.  0.
          4    1    3    3  501    0 -0.11572442238E+03 -0.63343636709E+02  0.24500697070E+03  0.27827070783E+03  0.12700000000E+01 0.  1.
         -4    1    3    3    0  501 -0.98586659092E+01  0.15442071954E+02 -0.92085344846E+01  0.20544120499E+02  0.12700000000E+01 0.  1.
          2    1    1    2  502    0  0.21119510059E+02  0.39212266202E+02 -0.12274247010E+03  0.13057315762E+03  0.00000000000E+00 0. -1.
          1    1    1    2  503    0  0.10446357823E+03  0.86892985533E+01  0.10581744122E+03  0.14894789006E+03  0.00000000000E+00 0. -1.
<mgrwt>
<rscale>  0 0.71783333E+02</rscale>
<asrwt>0</asrwt>
<pdfrwt beam="1">  1        2 0.61323791E-01 0.11569546E+03</pdfrwt>
<pdfrwt beam="2">  1        1 0.27650959E-01 0.44538023E+02</pdfrwt>
<totfact> 0.17657628E+03</totfact>
</mgrwt>
</event>
<event>
 7    1  0.5277388E-004  0.7917122E+02  0.7546771E-02  0.1377164E+00
          1   -1    0    0  502    0 -0.00000000000E+00  0.00000000000E+00  0.79423528925E+03  0.79423528925E+03  0.00000000000E+00 0. -1.
          2   -1    0    0  503    0  0.00000000000E+00 -0.00000000000E+00 -0.85823839438E+03  0.85823839438E+03  0.00000000000E+00 0. -1.
         25    2    1    2    0    0 -0.27488789195E+02 -0.10235198736E+03  0.20642134469E+03  0.26356501742E+03  0.12500073606E+03 0.  0.
          4    1    3    3  501    0 -0.54307819178E+02 -0.11310207010E+03  0.12479106060E+03  0.17696281866E+03  0.12700000000E+01 0. -1.
         -4    1    3    3    0  501  0.26819029983E+02  0.10750082737E+02  0.81630284095E+02  0.86602198757E+02  0.12700000000E+01 0. -1.
          2    1    1    2  502    0 -0.18987253630E+02  0.75412166078E+02  0.55566203772E+03  0.56107736611E+03  0.00000000000E+00 0. -1.
          1    1    1    2  503    0  0.46476042825E+02  0.26939821284E+02 -0.82608648754E+03  0.82783130010E+03  0.00000000000E+00 0. -1.
<mgrwt>
<rscale>  0 0.65215275E+02</rscale>
<asrwt>0</asrwt>
<pdfrwt beam="2">  1        2 0.13203668E+00 0.53719424E+02</pdfrwt>
<pdfrwt beam="1">  1        1 0.12219004E+00 0.79171215E+02</pdfrwt>
<totfact> 0.11750435E+02</totfact>
</mgrwt>
</event>
<event>
 7    1  0.5277388E-004  0.6888608E+02  0.7546771E-02  0.1397937E+00
          1   -1    0    0  502    0 -0.00000000000E+00  0.00000000000E+00  0.32505791779E+04  0.32505791779E+04  0.00000000000E+00 0. -1.
          2   -1    0    0  503    0  0.00000000000E+00 -0.00000000000E+00 -0.33280951458E+03  0.33280951458E+03  0.00000000000E+00 0. -1.
         25    2    1    2    0    0  0.10695866376E+02 -0.10036749369E+03  0.36584874057E+03  0.39957527270E+03  0.12500824863E+03 0.  0.
          4    1    3    3  501    0 -0.24556193632E+02 -0.36945025790E+02  0.24694656645E+02  0.50787602258E+02  0.12700000000E+01 0.  1.
         -4    1    3    3    0  501  0.35252060008E+02 -0.63422467903E+02  0.34115408393E+03  0.34878767044E+03  0.12700000000E+01 0.  1.
          2    1    1    2  502    0 -0.38774673966E+02  0.56342921899E+02  0.28652988058E+04  0.28661150094E+04  0.00000000000E+00 0. -1.
          1    1    1    2  503    0  0.28078807590E+02  0.44024571795E+02 -0.31337788310E+03  0.31769841040E+03  0.00000000000E+00 0. -1.
<mgrwt>
<rscale>  0 0.59975019E+02</rscale>
<asrwt>0</asrwt>
<pdfrwt beam="2">  1        2 0.51201466E-01 0.52216687E+02</pdfrwt>
<pdfrwt beam="1">  1        1 0.50008908E+00 0.68886081E+02</pdfrwt>
<totfact> 0.81465464E+00</totfact>
</mgrwt>
</event>
<event>
 7    1  0.5277388E-004  0.1128674E+03  0.7546771E-02  0.1281107E+00
          2   -1    0    0  503    0  0.00000000000E+00  0.00000000000E+00  0.27631798888E+04  0.27631798888E+04  0.00000000000E+00 0. -1.
          1   -1    0    0  502    0 -0.00000000000E+00 -0.00000000000E+00 -0.16512806562E+03  0.16512806562E+03  0.00000000000E+00 0. -1.
         25    2    1    2    0    0 -0.28519102455E+02 -0.13981826527E+03  0.42270757178E+03  0.46332528843E+03  0.12500458051E+03 0.  0.
          4    1    3    3  501    0 -0.89087874959E+01 -0.14570917060E+03  0.41731496626E+03  0.44211302046E+03  0.12700000000E+01 0. -1.
         -4    1    3    3    0  501 -0.19610314959E+02  0.58909053268E+01  0.53926055213E+01  0.21212267976E+02  0.12700000000E+01 0. -1.
          2    1    1    2  502    0  0.78836938329E+02  0.38917056614E+02 -0.12996932007E+03  0.15691342932E+03  0.00000000000E+00 0. -1.
          1    1    1    2  503    0 -0.50317835874E+02  0.10090120866E+03  0.23053135715E+04  0.23080692367E+04  0.00000000000E+00 0. -1.
<mgrwt>
<rscale>  0 0.99615347E+02</rscale>
<asrwt>0</asrwt>
<pdfrwt beam="1">  1        2 0.42510456E+00 0.11286736E+03</pdfrwt>
<pdfrwt beam="2">  1        1 0.25404320E-01 0.87919282E+02</pdfrwt>
<totfact> 0.80658089E+01</totfact>
</mgrwt>
</event>
<event>
 7    1  0.5277388E-004  0.4476334E+03  0.7546771E-02  0.1188482E+00
          1   -1    0    0  502    0 -0.00000000000E+00  0.00000000000E+00  0.13447964839E+04  0.13447964839E+04  0.00000000000E+00 0. -1.
          2   -1    0    0  503    0  0.00000000000E+00 -0.00000000000E+00 -0.93496236683E+03  0.93496236683E+03  0.00000000000E+00 0. -1.
         25    2    1    2    0    0  0.39646791405E+03 -0.15298735889E+03 -0.29449216506E+03  0.53192436746E+03  0.12500383419E+03 0.  0.
          4    1    3    3  501    0  0.29148893519E+03 -0.96526414043E+02 -0.27284993679E+03  0.41076982466E+03  0.12700000000E+01 0.  1.
         -4    1    3    3    0  501  0.10497897886E+03 -0.56460944848E+02 -0.21642228270E+02  0.12115454280E+03  0.12700000000E+01 0.  1.
          2    1    1    2  502    0  0.53162097941E+02  0.21448349917E+02  0.11200398754E+04  0.11215059352E+04  0.00000000000E+00 0. -1.
          1    1    1    2  503    0 -0.44963001199E+03  0.13153900897E+03 -0.41571359319E+03  0.62632854807E+03  0.00000000000E+00 0. -1.
<mgrwt>
<rscale>  0 0.16019025E+03</rscale>
<asrwt>0</asrwt>
<pdfrwt beam="2">  1        2 0.14384036E+00 0.44763341E+03</pdfrwt>
<pdfrwt beam="1">  1        1 0.20689177E+00 0.57325739E+02</pdfrwt>
<totfact> 0.40348421E+01</totfact>
</mgrwt>
</event>
<event>
 7    1  0.5277388E-004  0.1784157E+03  0.7546771E-02  0.1293217E+00
          1   -1    0    0  502    0 -0.00000000000E+00  0.00000000000E+00  0.38148442427E+03  0.38148442427E+03  0.00000000000E+00 0. -1.
          2   -1    0    0  503    0  0.00000000000E+00 -0.00000000000E+00 -0.90634987542E+03  0.90634987542E+03  0.00000000000E+00 0. -1.
         25    2    1    2    0    0  0.20343621779E+03 -0.85510262209E+02 -0.17445064218E+02  0.25422009015E+03  0.12500089727E+03 0.  0.
          4    1    3    3  501    0  0.37161807197E+02 -0.17401113139E+00  0.43881519807E+02  0.57517222417E+02  0.12700000000E+01 0. -1.
         -4    1    3    3    0  501  0.16627441060E+03 -0.85336251078E+02 -0.61326584025E+02  0.19670286774E+03  0.12700000000E+01 0. -1.
          2    1    1    2  502    0 -0.36298828516E+02  0.33845102611E+02  0.25070312237E+03  0.25556829124E+03  0.00000000000E+00 0. -1.
          1    1    1    2  503    0 -0.16713738928E+03  0.51665159599E+02 -0.75812350930E+03  0.77804591829E+03  0.00000000000E+00 0. -1.
<mgrwt>
<rscale>  0 0.94099402E+02</rscale>
<asrwt>0</asrwt>
<pdfrwt beam="2">  1        2 0.13943844E+00 0.17841570E+03</pdfrwt>
<pdfrwt beam="1">  1        1 0.58689912E-01 0.49629587E+02</pdfrwt>
<totfact> 0.27491047E+02</totfact>
</mgrwt>
</event>
<event>
 7    1  0.5277388E-004  0.1034500E+03  0.7546771E-02  0.1352282E+00
          2   -1    0    0  503    0  0.00000000000E+00  0.00000000000E+00  0.43263079924E+03  0.43263079924E+03  0.00000000000E+00 0. -1.
          1   -1    0    0  502    0 -0.00000000000E+00 -0.00000000000E+00 -0.12412161059E+04  0.12412161059E+04  0.00000000000E+00 0. -1.
         25    2    1    2    0    0 -0.27704621681E+02 -0.14818392775E+03 -0.70042467514E+02  0.20797989110E+03  0.12499466126E+03 0.  0.
          4    1    3    3  501    0  0.20268334814E+02  0.15270952541E+02 -0.72716549439E+01  0.26429098609E+02  0.12700000000E+01 0.  1.
         -4    1    3    3    0  501 -0.47972956495E+02 -0.16345488029E+03 -0.62770812570E+02  0.18155079249E+03  0.12700000000E+01 0.  1.
          2    1    1    2  502    0  0.16929798534E+02  0.47681993215E+02 -0.10945856847E+04  0.10957545399E+04  0.00000000000E+00 0. -1.
          1    1    1    2  503    0  0.10774823147E+02  0.10050193453E+03  0.35604284555E+03  0.37011247415E+03  0.00000000000E+00 0. -1.
<mgrwt>
<rscale>  0 0.72349142E+02</rscale>
<asrwt>0</asrwt>
<pdfrwt beam="1">  1        2 0.66558585E-01 0.10345003E+03</pdfrwt>
<pdfrwt beam="2">  1        1 0.19095632E+00 0.50598326E+02</pdfrwt>
<totfact> 0.12391717E+02</totfact>
</mgrwt>
</event>
<event>
 7    1  0.5277388E-004  0.1304363E+03  0.7546771E-02  0.1291094E+00
          2   -1    0    0  503    0  0.00000000000E+00  0.00000000000E+00  0.60114882002E+03  0.60114882002E+03  0.00000000000E+00 0. -1.
          1   -1    0    0  502    0 -0.00000000000E+00 -0.00000000000E+00 -0.10122313858E+04  0.10122313858E+04  0.00000000000E+00 0. -1.
         25    2    1    2    0    0 -0.10380812835E+02 -0.12632777719E+03 -0.16873907104E+03  0.24528358747E+03  0.12499878247E+03 0.  0.
          4    1    3    3  501    0 -0.40506929714E+02 -0.79854292266E+02 -0.16742564771E+03  0.18986963886E+03  0.12700000000E+01 0.  1.
         -4    1    3    3    0  501  0.30126116878E+02 -0.46473484926E+02 -0.13134233304E+01  0.55413948606E+02  0.12700000000E+01 0.  1.
          2    1    1    2  502    0 -0.58545324010E+02  0.11969939770E+03 -0.79754197659E+03  0.80859675067E+03  0.00000000000E+00 0. -1.
          1    1    1    2  503    0  0.68926136846E+02  0.66283794936E+01  0.55519848182E+03  0.55949986771E+03  0.00000000000E+00 0. -1.
<mgrwt>
<rscale>  0 0.95036550E+02</rscale>
<asrwt>0</asrwt>
<pdfrwt beam="1">  1        2 0.92484435E-01 0.69244117E+02</pdfrwt>
<pdfrwt beam="2">  1        1 0.15572790E+00 0.13043629E+03</pdfrwt>
<totfact> 0.11681033E+02</totfact>
</mgrwt>
</event>
<event>
 7    1  0.5277388E-004  0.1180820E+03  0.7546771E-02  0.1259561E+00
         -1   -1    0    0    0  501 -0.00000000000E+00  0.00000000000E+00  0.19168878926E+03  0.19168878926E+03  0.00000000000E+00 0.  1.
          1   -1    0    0  503    0  0.00000000000E+00 -0.00000000000E+00 -0.97063028536E+03  0.97063028536E+03  0.00000000000E+00 0. -1.
         25    2    1    2    0    0  0.19787989821E+02 -0.45269757133E+01  0.11059832921E+03  0.16813002368E+03  0.12499462544E+03 0.  0.
          4    1    3    3  502    0 -0.47465064619E+02 -0.11161422981E+02  0.14962184630E+02  0.51019502066E+02  0.12700000000E+01 0. -1.
         -4    1    3    3    0  502  0.67253054439E+02  0.66344472676E+01  0.95636144580E+02  0.11711052161E+03  0.12700000000E+01 0. -1.
          2    1    1    2  503    0 -0.92043540948E+02  0.78620402360E+02 -0.88216782634E+03  0.89043430691E+03  0.00000000000E+00 0. -1.
         -2    1    1    2    0  501  0.72255551127E+02 -0.74093426647E+02 -0.73719989696E+01  0.10375474404E+03  0.00000000000E+00 0.  1.
<mgrwt>
<rscale>  0 0.11054685E+03</rscale>
<asrwt>0</asrwt>
<pdfrwt beam="2">  1        1 0.14932773E+00 0.11808203E+03</pdfrwt>
<pdfrwt beam="1">  1       -1 0.29490584E-01 0.10349251E+03</pdfrwt>
<totfact> 0.18543940E+02</totfact>
</mgrwt>
</event>
<event>
 7    1  0.5277388E-004  0.4418136E+02  0.7546771E-02  0.1506673E+00
          2   -1    0    0  503    0  0.00000000000E+00  0.00000000000E+00  0.17646296059E+04  0.17646296059E+04  0.00000000000E+00 0. -1.
          1   -1    0    0  502    0 -0.00000000000E+00 -0.00000000000E+00 -0.87099068561E+03  0.87099068561E+03  0.00000000000E+00 0. -1.
         25    2    1    2    0    0  0.26965841858E+02  0.17014109324E+02  0.21582783034E+03  0.25144044982E+03  0.12499604359E+03 0.  0.
          4    1    3    3  501    0  0.70987819447E+02  0.81769973222E+01  0.74896875406E+02  0.10352433840E+03  0.12700000000E+01 0.  1.
         -4    1    3    3    0  501 -0.44021977589E+02  0.88371120020E+01  0.14093095494E+03  0.14791611143E+03  0.12700000000E+01 0.  1.
          2    1    1    2  502    0 -0.24100791754E+02  0.27538445489E+02 -0.85246626172E+03  0.85325139409E+03  0.00000000000E+00 0. -1.
          1    1    1    2  503    0 -0.28650501045E+01 -0.44552554814E+02  0.15302773517E+04  0.15309284476E+04  0.00000000000E+00 0. -1.
<mgrwt>
<rscale>  0 0.40209814E+02</rscale>
<asrwt>0</asrwt>
<pdfrwt beam="1">  1        2 0.27148148E+00 0.44181364E+02</pdfrwt>
<pdfrwt beam="2">  1        1 0.13399857E+00 0.36595275E+02</pdfrwt>
<totfact> 0.36409249E+01</totfact>
</mgrwt>
</event>
<event>
 7    1  0.5277388E-004  0.1087968E+03  0.7546771E-02  0.1306578E+00
          2   -1    0    0  503    0  0.00000000000E+00  0.00000000000E+00  0.74853599258E+03  0.74853599258E+03  0.00000000000E+00 0. -1.
          1   -1    0    0  502    0 -0.00000000000E+00 -0.00000000000E+00 -0.13527299420E+04  0.13527299420E+04  0.00000000000E+00 0. -1.
         25    2    1    2    0    0  0.11578190021E+03 -0.35590559664E+02  0.31666169187E+02  0.17691279437E+03  0.12499301656E+03 0.  0.
          4    1    3    3  501    0  0.12066015161E+02 -0.35265977274E+01  0.62729827748E+02  0.63989606990E+02  0.12700000000E+01 0.  1.
         -4    1    3    3    0  501  0.10371588505E+03 -0.32063961937E+02 -0.31063658562E+02  0.11292318738E+03  0.12700000000E+01 0.  1.
          2    1    1    2  502    0 -0.49959899980E+02 -0.51783627572E+02 -0.12744407492E+04  0.12764704301E+04  0.00000000000E+00 0. -1.
          1    1    1    2  503    0 -0.65822000227E+02  0.87374187236E+02  0.63858063059E+03  0.64788271012E+03  0.00000000000E+00 0. -1.
<mgrwt>
<rscale>  0 0.88478721E+02</rscale>
<asrwt>0</asrwt>
<pdfrwt beam="1">  1        2 0.11515938E+00 0.10879680E+03</pdfrwt>
<pdfrwt beam="2">  1        1 0.20811230E+00 0.71955095E+02</pdfrwt>
<totfact> 0.55005332E+01</totfact>
</mgrwt>
</event>
<event>
 7    1  0.5277388E-004  0.5868494E+02  0.7546771E-02  0.1503586E+00
          2   -1    0    0  503    0  0.00000000000E+00  0.00000000000E+00  0.96197324513E+03  0.96197324513E+03  0.00000000000E+00 0. -1.
         -2   -1    0    0    0  501 -0.00000000000E+00 -0.00000000000E+00 -0.14272248137E+03  0.14272248137E+03  0.00000000000E+00 0.  1.
         25    2    1    2    0    0 -0.16318394683E+01 -0.46390856502E+02 -0.74678080386E+02  0.15276223523E+03  0.12491881506E+03 0.  0.
          4    1    3    3  502    0 -0.18560463057E+02 -0.32107625431E+02 -0.10717336574E+03  0.11341575563E+03  0.12700000000E+01 0. -1.
         -4    1    3    3    0  502  0.16928623589E+02 -0.14283231072E+02  0.32495285358E+02  0.39346479601E+02  0.12700000000E+01 0. -1.
          1    1    1    2  503    0  0.75391552699E+01 -0.27108606474E+02  0.87546950410E+03  0.87592155358E+03  0.00000000000E+00 0. -1.
         -1    1    1    2    0  501 -0.59073158015E+01  0.73499462976E+02  0.18459340040E+02  0.76011937697E+02  0.00000000000E+00 0.  1.
<mgrwt>
<rscale>  0 0.40635499E+02</rscale>
<asrwt>0</asrwt>
<pdfrwt beam="1">  1        2 0.14799588E+00 0.28137438E+02</pdfrwt>
<pdfrwt beam="2">  1       -2 0.21957305E-01 0.58684938E+02</pdfrwt>
<totfact> 0.52996482E+02</totfact>
</mgrwt>
</event>
<event>
 7    1  0.5277388E-004  0.8466644E+02  0.7546771E-02  0.1336215E+00
          1   -1    0    0  503    0  0.00000000000E+00  0.00000000000E+00  0.63763508228E+03  0.63763508228E+03  0.00000000000E+00 0. -1.
         -1   -1    0    0    0  501 -0.00000000000E+00 -0.00000000000E+00 -0.17536256790E+03  0.17536256790E+03  0.00000000000E+00 0.  1.
         25    2    1    2    0    0  0.25592292713E+02  0.45790935099E+00  0.41006527569E+03  0.42945498780E+03  0.12499152407E+03 0.  0.
          4    1    3    3  502    0  0.37440964484E+02 -0.40636523156E+02  0.83731387098E+02  0.10032801663E+03  0.12700000000E+01 0.  1.
         -4    1    3    3    0  502 -0.11848671772E+02  0.41094432507E+02  0.32633388859E+03  0.32912697116E+03  0.12700000000E+01 0.  1.
          2    1    1    2  503    0  0.33902184578E+02  0.62374240275E+02  0.20003104893E+03  0.21225532856E+03  0.00000000000E+00 0. -1.
         -2    1    1    2    0  501 -0.59494477291E+02 -0.62832149626E+02 -0.14782381023E+03  0.17128733382E+03  0.00000000000E+00 0.  1.
<mgrwt>
<rscale>  0 0.77528471E+02</rscale>
<asrwt>0</asrwt>
<pdfrwt beam="1">  1        1 0.98097704E-01 0.70992281E+02</pdfrwt>
<pdfrwt beam="2">  1       -1 0.26978857E-01 0.84666441E+02</pdfrwt>
<totfact> 0.40844712E+02</totfact>
</mgrwt>
</event>
<event>
 7    1  0.5277388E-004  0.9769758E+02  0.7546771E-02  0.1321792E+00
         -2   -1    0    0    0  501 -0.00000000000E+00  0.00000000000E+00  0.83110276266E+02  0.83110276266E+02  0.00000000000E+00 0.  1.
          2   -1    0    0  503    0  0.00000000000E+00 -0.00000000000E+00 -0.22077723954E+04  0.22077723954E+04  0.00000000000E+00 0. -1.
         25    2    1    2    0    0 -0.11555490677E+03  0.87927961663E+02 -0.36924059297E+03  0.41599224372E+03  0.12500667348E+03 0.  0.
          4    1    3    3  502    0 -0.11577049116E+03  0.96141903082E+02 -0.22015889054E+03  0.26667887456E+03  0.12700000000E+01 0.  1.
         -4    1    3    3    0  502  0.21558438312E+00 -0.82139414192E+01 -0.14908170243E+03  0.14931336916E+03  0.12700000000E+01 0.  1.
          1    1    1    2  503    0  0.69625155939E+02 -0.57221593563E+01 -0.17769267435E+04  0.17782994847E+04  0.00000000000E+00 0. -1.
         -1    1    1    2    0  501  0.45929750833E+02 -0.82205802307E+02  0.21505217356E+02  0.96590943251E+02  0.00000000000E+00 0.  1.
<mgrwt>
<rscale>  0 0.82614426E+02</rscale>
<asrwt>0</asrwt>
<pdfrwt beam="2">  1        2 0.33965725E+00 0.69859899E+02</pdfrwt>
<pdfrwt beam="1">  1       -2 0.12786198E-01 0.97697585E+02</pdfrwt>
<totfact> 0.28708420E+02</totfact>
</mgrwt>
</event>
<event>
 7    1  0.5277388E-004  0.1051965E+03  0.7546771E-02  0.1410854E+00
          2   -1    0    0  503    0  0.00000000000E+00  0.00000000000E+00  0.10457280046E+03  0.10457280046E+03  0.00000000000E+00 0. -1.
         -2   -1    0    0    0  501 -0.00000000000E+00 -0.00000000000E+00 -0.24063980165E+03  0.24063980165E+03  0.00000000000E+00 0.  1.
         25    2    1    2    0    0  0.81957059101E+02 -0.84590303594E+02 -0.66037606881E+02  0.18400729244E+03  0.12500095660E+03 0.  0.
          4    1    3    3  502    0  0.46848920918E+02  0.27261719467E+02 -0.15941595323E+02  0.56513450619E+02  0.12700000000E+01 0.  1.
         -4    1    3    3    0  502  0.35108138183E+02 -0.11185202306E+03 -0.50096011558E+02  0.12749384183E+03  0.12700000000E+01 0.  1.
          1    1    1    2  503    0 -0.51102417018E+02  0.86047004229E+02 -0.19465789419E+02  0.10195322908E+03  0.00000000000E+00 0. -1.
         -1    1    1    2    0  501 -0.30854642083E+02 -0.14567006352E+01 -0.50563604891E+02  0.59252080591E+02  0.00000000000E+00 0.  1.
<mgrwt>
<rscale>  0 0.57003659E+02</rscale>
<asrwt>0</asrwt>
<pdfrwt beam="1">  1        2 0.16088123E-01 0.10519655E+03</pdfrwt>
<pdfrwt beam="2">  1       -2 0.37021508E-01 0.30889010E+02</pdfrwt>
<totfact> 0.23042333E+03</totfact>
</mgrwt>
</event>
<event>
 7    1  0.5277388E-004  0.3485313E+02  0.7546771E-02  0.1593153E+00
          1   -1    0    0  503    0  0.00000000000E+00  0.00000000000E+00  0.34766094894E+03  0.34766094894E+03  0.00000000000E+00 0. -1.
         -1   -1    0    0    0  501 -0.00000000000E+00 -0.00000000000E+00 -0.17906634779E+03  0.17906634779E+03  0.00000000000E+00 0.  1.
         25    2    1    2    0    0  0.40810802253E+01 -0.30184244168E+02 -0.94846140334E+02  0.15984114014E+03  0.12500262370E+03 0.  0.
          4    1    3    3  502    0 -0.48099278938E+02  0.19894553545E+02 -0.60337491840E+02  0.79696673184E+02  0.12700000000E+01 0. -1.
         -4    1    3    3    0  502  0.52180359163E+02 -0.50078797713E+02 -0.34508648494E+02  0.80144466956E+02  0.12700000000E+01 0. -1.
          2    1    1    2  503    0 -0.26603203497E+02  0.33757989177E+00  0.30775616750E+03  0.30890403531E+03  0.00000000000E+00 0. -1.
         -2    1    1    2    0  501  0.22522123272E+02  0.29846664276E+02 -0.44315426020E+02  0.57982121282E+02  0.00000000000E+00 0.  1.
<mgrwt>
<rscale>  0 0.30451265E+02</rscale>
<asrwt>0</asrwt>
<pdfrwt beam="1">  1        1 0.53486300E-01 0.26605345E+02</pdfrwt>
<pdfrwt beam="2">  1       -1 0.27548669E-01 0.34853130E+02</pdfrwt>
<totfact> 0.83020760E+02</totfact>
</mgrwt>
</event>
<event>
 7    1  0.5277388E-004  0.1301305E+03  0.7546771E-02  0.1252793E+00
          2   -1    0    0  503    0  0.00000000000E+00  0.00000000000E+00  0.16522213017E+04  0.16522213017E+04  0.00000000000E+00 0. -1.
          1   -1    0    0  502    0 -0.00000000000E+00 -0.00000000000E+00 -0.53052548352E+03  0.53052548352E+03  0.00000000000E+00 0. -1.
         25    2    1    2    0    0 -0.82305674344E+02 -0.21158833989E+03  0.96584833316E+02  0.27658088723E+03  0.12499803017E+03 0.  0.
          4    1    3    3  501    0  0.56948111109E+01 -0.81676043300E+02  0.86846394241E+02  0.11936212136E+03  0.12700000000E+01 0. -1.
         -4    1    3    3    0  501 -0.88000485455E+02 -0.12991229659E+03  0.97384390751E+01  0.15721876587E+03  0.12700000000E+01 0. -1.
          2    1    1    2  502    0  0.43537733486E+02  0.90480653476E+02 -0.43200048625E+03  0.44351629396E+03  0.00000000000E+00 0. -1.
          1    1    1    2  503    0  0.38767940858E+02  0.12110768641E+03  0.14571114711E+04  0.14626496040E+04  0.00000000000E+00 0. -1.
<mgrwt>
<rscale>  0 0.11430870E+03</rscale>
<asrwt>0</asrwt>
<pdfrwt beam="1">  1        2 0.25418789E+00 0.13013052E+03</pdfrwt>
<pdfrwt beam="2">  1        1 0.81619306E-01 0.10041057E+03</pdfrwt>
<totfact> 0.70862058E+01</totfact>
</mgrwt>
</event>
<event>
 7    1  0.5277388E-004  0.7637900E+02  0.7546771E-02  0.1346233E+00
          2   -1    0    0  503    0  0.00000000000E+00  0.00000000000E+00  0.16536942962E+04  0.16536942962E+04  0.00000000000E+00 0. -1.
          1   -1    0    0  502    0 -0.00000000000E+00 -0.00000000000E+00 -0.55488314384E+02  0.55488314384E+02  0.00000000000E+00 0. -1.
         25    2    1    2    0    0  0.21710991798E+02  0.14376097537E+03  0.31562653455E+03  0.36930236987E+03  0.12500218349E+03 0.  0.
          4    1    3    3  501    0 -0.34094490804E+02  0.56584374801E+02  0.21505040297E+03  0.22497225272E+03  0.12700000000E+01 0.  1.
         -4    1    3    3    0  501  0.55805482602E+02  0.87176600564E+02  0.10057613158E+03  0.14433011715E+03  0.12700000000E+01 0.  1.
          2    1    1    2  502    0 -0.53377482815E+01 -0.71968189939E+02  0.19632836887E+02  0.74788770575E+02  0.00000000000E+00 0. -1.
          1    1    1    2  503    0 -0.16373243516E+02 -0.71792785426E+02  0.12629466104E+04  0.12650914701E+04  0.00000000000E+00 0. -1.
<mgrwt>
<rscale>  0 0.74242551E+02</rscale>
<asrwt>0</asrwt>
<pdfrwt beam="1">  1        2 0.25441447E+00 0.76378998E+02</pdfrwt>
<pdfrwt beam="2">  1        1 0.85366650E-02 0.72165864E+02</pdfrwt>
<totfact> 0.12510243E+03</totfact>
</mgrwt>
</event>
<event>
 7    1  0.5277388E-004  0.6113246E+02  0.7546771E-02  0.1515155E+00
          2   -1    0    0  503    0  0.00000000000E+00  0.00000000000E+00  0.12799719554E+04  0.12799719554E+04  0.00000000000E+00 0. -1.
          1   -1    0    0  502    0 -0.00000000000E+00 -0.00000000000E+00 -0.11062426167E+03  0.11062426167E+03  0.00000000000E+00 0. -1.
         25    2    1    2    0    0 -0.29338015296E+02 -0.43009760729E+02  0.13424395143E+03  0.19067474128E+03  0.12499943923E+03 0.  0.
          4    1    3    3  501    0  0.46256873038E+02 -0.32526756221E+02  0.39404849288E+02  0.68935065249E+02  0.12700000000E+01 0.  1.
         -4    1    3    3    0  501 -0.75594888335E+02 -0.10483004508E+02  0.94839102143E+02  0.12173967603E+03  0.12700000000E+01 0.  1.
          2    1    1    2  502    0  0.52361098965E+02  0.33337801404E+02 -0.70558895806E+02  0.93976866646E+02  0.00000000000E+00 0. -1.
          1    1    1    2  503    0 -0.23023083668E+02  0.96719593246E+01  0.11056626381E+04  0.11059446091E+04  0.00000000000E+00 0. -1.
<mgrwt>
<rscale>  0 0.39071858E+02</rscale>
<asrwt>0</asrwt>
<pdfrwt beam="1">  1        2 0.19691875E+00 0.24972168E+02</pdfrwt>
<pdfrwt beam="2">  1        1 0.17019118E-01 0.61132461E+02</pdfrwt>
<totfact> 0.86121790E+02</totfact>
</mgrwt>
</event>
<event>
 7    1  0.5277388E-004  0.4542807E+02  0.7546771E-02  0.1478840E+00
         -1   -1    0    0    0  502 -0.00000000000E+00  0.00000000000E+00  0.89018650194E+03  0.89018650194E+03  0.00000000000E+00 0.  1.
         -2   -1    0    0    0  501  0.00000000000E+00 -0.00000000000E+00 -0.81900186674E+02  0.81900186674E+02  0.00000000000E+00 0.  1.
         25    2    1    2    0    0 -0.29175322770E+02  0.81156955818E+02  0.30900725426E+03  0.34431068385E+03  0.12500685139E+03 0.  0.
          4    1    3    3  503    0  0.47600557560E+02  0.17041932733E+02  0.12552697565E+03  0.13533246125E+03  0.12700000000E+01 0.  1.
         -4    1    3    3    0  503 -0.76775880330E+02  0.64115023084E+02  0.18348027861E+03  0.20897822260E+03  0.12700000000E+01 0.  1.
         -2    1    1    2    0  502  0.10655953672E+02 -0.42155191886E+02  0.55532698186E+03  0.55702662983E+03  0.00000000000E+00 0.  1.
         -1    1    1    2    0  501  0.18519369098E+02 -0.39001763931E+02 -0.56047920854E+02  0.70749374934E+02  0.00000000000E+00 0.  1.
<mgrwt>
<rscale>  0 0.44287351E+02</rscale>
<asrwt>0</asrwt>
<pdfrwt beam="2">  1       -2 0.12600029E-01 0.43175278E+02</pdfrwt>
<pdfrwt beam="1">  1       -1 0.13695176E+00 0.45428068E+02</pdfrwt>
<totfact> 0.16225834E+02</totfact>
</mgrwt>
</event>
<event>
 7    1  0.5277388E-004  0.7001440E+02  0.7546771E-02  0.1484433E+00
          1   -1    0    0  502    0 -0.00000000000E+00  0.00000000000E+00  0.54062144399E+02  0.54062144399E+02  0.00000000000E+00 0. -1.
          2   -1    0    0  503    0  0.00000000000E+00 -0.00000000000E+00 -0.86882639163E+03  0.86882639163E+03  0.00000000000E+00 0. -1.
         25    2    1    2    0    0  0.61675622288E+02 -0.44945460485E+02 -0.71942344923E+02  0.16316891964E+03  0.12499767414E+03 0.  0.
          4    1    3    3  501    0  0.83011660764E+02  0.13375402806E+02 -0.46039848426E+02  0.95870317440E+02  0.12700000000E+01 0.  1.
         -4    1    3    3    0  501 -0.21336038476E+02 -0.58320863291E+02 -0.25902496497E+02  0.67298602197E+02  0.12700000000E+01 0.  1.
          2    1    1    2  502    0 -0.23283536848E+02 -0.13533800197E+02 -0.20062425835E+02  0.33582551516E+02  0.00000000000E+00 0. -1.
          1    1    1    2  503    0 -0.38392085439E+02  0.58479260682E+02 -0.72275947647E+03  0.72613706488E+03  0.00000000000E+00 0. -1.
<mgrwt>
<rscale>  0 0.43423132E+02</rscale>
<asrwt>0</asrwt>
<pdfrwt beam="2">  1        2 0.13366560E+00 0.70014402E+02</pdfrwt>
<pdfrwt beam="1">  1        1 0.83172527E-02 0.26931150E+02</pdfrwt>
<totfact> 0.31611963E+03</totfact>
</mgrwt>
</event>
<event>
 7    1  0.5277388E-004  0.1179228E+03  0.7546771E-02  0.1349749E+00
         -2   -1    0    0    0  501 -0.00000000000E+00  0.00000000000E+00  0.19727477415E+03  0.19727477415E+03  0.00000000000E+00 0.  1.
          2   -1    0    0  503    0  0.00000000000E+00 -0.00000000000E+00 -0.11241655806E+04  0.11241655806E+04  0.00000000000E+00 0. -1.
         25    2    1    2    0    0 -0.77346736448E+02 -0.13429449735E+03 -0.36004948954E+03  0.41143502774E+03  0.12500246990E+03 0.  0.
          4    1    3    3  502    0  0.44727165767E+01 -0.17223070246E+02 -0.18339141405E+03  0.18425705682E+03  0.12700000000E+01 0.  1.
         -4    1    3    3    0  502 -0.81819453024E+02 -0.11707142710E+03 -0.17665807549E+03  0.22717797092E+03  0.12700000000E+01 0.  1.
          1    1    1    2  503    0  0.45072549912E+02  0.10242624130E+03 -0.73109225646E+03  0.73960702884E+03  0.00000000000E+00 0. -1.
         -1    1    1    2    0  501  0.32274186535E+02  0.31868256053E+02  0.16425093956E+03  0.17039829814E+03  0.00000000000E+00 0.  1.
<mgrwt>
<rscale>  0 0.73133865E+02</rscale>
<asrwt>0</asrwt>
<pdfrwt beam="2">  1        2 0.17294855E+00 0.11792282E+03</pdfrwt>
<pdfrwt beam="1">  1       -2 0.30349966E-01 0.45356464E+02</pdfrwt>
<totfact> 0.22563750E+02</totfact>
</mgrwt>
</event>
<event>
 7    1  0.5277388E-004  0.6896660E+02  0.7546771E-02  0.1428118E+00
          1   -1    0    0  502    0 -0.00000000000E+00  0.00000000000E+00  0.34435011427E+03  0.34435011427E+03  0.00000000000E+00 0. -1.
          2   -1    0    0  503    0  0.00000000000E+00 -0.00000000000E+00 -0.15326923898E+04  0.15326923898E+04  0.00000000000E+00 0. -1.
         25    2    1    2    0    0 -0.60479543138E+02  0.30494929018E+02  0.75184487874E+02  0.16083911931E+03  0.12501519608E+03 0.  0.
          4    1    3    3  501    0 -0.15511276467E+02  0.39628415834E+02 -0.25890143032E+02  0.49828941844E+02  0.12700000000E+01 0.  1.
         -4    1    3    3    0  501 -0.44968266671E+02 -0.91334868159E+01  0.10107463091E+03  0.11101017747E+03  0.12700000000E+01 0.  1.
          2    1    1    2  502    0  0.69842233366E+02  0.96820536603E+01  0.22055329338E+03  0.23155007006E+03  0.00000000000E+00 0. -1.
          1    1    1    2  503    0 -0.93626902279E+01 -0.40176982678E+02 -0.14840800568E+04  0.14846533147E+04  0.00000000000E+00 0. -1.
<mgrwt>
<rscale>  0 0.53339595E+02</rscale>
<asrwt>0</asrwt>
<pdfrwt beam="2">  1        2 0.23579883E+00 0.41253484E+02</pdfrwt>
<pdfrwt beam="1">  1        1 0.52976941E-01 0.68966598E+02</pdfrwt>
<totfact> 0.15570049E+02</totfact>
</mgrwt>
</event>
<event>
 7    1  0.5277388E-004  0.6379516E+03  0.7546771E-02  0.1130452E+00
          2   -1    0    0  503    0  0.00000000000E+00  0.00000000000E+00  0.12263476727E+04  0.12263476727E+04  0.00000000000E+00 0. -1.
          1   -1    0    0  502    0 -0.00000000000E+00 -0.00000000000E+00 -0.24558785840E+04  0.24558785840E+04  0.00000000000E+00 0. -1.
         25    2    1    2    0    0 -0.57353264391E+03  0.10298656521E+03  0.11081346344E+03  0.60617852544E+03  0.12500741893E+03 0.  0.
          4    1    3    3  501    0 -0.40426729461E+03  0.92003635656E+02  0.13228622418E+03  0.43519877352E+03  0.12700000000E+01 0.  1.
         -4    1    3    3    0  501 -0.16926534929E+03  0.10982929554E+02 -0.21472760738E+02  0.17097975192E+03  0.12700000000E+01 0.  1.
          2    1    1    2  502    0  0.62435283284E+03 -0.16362718084E+03 -0.21590841618E+04  0.22534938943E+04  0.00000000000E+00 0. -1.
          1    1    1    2  503    0 -0.50820188935E+02  0.60640615630E+02  0.81873978704E+03  0.82255383699E+03  0.00000000000E+00 0. -1.
<mgrwt>
<rscale>  0 0.22466584E+03</rscale>
<asrwt>0</asrwt>
<pdfrwt beam="1">  1        2 0.18866887E+00 0.79120009E+02</pdfrwt>
<pdfrwt beam="2">  1        1 0.37782747E+00 0.63795163E+03</pdfrwt>
<totfact> 0.43925378E+00</totfact>
</mgrwt>
</event>
<event>
 7    1  0.6770932E-004  0.7100020E+02  0.7546771E-02  0.1381762E+00
          1   -1    0    0  502    0 -0.00000000000E+00  0.00000000000E+00  0.47938136800E+03  0.47938136800E+03  0.00000000000E+00 0. -1.
          2   -1    0    0  503    0  0.00000000000E+00 -0.00000000000E+00 -0.20693530650E+04  0.20693530650E+04  0.00000000000E+00 0. -1.
         25    2    1    2    0    0 -0.32475767166E+02 -0.53854968308E+02  0.82622050710E+02  0.16250521914E+03  0.12500603954E+03 0.  0.
          4    1    3    3  501    0 -0.13212123660E+02  0.14521027333E+02  0.89020628744E+02  0.91168556468E+02  0.12700000000E+01 0.  1.
         -4    1    3    3    0  501 -0.19263643506E+02 -0.68375995641E+02 -0.63985780344E+01  0.71336662676E+02  0.12700000000E+01 0.  1.
          2    1    1    2  502    0 -0.37921934470E+02  0.43481911886E+02  0.35385692049E+03  0.35852959425E+03  0.00000000000E+00 0. -1.
          1    1    1    2  503    0  0.70397701636E+02  0.10373056421E+02 -0.20264506682E+04  0.20276996196E+04  0.00000000000E+00 0. -1.
<mgrwt>
<rscale>  0 0.64002964E+02</rscale>
<asrwt>0</asrwt>
<pdfrwt beam="2">  1        2 0.31836202E+00 0.71000204E+02</pdfrwt>
<pdfrwt beam="1">  1        1 0.73750978E-01 0.57695318E+02</pdfrwt>
<totfact> 0.53582286E+01</totfact>
</mgrwt>
</event>
<event>
 7    1  0.5277388E-004  0.4010557E+02  0.7546771E-02  0.1572160E+00
         -1   -1    0    0    0  501 -0.00000000000E+00  0.00000000000E+00  0.14030996827E+02  0.14030996827E+02  0.00000000000E+00 0.  1.
          1   -1    0    0  503    0  0.00000000000E+00 -0.00000000000E+00 -0.24756684328E+04  0.24756684328E+04  0.00000000000E+00 0. -1.
         25    2    1    2    0    0 -0.72281076281E+01 -0.49570781979E+02 -0.12633391726E+04  0.12704974355E+04  0.12501344258E+03 0.  0.
          4    1    3    3  502    0  0.33916198840E+02  0.21760759349E+02 -0.70112164275E+03  0.70227986589E+03  0.12700000000E+01 0. -1.
         -4    1    3    3    0  502 -0.41144306468E+02 -0.71331541328E+02 -0.56221752980E+03  0.56821756965E+03  0.12700000000E+01 0. -1.
          2    1    1    2  503    0  0.25449475495E+02  0.30593045311E+02 -0.11913181524E+04  0.11919826134E+04  0.00000000000E+00 0. -1.
         -2    1    1    2    0  501 -0.18221367867E+02  0.18977736668E+02 -0.69801109286E+01  0.27219380679E+02  0.00000000000E+00 0.  1.
<mgrwt>
<rscale>  0 0.32482987E+02</rscale>
<asrwt>0</asrwt>
<pdfrwt beam="2">  1        1 0.38087198E+00 0.40105569E+02</pdfrwt>
<pdfrwt beam="1">  1       -1 0.21586154E-02 0.26309176E+02</pdfrwt>
<totfact> 0.97285933E+02</totfact>
</mgrwt>
</event>
<event>
 7    1  0.5277388E-004  0.2034473E+03  0.7546771E-02  0.1197801E+00
          2   -1    0    0  503    0  0.00000000000E+00  0.00000000000E+00  0.76809754811E+03  0.76809754811E+03  0.00000000000E+00 0. -1.
          1   -1    0    0  502    0 -0.00000000000E+00 -0.00000000000E+00 -0.54909808162E+03  0.54909808162E+03  0.00000000000E+00 0. -1.
         25    2    1    2    0    0  0.27075495539E+03 -0.11513561469E+03  0.17553257616E+02  0.32015090632E+03  0.12499612123E+03 0.  0.
          4    1    3    3  501    0  0.12921226651E+03  0.10027594765E+02  0.20268484469E+02  0.13118226570E+03  0.12700000000E+01 0. -1.
         -4    1    3    3    0  501  0.14154268889E+03 -0.12516320946E+03 -0.27152268529E+01  0.18896864062E+03  0.12700000000E+01 0. -1.
          2    1    1    2  502    0 -0.11385508053E+03  0.10571707568E+00 -0.37329342743E+03  0.39027038512E+03  0.00000000000E+00 0. -1.
          1    1    1    2  503    0 -0.15689987486E+03  0.11502989762E+03  0.57473963630E+03  0.60677433829E+03  0.00000000000E+00 0. -1.
<mgrwt>
<rscale>  0 0.15219568E+03</rscale>
<asrwt>0</asrwt>
<pdfrwt beam="1">  1        2 0.11816885E+00 0.20344735E+03</pdfrwt>
<pdfrwt beam="2">  1        1 0.84476628E-01 0.11385513E+03</pdfrwt>
<totfact> 0.21069729E+02</totfact>
</mgrwt>
</event>
<event>
 7    1  0.5277388E-004  0.1129763E+03  0.7546771E-02  0.1279014E+00
          2   -1    0    0  503    0  0.00000000000E+00  0.00000000000E+00  0.82432429395E+03  0.82432429395E+03  0.00000000000E+00 0. -1.
          1   -1    0    0  502    0 -0.00000000000E+00 -0.00000000000E+00 -0.24611224373E+03  0.24611224373E+03  0.00000000000E+00 0. -1.
         25    2    1    2    0    0 -0.12497413713E+03  0.70008468276E+01  0.35939018494E+03  0.40056716985E+03  0.12500082289E+03 0.  0.
          4    1    3    3  501    0  0.13671097713E+02  0.27194574812E+02  0.30656411080E+02  0.43218887678E+02  0.12700000000E+01 0.  1.
         -4    1    3    3    0  501 -0.13864523484E+03 -0.20193727984E+02  0.32873377386E+03  0.35734828217E+03  0.12700000000E+01 0.  1.
          2    1    1    2  502    0  0.34641394080E+02 -0.82633929930E+02 -0.20832275124E+03  0.22677469269E+03  0.00000000000E+00 0. -1.
          1    1    1    2  503    0  0.90332743045E+02  0.75633083103E+02  0.42714461651E+03  0.44309467514E+03  0.00000000000E+00 0. -1.
<mgrwt>
<rscale>  0 0.10061225E+03</rscale>
<asrwt>0</asrwt>
<pdfrwt beam="1">  1        2 0.12681912E+00 0.11297632E+03</pdfrwt>
<pdfrwt beam="2">  1        1 0.37863423E-01 0.89601298E+02</pdfrwt>
<totfact> 0.53826888E+02</totfact>
</mgrwt>
</event>
<event>
 7    1  0.5277388E-004  0.5820060E+02  0.7546771E-02  0.1427616E+00
          1   -1    0    0  502    0 -0.00000000000E+00  0.00000000000E+00  0.10412945992E+04  0.10412945992E+04  0.00000000000E+00 0. -1.
          2   -1    0    0  503    0  0.00000000000E+00 -0.00000000000E+00 -0.60183252907E+03  0.60183252907E+03  0.00000000000E+00 0. -1.
         25    2    1    2    0    0 -0.10385463625E+02  0.31244992678E+02  0.24300424366E+02  0.13152319730E+03  0.12499493342E+03 0.  0.
          4    1    3    3  501    0 -0.14260857105E+02  0.29046840062E+02 -0.48640879825E+02  0.58434912964E+02  0.12700000000E+01 0.  1.
         -4    1    3    3    0  501  0.38753934808E+01  0.21981526160E+01  0.72941304191E+02  0.73088284332E+02  0.12700000000E+01 0.  1.
          2    1    1    2  502    0 -0.46520035975E+02 -0.15617148393E+02  0.96116698129E+03  0.96241881475E+03  0.00000000000E+00 0. -1.
          1    1    1    2  503    0  0.56905499599E+02 -0.15627844285E+02 -0.54600533555E+03  0.54918511620E+03  0.00000000000E+00 0. -1.
<mgrwt>
<rscale>  0 0.53441453E+02</rscale>
<asrwt>0</asrwt>
<pdfrwt beam="2">  1        2 0.92589620E-01 0.58200599E+02</pdfrwt>
<pdfrwt beam="1">  1        1 0.16019917E+00 0.49071469E+02</pdfrwt>
<totfact> 0.11926662E+02</totfact>
</mgrwt>
</event>
<event>
 7    1  0.5277388E-004  0.5071309E+02  0.7546771E-02  0.1514733E+00
          2   -1    0    0  503    0  0.00000000000E+00  0.00000000000E+00  0.89113906590E+02  0.89113906590E+02  0.00000000000E+00 0. -1.
          1   -1    0    0  502    0 -0.00000000000E+00 -0.00000000000E+00 -0.11116064894E+04  0.11116064894E+04  0.00000000000E+00 0. -1.
         25    2    1    2    0    0  0.58654931197E+02 -0.27336649122E+02 -0.62504474235E+02  0.15401503714E+03  0.12500451602E+03 0.  0.
          4    1    3    3  501    0  0.29979997906E+02  0.42601273387E+02  0.54126115107E+01  0.52388720466E+02  0.12700000000E+01 0.  1.
         -4    1    3    3    0  501  0.28674933291E+02 -0.69937922509E+02 -0.67917085746E+02  0.10162631667E+03  0.12700000000E+01 0.  1.
          2    1    1    2  502    0 -0.90298046437E+01  0.28806466866E+02 -0.98882868415E+03  0.98928939978E+03  0.00000000000E+00 0. -1.
          1    1    1    2  503    0 -0.49625126553E+02 -0.14698177446E+01  0.28840575621E+02  0.57415959034E+02  0.00000000000E+00 0. -1.
<mgrwt>
<rscale>  0 0.39127428E+02</rscale>
<asrwt>0</asrwt>
<pdfrwt beam="1">  1        2 0.13709832E-01 0.50713086E+02</pdfrwt>
<pdfrwt beam="2">  1        1 0.17101638E+00 0.30188572E+02</pdfrwt>
<totfact> 0.84386524E+02</totfact>
</mgrwt>
</event>
<event>
 7    1  0.5277388E-004  0.9023402E+02  0.7546771E-02  0.1346266E+00
         -1   -1    0    0    0  501 -0.00000000000E+00  0.00000000000E+00  0.11522686333E+03  0.11522686333E+03  0.00000000000E+00 0.  1.
          1   -1    0    0  503    0  0.00000000000E+00 -0.00000000000E+00 -0.53283291349E+03  0.53283291349E+03  0.00000000000E+00 0. -1.
         25    2    1    2    0    0  0.11557702189E+03 -0.77019542322E+02 -0.15842532169E+03  0.24497924391E+03  0.12500475794E+03 0.  0.
          4    1    3    3  502    0  0.26077292416E+02 -0.87342705429E+02 -0.10939876571E+03  0.14240251476E+03  0.12700000000E+01 0.  1.
         -4    1    3    3    0  502  0.89499729471E+02  0.10323163107E+02 -0.49026555979E+02  0.10257672915E+03  0.12700000000E+01 0.  1.
          2    1    1    2  503    0 -0.59471172935E+02  0.13872583776E+02 -0.30218411728E+03  0.30829289600E+03  0.00000000000E+00 0. -1.
         -2    1    1    2    0  501 -0.56105848953E+02  0.63146958546E+02  0.43003388804E+02  0.94787636899E+02  0.00000000000E+00 0.  1.
<mgrwt>
<rscale>  0 0.74231986E+02</rscale>
<asrwt>0</asrwt>
<pdfrwt beam="2">  1        1 0.81974293E-01 0.61067741E+02</pdfrwt>
<pdfrwt beam="1">  1       -1 0.17727210E-01 0.90234019E+02</pdfrwt>
<totfact> 0.10199797E+03</totfact>
</mgrwt>
</event>
<event>
 7    1  0.5277388E-004  0.2100095E+03  0.7546771E-02  0.1347754E+00
          2   -1    0    0  503    0  0.00000000000E+00  0.00000000000E+00  0.16044713376E+04  0.16044713376E+04  0.00000000000E+00 0. -1.
          1   -1    0    0  502    0 -0.00000000000E+00 -0.00000000000E+00 -0.13879238243E+03  0.13879238243E+03  0.00000000000E+00 0. -1.
         25    2    1    2    0    0 -0.20626617363E+03 -0.91448780426E+02  0.24021856273E+03  0.35247620876E+03  0.12500362409E+03 0.  0.
          4    1    3    3  501    0 -0.20325640969E+03 -0.56440904085E+02  0.15959712672E+03  0.26452145374E+03  0.12700000000E+01 0. -1.
         -4    1    3    3    0  501 -0.30097639383E+01 -0.35007876340E+02  0.80621436014E+02  0.87954755015E+02  0.12700000000E+01 0. -1.
          2    1    1    2  502    0  0.18049068542E+03  0.94049535072E+02  0.42967154841E+02  0.20801052609E+03  0.00000000000E+00 0. -1.
          1    1    1    2  503    0  0.25775488212E+02 -0.26007546468E+01  0.11824932375E+04  0.11827769851E+04  0.00000000000E+00 0. -1.
<mgrwt>
<rscale>  0 0.73760303E+02</rscale>
<asrwt>0</asrwt>
<pdfrwt beam="1">  1        2 0.24684173E+00 0.25906364E+02</pdfrwt>
<pdfrwt beam="2">  1        1 0.21352675E-01 0.21000948E+03</pdfrwt>
<totfact> 0.46954961E+02</totfact>
</mgrwt>
</event>
<event>
 7    1  0.5277388E-004  0.1865124E+03  0.7546771E-02  0.1258483E+00
         -1   -1    0    0    0  501 -0.00000000000E+00  0.00000000000E+00  0.19587826364E+03  0.19587826364E+03  0.00000000000E+00 0.  1.
          1   -1    0    0  503    0  0.00000000000E+00 -0.00000000000E+00 -0.35335200814E+03  0.35335200814E+03  0.00000000000E+00 0. -1.
         25    2    1    2    0    0 -0.31557680130E+02 -0.13460250614E+03  0.39560321197E+02  0.19053460493E+03  0.12499877931E+03 0.  0.
          4    1    3    3  502    0 -0.66636651628E+02 -0.11684796189E+03 -0.31794572484E+00  0.13451990011E+03  0.12700000000E+01 0.  1.
         -4    1    3    3    0  502  0.35078971498E+02 -0.17754544254E+02  0.39878266922E+02  0.56014704817E+02  0.12700000000E+01 0.  1.
          2    1    1    2  503    0  0.55625408796E+02  0.19629413600E+03 -0.20824509545E+03  0.29153317772E+03  0.00000000000E+00 0. -1.
         -2    1    1    2    0  501 -0.24067728666E+02 -0.61691629855E+02  0.11211029754E+02  0.67162489125E+02  0.00000000000E+00 0.  1.
<mgrwt>
<rscale>  0 0.11113454E+03</rscale>
<asrwt>0</asrwt>
<pdfrwt beam="2">  1        1 0.54361847E-01 0.18651242E+03</pdfrwt>
<pdfrwt beam="1">  1       -1 0.30135118E-01 0.66220184E+02</pdfrwt>
<totfact> 0.71056683E+02</totfact>
</mgrwt>
</event>
<event>
 7    1  0.5277388E-004  0.1518145E+03  0.7546771E-02  0.1268651E+00
          1   -1    0    0  502    0 -0.00000000000E+00  0.00000000000E+00  0.22809058173E+04  0.22809058173E+04  0.00000000000E+00 0. -1.
          2   -1    0    0  503    0  0.00000000000E+00 -0.00000000000E+00 -0.26586945350E+04  0.26586945350E+04  0.00000000000E+00 0. -1.
         25    2    1    2    0    0  0.68212119333E+02  0.78728764952E+02 -0.56859772514E+03  0.59142626451E+03  0.12502216469E+03 0.  0.
          4    1    3    3  501    0  0.37906673399E+02 -0.12481749526E+02 -0.35449117096E+03  0.35673283161E+03  0.12700000000E+01 0.  1.
         -4    1    3    3    0  501  0.30305445935E+02  0.91210514477E+02 -0.21410655418E+03  0.23469343290E+03  0.12700000000E+01 0.  1.
          2    1    1    2  502    0 -0.10930095131E+00  0.73661327147E+02  0.22655412188E+04  0.22667384095E+04  0.00000000000E+00 0. -1.
          1    1    1    2  503    0 -0.68102818382E+02 -0.15239009210E+03 -0.20747322113E+04  0.20814356782E+04  0.00000000000E+00 0. -1.
<mgrwt>
<rscale>  0 0.10574909E+03</rscale>
<asrwt>0</asrwt>
<pdfrwt beam="2">  1        2 0.40902993E+00 0.15181451E+03</pdfrwt>
<pdfrwt beam="1">  1        1 0.35090859E+00 0.73661408E+02</pdfrwt>
<totfact> 0.12836619E+00</totfact>
</mgrwt>
</event>
<event>
 7    1  0.5277388E-004  0.1242486E+03  0.7546771E-02  0.1352366E+00
          2   -1    0    0  503    0  0.00000000000E+00  0.00000000000E+00  0.38988744633E+03  0.38988744633E+03  0.00000000000E+00 0. -1.
          1   -1    0    0  502    0 -0.00000000000E+00 -0.00000000000E+00 -0.14438056762E+04  0.14438056762E+04  0.00000000000E+00 0. -1.
         25    2    1    2    0    0 -0.99672111870E+02  0.10751658250E+03 -0.31000881797E+03  0.36499727225E+03  0.12499278434E+03 0.  0.
          4    1    3    3  501    0 -0.10895727215E+03  0.10486259437E+03 -0.31817606738E+03  0.35228606785E+03  0.12700000000E+01 0.  1.
         -4    1    3    3    0  501  0.92851602770E+01  0.26539881229E+01  0.81672494088E+01  0.12711204397E+02  0.12700000000E+01 0.  1.
          2    1    1    2  502    0 -0.51197921898E+01 -0.41785799176E+02 -0.10953303545E+04  0.10961390654E+04  0.00000000000E+00 0. -1.
          1    1    1    2  503    0  0.10479190406E+03 -0.65730783320E+02  0.35142094260E+03  0.37255678484E+03  0.00000000000E+00 0. -1.
<mgrwt>
<rscale>  0 0.72323252E+02</rscale>
<asrwt>0</asrwt>
<pdfrwt beam="1">  1        2 0.59982686E-01 0.12424861E+03</pdfrwt>
<pdfrwt beam="2">  1        1 0.22212394E+00 0.42098281E+02</pdfrwt>
<totfact> 0.10467279E+02</totfact>
</mgrwt>
</event>
<event>
 7    1  0.5277388E-004  0.5601101E+02  0.7546771E-02  0.1426528E+00
          2   -1    0    0  503    0  0.00000000000E+00  0.00000000000E+00  0.10479933330E+04  0.10479933330E+04  0.00000000000E+00 0. -1.
         -2   -1    0    0    0  501 -0.00000000000E+00 -0.00000000000E+00 -0.28088472459E+02  0.28088472459E+02  0.00000000000E+00 0.  1.
         25    2    1    2    0    0  0.34218166129E+01  0.34512925259E+00  0.34729478098E+03  0.36912095745E+03  0.12499915356E+03 0.  0.
          4    1    3    3  502    0 -0.42956420597E+02  0.20703760353E+02  0.56495294156E+02  0.73940725754E+02  0.12700000000E+01 0. -1.
         -4    1    3    3    0  502  0.46378237210E+02 -0.20358631101E+02  0.29079948682E+03  0.29518023169E+03  0.12700000000E+01 0. -1.
          1    1    1    2  503    0  0.47448521479E+02 -0.29763587445E+02  0.63439665259E+03  0.63686446451E+03  0.00000000000E+00 0. -1.
         -1    1    1    2    0  501 -0.50870338092E+02  0.29418458193E+02  0.38213426974E+02  0.70096383510E+02  0.00000000000E+00 0.  1.
<mgrwt>
<rscale>  0 0.53663221E+02</rscale>
<asrwt>0</asrwt>
<pdfrwt beam="1">  1        2 0.16122971E+00 0.56011011E+02</pdfrwt>
<pdfrwt beam="2">  1       -2 0.43213042E-02 0.51413843E+02</pdfrwt>
<totfact> 0.55383227E+03</totfact>
</mgrwt>
</event>
<event>
 7    1  0.5277388E-004  0.1567456E+03  0.7546771E-02  0.1351559E+00
         -2   -1    0    0    0  501 -0.00000000000E+00  0.00000000000E+00  0.21318480434E+03  0.21318480434E+03  0.00000000000E+00 0.  1.
          2   -1    0    0  503    0  0.00000000000E+00 -0.00000000000E+00 -0.94162037004E+03  0.94162037004E+03  0.00000000000E+00 0. -1.
         25    2    1    2    0    0  0.20676119678E+02 -0.18164083954E+03 -0.30370418839E+03  0.37587199880E+03  0.12499051531E+03 0.  0.
          4    1    3    3  502    0 -0.20244713062E+02 -0.11541343118E+03 -0.88000426963E+02  0.14654622666E+03  0.12700000000E+01 0. -1.
         -4    1    3    3    0  502  0.40920832740E+02 -0.66227408368E+02 -0.21570376143E+03  0.22932577214E+03  0.12700000000E+01 0. -1.
          1    1    1    2  503    0 -0.10411735997E+02  0.14964663515E+03 -0.59077578991E+03  0.60952321826E+03  0.00000000000E+00 0. -1.
         -1    1    1    2    0  501 -0.10264383681E+02  0.31994204392E+02  0.16604441259E+03  0.16940995732E+03  0.00000000000E+00 0.  1.
<mgrwt>
<rscale>  0 0.72572126E+02</rscale>
<asrwt>0</asrwt>
<pdfrwt beam="2">  1        2 0.14486467E+00 0.15674557E+03</pdfrwt>
<pdfrwt beam="1">  1       -2 0.32797663E-01 0.33600397E+02</pdfrwt>
<totfact> 0.24607042E+02</totfact>
</mgrwt>
</event>
<event>
 7    1  0.5277388E-004  0.5103583E+02  0.7546771E-02  0.1443857E+00
          2   -1    0    0  503    0  0.00000000000E+00  0.00000000000E+00  0.17555433532E+04  0.17555433532E+04  0.00000000000E+00 0. -1.
         -2   -1    0    0    0  501 -0.00000000000E+00 -0.00000000000E+00 -0.51553086869E+03  0.51553086869E+03  0.00000000000E+00 0.  1.
         25    2    1    2    0    0  0.10986010510E+00 -0.26411701342E+02 -0.12641172193E+03  0.17973689361E+03  0.12501134927E+03 0.  0.
          4    1    3    3  502    0 -0.52814694706E+02 -0.41134746485E+02 -0.95671668754E+02  0.11677388598E+03  0.12700000000E+01 0. -1.
         -4    1    3    3    0  502  0.52924554812E+02  0.14723045143E+02 -0.30740053176E+02  0.62963007628E+02  0.12700000000E+01 0. -1.
          1    1    1    2  503    0  0.49319149110E+02  0.45435612307E+01  0.17265086349E+04  0.17272188885E+04  0.00000000000E+00 0. -1.
         -1    1    1    2    0  501 -0.49429009215E+02  0.21868140112E+02 -0.36008442851E+03  0.36411843974E+03  0.00000000000E+00 0.  1.
<mgrwt>
<rscale>  0 0.50276260E+02</rscale>
<asrwt>0</asrwt>
<pdfrwt beam="1">  1        2 0.27008359E+00 0.49527996E+02</pdfrwt>
<pdfrwt beam="2">  1       -2 0.79312442E-01 0.51035829E+02</pdfrwt>
<totfact> 0.17849641E+01</totfact>
</mgrwt>
</event>
<event>
 7    1  0.5390068E-004  0.4241004E+02  0.7546771E-02  0.1520854E+00
          2   -1    0    0  503    0  0.00000000000E+00  0.00000000000E+00  0.87931704922E+03  0.87931704922E+03  0.00000000000E+00 0. -1.
          1   -1    0    0  502    0 -0.00000000000E+00 -0.00000000000E+00 -0.14642118415E+04  0.14642118415E+04  0.00000000000E+00 0. -1.
         25    2    1    2    0    0  0.18658385452E+02 -0.45786703021E+02 -0.99640150636E+03  0.10054280036E+04  0.12499980430E+03 0.  0.
          4    1    3    3  501    0  0.35630722262E+02 -0.43653694519E+02 -0.98024520919E+03  0.98186428617E+03  0.12700000000E+01 0. -1.
         -4    1    3    3    0  501 -0.16972336810E+02 -0.21330085025E+01 -0.16156297168E+02  0.23563717454E+02  0.12700000000E+01 0. -1.
          2    1    1    2  502    0 -0.34074159672E+02  0.62740481565E+01 -0.46213414452E+03  0.46343109473E+03  0.00000000000E+00 0. -1.
          1    1    1    2  503    0  0.15415774220E+02  0.39512654865E+02  0.87364085856E+03  0.87466979240E+03  0.00000000000E+00 0. -1.
<mgrwt>
<rscale>  0 0.38332480E+02</rscale>
<asrwt>0</asrwt>
<pdfrwt beam="1">  1        2 0.13527955E+00 0.42410038E+02</pdfrwt>
<pdfrwt beam="2">  1        1 0.22526336E+00 0.34646963E+02</pdfrwt>
<totfact> 0.42899868E+01</totfact>
</mgrwt>
</event>
<event>
 7    1  0.5277388E-004  0.1192942E+03  0.7546771E-02  0.1251872E+00
          1   -1    0    0  502    0 -0.00000000000E+00  0.00000000000E+00  0.40893400265E+03  0.40893400265E+03  0.00000000000E+00 0. -1.
          2   -1    0    0  503    0  0.00000000000E+00 -0.00000000000E+00 -0.67021916700E+03  0.67021916700E+03  0.00000000000E+00 0. -1.
         25    2    1    2    0    0 -0.76332502895E+02  0.76242978205E+02 -0.22798400490E+03  0.28150013309E+03  0.12500390280E+03 0.  0.
          4    1    3    3  501    0  0.15596552813E+02 -0.18020697020E+02 -0.79674532900E+02  0.83172363640E+02  0.12700000000E+01 0.  1.
         -4    1    3    3    0  501 -0.91929055707E+02  0.94263675226E+02 -0.14830947200E+03  0.19832776945E+03  0.12700000000E+01 0.  1.
          2    1    1    2  502    0  0.11883411278E+03  0.25799148000E+02  0.36477724960E+03  0.38451213794E+03  0.00000000000E+00 0. -1.
          1    1    1    2  503    0 -0.42501609883E+02 -0.10204212621E+03 -0.39807840905E+03  0.41314089862E+03  0.00000000000E+00 0. -1.
<mgrwt>
<rscale>  0 0.11483346E+03</rscale>
<asrwt>0</asrwt>
<pdfrwt beam="2">  1        2 0.10311064E+00 0.11053951E+03</pdfrwt>
<pdfrwt beam="1">  1        1 0.62912925E-01 0.11929421E+03</pdfrwt>
<totfact> 0.36921992E+02</totfact>
</mgrwt>
</event>
<event>
 7    1  0.5277388E-004  0.1319082E+03  0.7546771E-02  0.1246924E+00
          1   -1    0    0  502    0 -0.00000000000E+00  0.00000000000E+00  0.13709181871E+04  0.13709181871E+04  0.00000000000E+00 0. -1.
          2   -1    0    0  503    0  0.00000000000E+00 -0.00000000000E+00 -0.32932259763E+04  0.32932259763E+04  0.00000000000E+00 0. -1.
         25    2    1    2    0    0  0.88481357109E+02 -0.58307168205E+02  0.50670181041E+02  0.17152406251E+03  0.12499744138E+03 0.  0.
          4    1    3    3  501    0 -0.10259582252E+02 -0.42440878820E+02 -0.21012693766E+02  0.48473017466E+02  0.12700000000E+01 0. -1.
         -4    1    3    3    0  501  0.98740939361E+02 -0.15866289385E+02  0.71682874807E+02  0.12305104504E+03  0.12700000000E+01 0. -1.
          2    1    1    2  502    0 -0.13019597690E+03 -0.38093904189E+02  0.12553126563E+04  0.12626210845E+04  0.00000000000E+00 0. -1.
          1    1    1    2  503    0  0.41714619795E+02  0.96401072394E+02 -0.32282906265E+04  0.32299990164E+04  0.00000000000E+00 0. -1.
<mgrwt>
<rscale>  0 0.11770965E+03</rscale>
<asrwt>0</asrwt>
<pdfrwt beam="2">  1        2 0.50665015E+00 0.10503940E+03</pdfrwt>
<pdfrwt beam="1">  1        1 0.21091049E+00 0.13190823E+03</pdfrwt>
<totfact> 0.20681866E+00</totfact>
</mgrwt>
</event>
<event>
 7    1  0.5277388E-004  0.7338607E+02  0.7546771E-02  0.1511707E+00
         -1   -1    0    0    0  501 -0.00000000000E+00  0.00000000000E+00  0.24729264918E+02  0.24729264918E+02  0.00000000000E+00 0.  1.
          1   -1    0    0  503    0  0.00000000000E+00 -0.00000000000E+00 -0.65598325306E+03  0.65598325306E+03  0.00000000000E+00 0. -1.
         25    2    1    2    0    0 -0.56745320990E+02  0.23261467324E+02 -0.28019344985E+03  0.31288018527E+03  0.12499805470E+03 0.  0.
          4    1    3    3  502    0 -0.67181102394E+02  0.79442058937E+01 -0.28562095958E+03  0.29352573376E+03  0.12700000000E+01 0.  1.
         -4    1    3    3    0  502  0.10435781404E+02  0.15317261430E+02  0.54275097365E+01  0.19354451508E+02  0.12700000000E+01 0.  1.
          2    1    1    2  503    0 -0.19201275449E+02  0.92010630809E+01 -0.13224093732E+03  0.13394407058E+03  0.00000000000E+00 0. -1.
         -2    1    1    2    0  501  0.75946596439E+02 -0.32462530405E+02 -0.21881960098E+03  0.23388826214E+03  0.00000000000E+00 0.  1.
<mgrwt>
<rscale>  0 0.39528913E+02</rscale>
<asrwt>0</asrwt>
<pdfrwt beam="2">  1        1 0.10092051E+00 0.21291983E+02</pdfrwt>
<pdfrwt beam="1">  1       -1 0.38045021E-02 0.73386072E+02</pdfrwt>
<totfact> 0.79359821E+03</totfact>
</mgrwt>
</event>
<event>
 7    1  0.5277388E-004  0.1908114E+03  0.7546771E-02  0.1172407E+00
          2   -1    0    0  503    0  0.00000000000E+00  0.00000000000E+00  0.21226584798E+03  0.21226584798E+03  0.00000000000E+00 0. -1.
          1   -1    0    0  502    0 -0.00000000000E+00 -0.00000000000E+00 -0.14142590644E+04  0.14142590644E+04  0.00000000000E+00 0. -1.
         25    2    1    2    0    0  0.54204960312E+01 -0.19162865277E+03 -0.53277466371E+03  0.57984878004E+03  0.12499937233E+03 0.  0.
          4    1    3    3  501    0  0.61535653870E+02 -0.62887369452E+02 -0.22248854109E+03  0.23925764721E+03  0.12700000000E+01 0.  1.
         -4    1    3    3    0  501 -0.56115157838E+02 -0.12874128332E+03 -0.31028612262E+03  0.34059113282E+03  0.12700000000E+01 0.  1.
          2    1    1    2  502    0 -0.15911508370E+03  0.14336952878E+03 -0.80685157235E+03  0.83479452050E+03  0.00000000000E+00 0. -1.
          1    1    1    2  503    0  0.15369458767E+03  0.48259123992E+02  0.13763301966E+03  0.21188161182E+03  0.00000000000E+00 0. -1.
<mgrwt>
<rscale>  0 0.17532366E+03</rscale>
<asrwt>0</asrwt>
<pdfrwt beam="1">  1        2 0.32656284E-01 0.16109305E+03</pdfrwt>
<pdfrwt beam="2">  1        1 0.21757832E+00 0.19081138E+03</pdfrwt>
<totfact> 0.18195682E+02</totfact>
</mgrwt>
</event>
<event>
 7    1  0.5277388E-004  0.2283690E+03  0.7546771E-02  0.1194941E+00
          1   -1    0    0  502    0 -0.00000000000E+00  0.00000000000E+00  0.92268029191E+03  0.92268029191E+03  0.00000000000E+00 0. -1.
          2   -1    0    0  503    0  0.00000000000E+00 -0.00000000000E+00 -0.49679085449E+03  0.49679085449E+03  0.00000000000E+00 0. -1.
         25    2    1    2    0    0 -0.27426654263E+03 -0.68580143354E+02  0.48310935124E+03  0.57353779407E+03  0.12500233397E+03 0.  0.
          4    1    3    3  501    0 -0.18632286536E+03 -0.49985809260E+02  0.20607294130E+03  0.28228081996E+03  0.12700000000E+01 0.  1.
         -4    1    3    3    0  501 -0.87943677275E+02 -0.18594334095E+02  0.27703640994E+03  0.29125697410E+03  0.12700000000E+01 0.  1.
          2    1    1    2  502    0  0.20047322670E+03 -0.56222474734E+01  0.36200390900E+03  0.41384532669E+03  0.00000000000E+00 0. -1.
          1    1    1    2  503    0  0.73793315933E+02  0.74202390828E+02 -0.41922382282E+03  0.43208802564E+03  0.00000000000E+00 0. -1.
<mgrwt>
<rscale>  0 0.15459181E+03</rscale>
<asrwt>0</asrwt>
<pdfrwt beam="2">  1        2 0.76429363E-01 0.10464917E+03</pdfrwt>
<pdfrwt beam="1">  1        1 0.14195081E+00 0.22836903E+03</pdfrwt>
<totfact> 0.16134478E+02</totfact>
</mgrwt>
</event>
<event>
 7    1  0.5277388E-004  0.8229896E+02  0.7546771E-02  0.1323962E+00
          1   -1    0    0  502    0 -0.00000000000E+00  0.00000000000E+00  0.62994431605E+03  0.62994431605E+03  0.00000000000E+00 0. -1.
          2   -1    0    0  503    0  0.00000000000E+00 -0.00000000000E+00 -0.23849294388E+03  0.23849294388E+03  0.00000000000E+00 0. -1.
         25    2    1    2    0    0  0.18603297458E+02  0.11715959476E+02 -0.99100519188E+02  0.16102540953E+03  0.12499969292E+03 0.  0.
          4    1    3    3  501    0  0.15541469281E+02  0.29845708686E+01  0.28745657696E+02  0.32838554582E+02  0.12700000000E+01 0. -1.
         -4    1    3    3    0  501  0.30618281766E+01  0.87313886078E+01 -0.12784617688E+03  0.12818685495E+03  0.12700000000E+01 0. -1.
          2    1    1    2  502    0  0.25324224864E+02 -0.80181132989E+02  0.58025620028E+03  0.58631696924E+03  0.00000000000E+00 0. -1.
          1    1    1    2  503    0 -0.43927522321E+02  0.68465173513E+02 -0.89704308922E+02  0.12109488115E+03  0.00000000000E+00 0. -1.
<mgrwt>
<rscale>  0 0.81820893E+02</rscale>
<asrwt>0</asrwt>
<pdfrwt beam="2">  1        2 0.36691222E-01 0.81345603E+02</pdfrwt>
<pdfrwt beam="1">  1        1 0.96914510E-01 0.82298959E+02</pdfrwt>
<totfact> 0.64482105E+02</totfact>
</mgrwt>
</event>
<event>
 7    1  0.5277388E-004  0.2207743E+03  0.7546771E-02  0.1245643E+00
          2   -1    0    0  503    0  0.00000000000E+00  0.00000000000E+00  0.83509281016E+02  0.83509281016E+02  0.00000000000E+00 0. -1.
          1   -1    0    0  502    0 -0.00000000000E+00 -0.00000000000E+00 -0.23611965063E+04  0.23611965063E+04  0.00000000000E+00 0. -1.
         25    2    1    2    0    0 -0.23935846879E+03 -0.11852778888E+03 -0.58044030692E+03  0.65105725344E+03  0.12499313601E+03 0.  0.
          4    1    3    3  501    0  0.73860590392E+01 -0.23137922440E+02 -0.20649485075E+02  0.31905038111E+02  0.12700000000E+01 0.  1.
         -4    1    3    3    0  501 -0.24674452782E+03 -0.95389866443E+02 -0.55979082184E+03  0.61915221533E+03  0.12700000000E+01 0.  1.
          2    1    1    2  502    0  0.60310526896E+02  0.20101923482E+02 -0.15252494975E+04  0.15265737705E+04  0.00000000000E+00 0. -1.
          1    1    1    2  503    0  0.17904794189E+03  0.98425865401E+02 -0.17199742085E+03  0.26707476342E+03  0.00000000000E+00 0. -1.
<mgrwt>
<rscale>  0 0.11847004E+03</rscale>
<asrwt>0</asrwt>
<pdfrwt beam="1">  1        2 0.12847581E-01 0.22077434E+03</pdfrwt>
<pdfrwt beam="2">  1        1 0.36326101E+00 0.63572376E+02</pdfrwt>
<totfact> 0.15116963E+02</totfact>
</mgrwt>
</event>
<event>
 7    1  0.5277388E-004  0.6252358E+02  0.7546771E-02  0.1404452E+00
          2   -1    0    0  503    0  0.00000000000E+00  0.00000000000E+00  0.21844770956E+03  0.21844770956E+03  0.00000000000E+00 0. -1.
          1   -1    0    0  502    0 -0.00000000000E+00 -0.00000000000E+00 -0.25990111356E+03  0.25990111356E+03  0.00000000000E+00 0. -1.
         25    2    1    2    0    0  0.70832510686E+00  0.16994857833E+02 -0.90823806155E+02  0.15544854959E+03  0.12500384350E+03 0.  0.
          4    1    3    3  501    0  0.28586225995E+02 -0.35770210175E+02 -0.83594114986E+02  0.95321924094E+02  0.12700000000E+01 0. -1.
         -4    1    3    3    0  501 -0.27877900888E+02  0.52765068008E+02 -0.72296911682E+01  0.60126625501E+02  0.12700000000E+01 0. -1.
          2    1    1    2  502    0  0.48234821393E+02  0.25675172353E+02 -0.12522177837E+03  0.13662469121E+03  0.00000000000E+00 0. -1.
          1    1    1    2  503    0 -0.48943146500E+02 -0.42670030185E+02  0.17459218053E+03  0.18627558231E+03  0.00000000000E+00 0. -1.
<mgrwt>
<rscale>  0 0.58450410E+02</rscale>
<asrwt>0</asrwt>
<pdfrwt beam="1">  1        2 0.33607340E-01 0.62523584E+02</pdfrwt>
<pdfrwt beam="2">  1        1 0.39984787E-01 0.54642588E+02</pdfrwt>
<totfact> 0.21281107E+03</totfact>
</mgrwt>
</event>
<event>
 7    1  0.5277388E-004  0.2469443E+03  0.7546771E-02  0.1172315E+00
          1   -1    0    0  502    0 -0.00000000000E+00  0.00000000000E+00  0.21734155483E+04  0.21734155483E+04  0.00000000000E+00 0. -1.
          2   -1    0    0  503    0  0.00000000000E+00 -0.00000000000E+00 -0.23734813049E+04  0.23734813049E+04  0.00000000000E+00 0. -1.
         25    2    1    2    0    0 -0.33353488545E+03 -0.14478542651E+03 -0.10641809540E+03  0.39894758192E+03  0.12500409012E+03 0.  0.
          4    1    3    3  501    0 -0.30687901171E+03 -0.11474516030E+03 -0.52667929669E+02  0.33183836932E+03  0.12700000000E+01 0. -1.
         -4    1    3    3    0  501 -0.26655873748E+02 -0.30040266212E+02 -0.53750165734E+02  0.67109212600E+02  0.12700000000E+01 0. -1.
          2    1    1    2  502    0  0.23299863037E+03  0.71171877933E+02  0.20179877027E+04  0.20326406879E+04  0.00000000000E+00 0. -1.
          1    1    1    2  503    0  0.10053625509E+03  0.73613548580E+02 -0.21116353639E+04  0.21153085834E+04  0.00000000000E+00 0. -1.
<mgrwt>
<rscale>  0 0.17541546E+03</rscale>
<asrwt>0</asrwt>
<pdfrwt beam="2">  1        2 0.36515097E+00 0.12460535E+03</pdfrwt>
<pdfrwt beam="1">  1        1 0.33437162E+00 0.24694433E+03</pdfrwt>
<totfact> 0.18749186E+00</totfact>
</mgrwt>
</event>
<event>
 7    1  0.5277388E-004  0.3644777E+02  0.7546771E-02  0.1630996E+00
          1   -1    0    0  502    0 -0.00000000000E+00  0.00000000000E+00  0.10166777197E+04  0.10166777197E+04  0.00000000000E+00 0. -1.
          2   -1    0    0  503    0  0.00000000000E+00 -0.00000000000E+00 -0.47178644213E+03  0.47178644213E+03  0.00000000000E+00 0. -1.
         25    2    1    2    0    0  0.23984238771E+02  0.23780679715E+02 -0.27725866897E+03  0.30600237371E+03  0.12499727501E+03 0.  0.
          4    1    3    3  501    0 -0.24292036920E+02 -0.39858062482E+02 -0.72774807432E+02  0.86467067137E+02  0.12700000000E+01 0.  1.
         -4    1    3    3    0  501  0.48276275691E+02  0.63638742197E+02 -0.20448386154E+03  0.21953530657E+03  0.12700000000E+01 0.  1.
          2    1    1    2  502    0 -0.74971887687E+01 -0.35677936758E+02  0.10013994781E+04  0.10020628911E+04  0.00000000000E+00 0. -1.
          1    1    1    2  503    0 -0.16487050002E+02  0.11897257043E+02 -0.17924953147E+03  0.18039889710E+03  0.00000000000E+00 0. -1.
<mgrwt>
<rscale>  0 0.27221971E+02</rscale>
<asrwt>0</asrwt>
<pdfrwt beam="2">  1        2 0.72582530E-01 0.20331442E+02</pdfrwt>
<pdfrwt beam="1">  1        1 0.15641196E+00 0.36447770E+02</pdfrwt>
<totfact> 0.16558027E+02</totfact>
</mgrwt>
</event>
<event>
 7    1  0.5277388E-004  0.3156011E+02  0.7546771E-02  0.1589393E+00
          2   -1    0    0  503    0  0.00000000000E+00  0.00000000000E+00  0.14782210568E+04  0.14782210568E+04  0.00000000000E+00 0. -1.
          1   -1    0    0  502    0 -0.00000000000E+00 -0.00000000000E+00 -0.48594165581E+02  0.48594165581E+02  0.00000000000E+00 0. -1.
         25    2    1    2    0    0 -0.28361963280E+02 -0.51427026619E+02  0.24336295026E+03  0.27981293314E+03  0.12498244664E+03 0.  0.
          4    1    3    3  501    0 -0.69900288641E+01  0.38421388798E+02  0.37397872388E+02  0.54085833449E+02  0.12700000000E+01 0.  1.
         -4    1    3    3    0  501 -0.21371934415E+02 -0.89848415418E+02  0.20596507787E+03  0.22572709969E+03  0.12700000000E+01 0.  1.
          2    1    1    2  502    0  0.73738566165E+01  0.29905357488E+02 -0.22324149798E+02  0.38040397370E+02  0.00000000000E+00 0. -1.
          1    1    1    2  503    0  0.20988106663E+02  0.21521669131E+02  0.12085880907E+04  0.12089618918E+04  0.00000000000E+00 0. -1.
<mgrwt>
<rscale>  0 0.30801599E+02</rscale>
<asrwt>0</asrwt>
<pdfrwt beam="1">  1        2 0.22741859E+00 0.30061318E+02</pdfrwt>
<pdfrwt beam="2">  1        1 0.74760266E-02 0.31560109E+02</pdfrwt>
<totfact> 0.18347101E+03</totfact>
</mgrwt>
</event>
<event>
 7    1  0.5277388E-004  0.3505322E+02  0.7546771E-02  0.1549126E+00
          1   -1    0    0  502    0 -0.00000000000E+00  0.00000000000E+00  0.29074696741E+03  0.29074696741E+03  0.00000000000E+00 0. -1.
          2   -1    0    0  503    0  0.00000000000E+00 -0.00000000000E+00 -0.65165146828E+03  0.65165146828E+03  0.00000000000E+00 0. -1.
         25    2    1    2    0    0  0.45042713857E+02  0.53239296384E+02 -0.25616186982E+03  0.29344057389E+03  0.12500079240E+03 0.  0.
          4    1    3    3  501    0  0.58908461375E+02  0.79997712633E+02 -0.12942432188E+03  0.16316282923E+03  0.12700000000E+01 0. -1.
         -4    1    3    3    0  501 -0.13865747517E+02 -0.26758416249E+02 -0.12673754794E+03  0.13027774466E+03  0.12700000000E+01 0. -1.
          2    1    1    2  502    0 -0.22809570128E+02 -0.26429805481E+02  0.27017735355E+03  0.27242359200E+03  0.00000000000E+00 0. -1.
          1    1    1    2  503    0 -0.22233143729E+02 -0.26809490903E+02 -0.37491998460E+03  0.37653426980E+03  0.00000000000E+00 0. -1.
<mgrwt>
<rscale>  0 0.34940944E+02</rscale>
<asrwt>0</asrwt>
<pdfrwt beam="2">  1        2 0.10025407E+00 0.34829032E+02</pdfrwt>
<pdfrwt beam="1">  1        1 0.44730302E-01 0.35053216E+02</pdfrwt>
<totfact> 0.59718252E+02</totfact>
</mgrwt>
</event>
<event>
 7    1  0.5277388E-004  0.1090377E+03  0.7546771E-02  0.1385860E+00
         -2   -1    0    0    0  501 -0.00000000000E+00  0.00000000000E+00  0.50745602952E+02  0.50745602952E+02  0.00000000000E+00 0.  1.
          2   -1    0    0  503    0  0.00000000000E+00 -0.00000000000E+00 -0.38372336158E+04  0.38372336158E+04  0.00000000000E+00 0. -1.
         25    2    1    2    0    0 -0.65971073581E+02  0.10884972343E+03 -0.34595608809E+03  0.38924392854E+03  0.12499910470E+03 0.  0.
          4    1    3    3  502    0 -0.10065430695E+03  0.89309240900E+02 -0.29749609225E+03  0.32651641279E+03  0.12700000000E+01 0.  1.
         -4    1    3    3    0  502  0.34683233372E+02  0.19540482530E+02 -0.48459995844E+02  0.62727515747E+02  0.12700000000E+01 0.  1.
          1    1    1    2  503    0  0.29918888625E+02 -0.10428109394E+03 -0.34570959964E+04  0.34587978280E+04  0.00000000000E+00 0. -1.
         -1    1    1    2    0  501  0.36052184957E+02 -0.45686294878E+01  0.16564071693E+02  0.39937462195E+02  0.00000000000E+00 0.  1.
<mgrwt>
<rscale>  0 0.62948279E+02</rscale>
<asrwt>0</asrwt>
<pdfrwt beam="2">  1        2 0.59034363E+00 0.10903772E+03</pdfrwt>
<pdfrwt beam="1">  1       -2 0.78070158E-02 0.36340507E+02</pdfrwt>
<totfact> 0.59370956E+01</totfact>
</mgrwt>
</event>
<event>
 7    1  0.5277388E-004  0.2037909E+03  0.7546771E-02  0.1152680E+00
          2   -1    0    0  503    0  0.00000000000E+00  0.00000000000E+00  0.26602761245E+04  0.26602761245E+04  0.00000000000E+00 0. -1.
          1   -1    0    0  502    0 -0.00000000000E+00 -0.00000000000E+00 -0.76340636837E+02  0.76340636837E+02  0.00000000000E+00 0. -1.
         25    2    1    2    0    0 -0.11056782405E+03  0.95165041699E+02  0.97272012680E+03  0.99150931608E+03  0.12499859960E+03 0.  0.
          4    1    3    3  501    0 -0.21991060502E+02  0.90530552975E+01  0.20842090663E+02  0.31647593833E+02  0.12700000000E+01 0.  1.
         -4    1    3    3    0  501 -0.88576763551E+02  0.86111986402E+02  0.95187803614E+03  0.95986172224E+03  0.12700000000E+01 0.  1.
          2    1    1    2  502    0 -0.37275882249E+02  0.18587152167E+03  0.12910406926E+03  0.22935905185E+03  0.00000000000E+00 0. -1.
          1    1    1    2  503    0  0.14784370630E+03 -0.28103656337E+03  0.14821112916E+04  0.15157483934E+04  0.00000000000E+00 0. -1.
<mgrwt>
<rscale>  0 0.19655314E+03</rscale>
<asrwt>0</asrwt>
<pdfrwt beam="1">  1        2 0.40927318E+00 0.20379088E+03</pdfrwt>
<pdfrwt beam="2">  1        1 0.11744715E-01 0.18957245E+03</pdfrwt>
<totfact> 0.23400246E+02</totfact>
</mgrwt>
</event>
<event>
 7    1  0.5277388E-004  0.1382913E+03  0.7546771E-02  0.1285868E+00
         -2   -1    0    0    0  501 -0.00000000000E+00  0.00000000000E+00  0.11170134384E+03  0.11170134384E+03  0.00000000000E+00 0.  1.
          2   -1    0    0  503    0  0.00000000000E+00 -0.00000000000E+00 -0.12628329666E+04  0.12628329666E+04  0.00000000000E+00 0. -1.
         25    2    1    2    0    0  0.14908765343E+03  0.10047009659E+03 -0.57489699926E+03  0.61518412788E+03  0.12499433079E+03 0.  0.
          4    1    3    3  502    0  0.13176384998E+03  0.12570424183E+03 -0.53320670052E+03  0.56344854863E+03  0.12700000000E+01 0.  1.
         -4    1    3    3    0  502  0.17323803444E+02 -0.25234145236E+02 -0.41690298743E+02  0.51735579255E+02  0.12700000000E+01 0.  1.
          1    1    1    2  503    0 -0.68105857857E+02  0.81744989163E+01 -0.61468079607E+03  0.61849633092E+03  0.00000000000E+00 0. -1.
         -1    1    1    2    0  501 -0.80981795570E+02 -0.10864459551E+03  0.38446172541E+02  0.14085385167E+03  0.00000000000E+00 0.  1.
<mgrwt>
<rscale>  0 0.97396357E+02</rscale>
<asrwt>0</asrwt>
<pdfrwt beam="2">  1        2 0.19428200E+00 0.68594681E+02</pdfrwt>
<pdfrwt beam="1">  1       -2 0.17184821E-01 0.13829134E+03</pdfrwt>
<totfact> 0.53835940E+02</totfact>
</mgrwt>
</event>
<event>
 7    1  0.5277388E-004  0.9842600E+02  0.7546771E-02  0.1324091E+00
          2   -1    0    0  503    0  0.00000000000E+00  0.00000000000E+00  0.30786074175E+03  0.30786074175E+03  0.00000000000E+00 0. -1.
          1   -1    0    0  502    0 -0.00000000000E+00 -0.00000000000E+00 -0.13740514730E+04  0.13740514730E+04  0.00000000000E+00 0. -1.
         25    2    1    2    0    0 -0.14256701545E+03  0.41913267121E+02 -0.74553429498E+02  0.20799850474E+03  0.12499235284E+03 0.  0.
          4    1    3    3  501    0 -0.12681796670E+03  0.50249839250E+02 -0.10537384457E+03  0.17237489099E+03  0.12700000000E+01 0.  1.
         -4    1    3    3    0  501 -0.15749048745E+02 -0.83365721295E+01  0.30820415075E+02  0.35623613751E+02  0.12700000000E+01 0.  1.
          2    1    1    2  502    0  0.66135292258E+02  0.15551683091E+02 -0.12223148764E+04  0.12242015311E+04  0.00000000000E+00 0. -1.
          1    1    1    2  503    0  0.76431723188E+02 -0.57464950212E+02  0.23067757468E+03  0.24971217886E+03  0.00000000000E+00 0. -1.
<mgrwt>
<rscale>  0 0.81773966E+02</rscale>
<asrwt>0</asrwt>
<pdfrwt beam="1">  1        2 0.47363191E-01 0.98426001E+02</pdfrwt>
<pdfrwt beam="2">  1        1 0.21139253E+00 0.67939177E+02</pdfrwt>
<totfact> 0.14186146E+02</totfact>
</mgrwt>
</event>
<event>
 7    1  0.5277388E-004  0.8768507E+02  0.7546771E-02  0.1392611E+00
          1   -1    0    0  503    0  0.00000000000E+00  0.00000000000E+00  0.22393863037E+04  0.22393863037E+04  0.00000000000E+00 0. -1.
         -1   -1    0    0    0  501 -0.00000000000E+00 -0.00000000000E+00 -0.14030000411E+03  0.14030000411E+03  0.00000000000E+00 0.  1.
         25    2    1    2    0    0  0.92170827906E+02  0.72136451487E+02  0.33281351952E+03  0.37428298065E+03  0.12499512662E+03 0.  0.
          4    1    3    3  502    0  0.55873349431E+01 -0.27802591169E+02  0.20165889715E+02  0.34820660469E+02  0.12700000000E+01 0. -1.
         -4    1    3    3    0  502  0.86583492962E+02  0.99939042656E+02  0.31264762980E+03  0.33946232018E+03  0.12700000000E+01 0. -1.
          2    1    1    2  503    0 -0.42789445552E+02 -0.99590263064E+00  0.18698802140E+04  0.18703700017E+04  0.00000000000E+00 0. -1.
         -2    1    1    2    0  501 -0.49381382354E+02 -0.71140548857E+02 -0.10360743395E+03  0.13503332546E+03  0.00000000000E+00 0.  1.
<mgrwt>
<rscale>  0 0.61261829E+02</rscale>
<asrwt>0</asrwt>
<pdfrwt beam="1">  1        1 0.34452094E+00 0.42801034E+02</pdfrwt>
<pdfrwt beam="2">  1       -1 0.21584618E-01 0.87685072E+02</pdfrwt>
<totfact> 0.52500124E+01</totfact>
</mgrwt>
</event>
<event>
 7    1  0.5277388E-004  0.9076299E+02  0.7546771E-02  0.1382020E+00
         -2   -1    0    0    0  501 -0.00000000000E+00  0.00000000000E+00  0.49307871916E+02  0.49307871916E+02  0.00000000000E+00 0.  1.
          2   -1    0    0  503    0  0.00000000000E+00 -0.00000000000E+00 -0.12422571180E+04  0.12422571180E+04  0.00000000000E+00 0. -1.
         25    2    1    2    0    0  0.62014946936E+02  0.10959253643E+03 -0.32904233477E+03  0.37383225445E+03  0.12500127484E+03 0.  0.
          4    1    3    3  502    0  0.59331355454E+02  0.11081057151E+03 -0.15412371353E+03  0.19888419864E+03  0.12700000000E+01 0. -1.
         -4    1    3    3    0  502  0.26835914825E+01 -0.12180350787E+01 -0.17491862125E+03  0.17494805581E+03  0.12700000000E+01 0. -1.
          3    1    1    2  503    0 -0.33241554337E+02 -0.30387829593E+02 -0.82269333556E+03  0.82392520626E+03  0.00000000000E+00 0. -1.
         -1    1    1    2    0  501 -0.28773392600E+02 -0.79204706838E+02 -0.41213575714E+02  0.93807529176E+02  0.00000000000E+00 0.  1.
<mgrwt>
<rscale>  0 0.63935776E+02</rscale>
<asrwt>0</asrwt>
<pdfrwt beam="2">  1        2 0.19111645E+00 0.45037996E+02</pdfrwt>
<pdfrwt beam="1">  1       -2 0.75858276E-02 0.90762995E+02</pdfrwt>
<totfact> 0.20264171E+03</totfact>
</mgrwt>
</event>
<event>
 7    1  0.5277388E-004  0.5642878E+02  0.7546771E-02  0.1458219E+00
          2   -1    0    0  503    0  0.00000000000E+00  0.00000000000E+00  0.22831613066E+04  0.22831613066E+04  0.00000000000E+00 0. -1.
         -2   -1    0    0    0  501 -0.00000000000E+00 -0.00000000000E+00 -0.91333209404E+01  0.91333209404E+01  0.00000000000E+00 0.  1.
         25    2    1    2    0    0  0.55283420719E+02  0.16085842658E+02  0.18211508352E+04  0.18263474351E+04  0.12505830009E+03 0.  0.
          4    1    3    3  502    0  0.36956121533E+02 -0.48779248912E+02  0.54697498462E+03  0.55038933197E+03  0.12700000000E+01 0.  1.
         -4    1    3    3    0  502  0.18327299186E+02  0.64865091570E+02  0.12741758505E+04  0.12759581031E+04  0.12700000000E+01 0.  1.
          1    1    1    2  503    0 -0.36427246039E+02 -0.51705955631E+02  0.19669352799E+03  0.20661266674E+03  0.00000000000E+00 0. -1.
         -1    1    1    2    0  501 -0.18856174680E+02  0.35620112973E+02  0.25618362254E+03  0.25933452572E+03  0.00000000000E+00 0.  1.
<mgrwt>
<rscale>  0 0.47689205E+02</rscale>
<asrwt>0</asrwt>
<pdfrwt beam="1">  1        2 0.35125513E+00 0.56428781E+02</pdfrwt>
<pdfrwt beam="2">  1       -2 0.14051281E-02 0.40303198E+02</pdfrwt>
<totfact> 0.62556832E+03</totfact>
</mgrwt>
</event>
<event>
 7    1  0.5277388E-004  0.3830095E+03  0.7546771E-02  0.1257823E+00
          1   -1    0    0  503    0  0.00000000000E+00  0.00000000000E+00  0.18057042341E+04  0.18057042341E+04  0.00000000000E+00 0. -1.
         -1   -1    0    0    0  501 -0.00000000000E+00 -0.00000000000E+00 -0.93817892780E+03  0.93817892780E+03  0.00000000000E+00 0.  1.
         25    2    1    2    0    0 -0.17820094488E+03  0.31189832303E+03 -0.11639723849E+03  0.39775371380E+03  0.12499423605E+03 0.  0.
          4    1    3    3  502    0 -0.10446151271E+03  0.89879779675E+02 -0.31751483383E+01  0.13784874645E+03  0.12700000000E+01 0.  1.
         -4    1    3    3    0  502 -0.73739432170E+02  0.22201854335E+03 -0.11322209015E+03  0.25990496734E+03  0.12700000000E+01 0.  1.
          2    1    1    2  503    0  0.17319578290E+03 -0.34396749657E+03  0.16423524093E+04  0.16869000724E+04  0.00000000000E+00 0. -1.
         -2    1    1    2    0  501  0.50051619749E+01  0.32069173543E+02 -0.65842986442E+03  0.65922937579E+03  0.00000000000E+00 0.  1.
<mgrwt>
<rscale>  0 0.11149662E+03</rscale>
<asrwt>0</asrwt>
<pdfrwt beam="1">  1        1 0.27780065E+00 0.38300951E+03</pdfrwt>
<pdfrwt beam="2">  1       -1 0.14433522E+00 0.32457411E+02</pdfrwt>
<totfact> 0.21290560E+00</totfact>
</mgrwt>
</event>
<event>
 7    1  0.5277388E-004  0.1006393E+03  0.7546771E-02  0.1299025E+00
          2   -1    0    0  503    0  0.00000000000E+00  0.00000000000E+00  0.13710464533E+04  0.13710464533E+04  0.00000000000E+00 0. -1.
         -2   -1    0    0    0  501 -0.00000000000E+00 -0.00000000000E+00 -0.80065629831E+02  0.80065629831E+02  0.00000000000E+00 0.  1.
         25    2    1    2    0    0 -0.43595143837E+01  0.38393337545E+02  0.20805737594E+03  0.24577751284E+03  0.12500264159E+03 0.  0.
          4    1    3    3  502    0  0.17424390955E+02 -0.62128435845E+01  0.19299813051E+03  0.19388682293E+03  0.12700000000E+01 0.  1.
         -4    1    3    3    0  502 -0.21783905339E+02  0.44606181129E+02  0.15059245426E+02  0.51890689912E+02  0.12700000000E+01 0.  1.
          1    1    1    2  503    0 -0.55152594925E+02  0.62521521873E+02  0.10849624426E+04  0.10881609491E+04  0.00000000000E+00 0. -1.
         -1    1    1    2    0  501  0.59512109309E+02 -0.10091485942E+03 -0.20389949901E+01  0.11717362121E+03  0.00000000000E+00 0.  1.
<mgrwt>
<rscale>  0 0.91599227E+02</rscale>
<asrwt>0</asrwt>
<pdfrwt beam="1">  1        2 0.21093021E+00 0.83371155E+02</pdfrwt>
<pdfrwt beam="2">  1       -2 0.12317790E-01 0.10063934E+03</pdfrwt>
<totfact> 0.78800228E+02</totfact>
</mgrwt>
</event>
<event>
 7    1  0.5277388E-004  0.2742073E+02  0.7546771E-02  0.1640680E+00
         -1   -1    0    0    0  501 -0.00000000000E+00  0.00000000000E+00  0.26250007635E+03  0.26250007635E+03  0.00000000000E+00 0.  1.
          1   -1    0    0  503    0  0.00000000000E+00 -0.00000000000E+00 -0.87454288048E+03  0.87454288048E+03  0.00000000000E+00 0. -1.
         25    2    1    2    0    0 -0.17605213654E+02 -0.28342272315E+02  0.57885503582E+02  0.14173377162E+03  0.12499801016E+03 0.  0.
          4    1    3    3  502    0  0.40671074135E+02 -0.50585968261E+02  0.16895134504E+02  0.67083044997E+02  0.12700000000E+01 0. -1.
         -4    1    3    3    0  502 -0.58276287789E+02  0.22243695946E+02  0.40990369078E+02  0.74650726620E+02  0.12700000000E+01 0. -1.
          2    1    1    2  503    0  0.25488150913E+02  0.19338984233E+01 -0.83125371591E+03  0.83164663530E+03  0.00000000000E+00 0. -1.
         -2    1    1    2    0  501 -0.78829372583E+01  0.26408373892E+02  0.16132540820E+03  0.16366254991E+03  0.00000000000E+00 0.  1.
<mgrwt>
<rscale>  0 0.26474752E+02</rscale>
<asrwt>0</asrwt>
<pdfrwt beam="2">  1        1 0.13454506E+00 0.25561412E+02</pdfrwt>
<pdfrwt beam="1">  1       -1 0.40384627E-01 0.27420726E+02</pdfrwt>
<totfact> 0.13825300E+02</totfact>
</mgrwt>
</event>
<event>
 7    1  0.5277388E-004  0.5256506E+02  0.7546771E-02  0.1443692E+00
          2   -1    0    0  503    0  0.00000000000E+00  0.00000000000E+00  0.16074629595E+04  0.16074629595E+04  0.00000000000E+00 0. -1.
          1   -1    0    0  502    0 -0.00000000000E+00 -0.00000000000E+00 -0.14943461790E+03  0.14943461790E+03  0.00000000000E+00 0. -1.
         25    2    1    2    0    0  0.27185134663E+01  0.10015121955E+02  0.32301208343E+03  0.34650336271E+03  0.12498032383E+03 0.  0.
          4    1    3    3  501    0 -0.21697143808E+02  0.46926326594E+02  0.28014161233E+03  0.28487502880E+03  0.12700000000E+01 0. -1.
         -4    1    3    3    0  501  0.24415657274E+02 -0.36911204639E+02  0.42870471103E+02  0.61628333911E+02  0.12700000000E+01 0. -1.
          2    1    1    2  502    0 -0.30389791317E+02  0.37343421499E+02 -0.13286894463E+03  0.14132312971E+03  0.00000000000E+00 0. -1.
          1    1    1    2  503    0  0.27671277850E+02 -0.47358543455E+02  0.12678852028E+04  0.12690710850E+04  0.00000000000E+00 0. -1.
<mgrwt>
<rscale>  0 0.50307211E+02</rscale>
<asrwt>0</asrwt>
<pdfrwt beam="1">  1        2 0.24730198E+00 0.52565059E+02</pdfrwt>
<pdfrwt beam="2">  1        1 0.22989942E-01 0.48146345E+02</pdfrwt>
<totfact> 0.38108082E+02</totfact>
</mgrwt>
</event>
<event>
 7    1  0.5277388E-004  0.2340040E+03  0.7546771E-02  0.1329698E+00
          1   -1    0    0  502    0 -0.00000000000E+00  0.00000000000E+00  0.16592303927E+04  0.16592303927E+04  0.00000000000E+00 0. -1.
          2   -1    0    0  503    0  0.00000000000E+00 -0.00000000000E+00 -0.61268625613E+03  0.61268625613E+03  0.00000000000E+00 0. -1.
         25    2    1    2    0    0  0.15688486164E+03  0.15652510320E+03 -0.86784397843E+02  0.26882911206E+03  0.12499836814E+03 0.  0.
          4    1    3    3  501    0  0.15046461026E+03  0.14847416520E+03 -0.11366793197E+03  0.24001289201E+03  0.12700000000E+01 0.  1.
         -4    1    3    3    0  501  0.64202513779E+01  0.80509380008E+01  0.26883534130E+02  0.28816220046E+02  0.12700000000E+01 0.  1.
          2    1    1    2  502    0 -0.18253422302E+03 -0.14748808027E+03  0.15589923286E+04  0.15765559163E+04  0.00000000000E+00 0. -1.
          1    1    1    2  503    0  0.25649361380E+02 -0.90370229291E+01 -0.42566379425E+03  0.42653162047E+03  0.00000000000E+00 0. -1.
<mgrwt>
<rscale>  0 0.79772761E+02</rscale>
<asrwt>0</asrwt>
<pdfrwt beam="2">  1        2 0.94259425E-01 0.27194807E+02</pdfrwt>
<pdfrwt beam="1">  1        1 0.25526621E+00 0.23400400E+03</pdfrwt>
<totfact> 0.40667970E+01</totfact>
</mgrwt>
</event>
<event>
 7    1  0.5277388E-004  0.1376244E+03  0.7546771E-02  0.1427543E+00
         -1   -1    0    0    0  501 -0.00000000000E+00  0.00000000000E+00  0.28872978294E+03  0.28872978294E+03  0.00000000000E+00 0.  1.
          1   -1    0    0  503    0  0.00000000000E+00 -0.00000000000E+00 -0.85463596313E+03  0.85463596313E+03  0.00000000000E+00 0. -1.
         25    2    1    2    0    0  0.80869677567E+02 -0.12813275762E+03  0.48408043674E+01  0.19648654941E+03  0.12500248952E+03 0.  0.
          4    1    3    3  502    0  0.65669113578E+02 -0.13000695916E+03  0.45841683910E+02  0.15270008118E+03  0.12700000000E+01 0.  1.
         -4    1    3    3    0  502  0.15200563988E+02  0.18742015373E+01 -0.41000879542E+02  0.43786468232E+02  0.12700000000E+01 0.  1.
          2    1    1    2  503    0 -0.60876868697E+02  0.12252779420E+03 -0.75204850232E+03  0.76439257148E+03  0.00000000000E+00 0. -1.
         -2    1    1    2    0  501 -0.19992808869E+02  0.56049634251E+01  0.18130151777E+03  0.18248662518E+03  0.00000000000E+00 0.  1.
<mgrwt>
<rscale>  0 0.53456343E+02</rscale>
<asrwt>0</asrwt>
<pdfrwt beam="2">  1        1 0.13148245E+00 0.13762438E+03</pdfrwt>
<pdfrwt beam="1">  1       -1 0.44419967E-01 0.20763623E+02</pdfrwt>
<totfact> 0.11040283E+02</totfact>
</mgrwt>
</event>
<event>
 7    1  0.5277388E-004  0.1539212E+03  0.7546771E-02  0.1388093E+00
         -2   -1    0    0    0  501 -0.00000000000E+00  0.00000000000E+00  0.32366327482E+03  0.32366327482E+03  0.00000000000E+00 0.  1.
          2   -1    0    0  503    0  0.00000000000E+00 -0.00000000000E+00 -0.12223789684E+04  0.12223789684E+04  0.00000000000E+00 0. -1.
         25    2    1    2    0    0  0.86540668966E+02 -0.14687034182E+03 -0.21563090641E+01  0.21139259720E+03  0.12498798258E+03 0.  0.
          4    1    3    3  502    0  0.61752783289E+02 -0.30558263433E+01 -0.18475869036E+02  0.64542350091E+02  0.12700000000E+01 0. -1.
         -4    1    3    3    0  502  0.24787885677E+02 -0.14381451548E+03  0.16319559972E+02  0.14685024711E+03  0.12700000000E+01 0. -1.
          1    1    1    2  503    0 -0.62228500160E+02  0.13992884794E+03 -0.11095978862E+04  0.11201160377E+04  0.00000000000E+00 0. -1.
         -1    1    1    2    0  501 -0.24312168807E+02  0.69414938747E+01  0.21303850173E+03  0.21453360834E+03  0.00000000000E+00 0.  1.
<mgrwt>
<rscale>  0 0.62383483E+02</rscale>
<asrwt>0</asrwt>
<pdfrwt beam="2">  1        2 0.18805831E+00 0.15392121E+03</pdfrwt>
<pdfrwt beam="1">  1       -2 0.49794349E-01 0.25283708E+02</pdfrwt>
<totfact> 0.78163080E+01</totfact>
</mgrwt>
</event>
<event>
 7    1  0.5277388E-004  0.4462124E+02  0.7546771E-02  0.1541548E+00
          2   -1    0    0  503    0  0.00000000000E+00  0.00000000000E+00  0.14051365491E+04  0.14051365491E+04  0.00000000000E+00 0. -1.
          1   -1    0    0  502    0 -0.00000000000E+00 -0.00000000000E+00 -0.10345820366E+03  0.10345820366E+03  0.00000000000E+00 0. -1.
         25    2    1    2    0    0 -0.52689385613E+02 -0.43765446096E+02  0.95661726350E+02  0.17166767866E+03  0.12500816126E+03 0.  0.
          4    1    3    3  501    0 -0.54535293944E+01  0.38534645056E+02  0.57361499932E+02  0.69329751384E+02  0.12700000000E+01 0.  1.
         -4    1    3    3    0  501 -0.47235856218E+02 -0.82300091152E+02  0.38300226418E+02  0.10233792728E+03  0.12700000000E+01 0.  1.
          2    1    1    2  502    0  0.11932705290E+02  0.26139107024E+02 -0.61894259292E+02  0.68238857734E+02  0.00000000000E+00 0. -1.
          1    1    1    2  503    0  0.40756680322E+02  0.17626339072E+02  0.12679108784E+04  0.12686882163E+04  0.00000000000E+00 0. -1.
<mgrwt>
<rscale>  0 0.35807074E+02</rscale>
<asrwt>0</asrwt>
<pdfrwt beam="1">  1        2 0.21617484E+00 0.44621244E+02</pdfrwt>
<pdfrwt beam="2">  1        1 0.15916648E-01 0.28733993E+02</pdfrwt>
<totfact> 0.74224412E+02</totfact>
</mgrwt>
</event>
<event>
 7    1  0.5277388E-004  0.6146773E+02  0.7546771E-02  0.1462585E+00
          1   -1    0    0  502    0 -0.00000000000E+00  0.00000000000E+00  0.19840389367E+02  0.19840389367E+02  0.00000000000E+00 0. -1.
          2   -1    0    0  503    0  0.00000000000E+00 -0.00000000000E+00 -0.28543741303E+04  0.28543741303E+04  0.00000000000E+00 0. -1.
         25    2    1    2    0    0  0.16095168679E+02 -0.61989392055E+02 -0.12091800967E+04  0.12173108236E+04  0.12500958316E+03 0.  0.
          4    1    3    3  501    0  0.69775557542E+02 -0.27787412544E+02 -0.74688693111E+03  0.75065469391E+03  0.12700000000E+01 0. -1.
         -4    1    3    3    0  501 -0.53680388863E+02 -0.34201979511E+02 -0.46229316557E+03  0.46665612969E+03  0.12700000000E+01 0. -1.
          2    1    1    2  502    0 -0.45651877885E+02  0.41709747978E+02 -0.45818510445E+02  0.76961892715E+02  0.00000000000E+00 0. -1.
          1    1    1    2  503    0  0.29556709207E+02  0.20279644077E+02 -0.15795351339E+04  0.15799418034E+04  0.00000000000E+00 0. -1.
<mgrwt>
<rscale>  0 0.46939426E+02</rscale>
<asrwt>0</asrwt>
<pdfrwt beam="2">  1        2 0.43913476E+00 0.35844986E+02</pdfrwt>
<pdfrwt beam="1">  1        1 0.30523657E-02 0.61467725E+02</pdfrwt>
<totfact> 0.13360953E+03</totfact>
</mgrwt>
</event>
<event>
 7    1  0.5277388E-004  0.1233257E+03  0.7546771E-02  0.1307052E+00
          1   -1    0    0  502    0 -0.00000000000E+00  0.00000000000E+00  0.55744608172E+03  0.55744608172E+03  0.00000000000E+00 0. -1.
          2   -1    0    0  503    0  0.00000000000E+00 -0.00000000000E+00 -0.15757965158E+04  0.15757965158E+04  0.00000000000E+00 0. -1.
         25    2    1    2    0    0  0.58540690006E+02  0.12221122329E+03 -0.18475505081E+03  0.26100115105E+03  0.12499830626E+03 0.  0.
          4    1    3    3  501    0  0.22108420417E+01  0.27606909851E+02 -0.13903896635E+03  0.14177614877E+03  0.12700000000E+01 0. -1.
         -4    1    3    3    0  501  0.56329847964E+02  0.94604313439E+02 -0.45716084454E+02  0.11922500229E+03  0.12700000000E+01 0. -1.
          2    1    1    2  502    0 -0.99021593540E+02 -0.73671356276E+02  0.51123734008E+03  0.52592429361E+03  0.00000000000E+00 0. -1.
          1    1    1    2  503    0  0.40480903534E+02 -0.48539867015E+02 -0.13448327234E+04  0.13463171529E+04  0.00000000000E+00 0. -1.
<mgrwt>
<rscale>  0 0.88287881E+02</rscale>
<asrwt>0</asrwt>
<pdfrwt beam="2">  1        2 0.24243023E+00 0.63204606E+02</pdfrwt>
<pdfrwt beam="1">  1        1 0.85760937E-01 0.12332566E+03</pdfrwt>
<totfact> 0.76900309E+01</totfact>
</mgrwt>
</event>
<event>
 7    1  0.5277388E-004  0.7677297E+02  0.7546771E-02  0.1373612E+00
          1   -1    0    0  502    0 -0.00000000000E+00  0.00000000000E+00  0.59374576309E+03  0.59374576309E+03  0.00000000000E+00 0. -1.
          2   -1    0    0  503    0  0.00000000000E+00 -0.00000000000E+00 -0.35817898809E+03  0.35817898809E+03  0.00000000000E+00 0. -1.
         25    2    1    2    0    0 -0.11212513795E+03 -0.65692196929E+02 -0.83934515709E+02  0.19888649523E+03  0.12499329485E+03 0.  0.
          4    1    3    3  501    0 -0.78251378528E+02 -0.40807997575E+02  0.16692459348E+02  0.89826621926E+02  0.12700000000E+01 0. -1.
         -4    1    3    3    0  501 -0.33873759425E+02 -0.24884199355E+02 -0.10062697506E+03  0.10905987330E+03  0.12700000000E+01 0. -1.
          2    1    1    2  502    0  0.57451948316E+02  0.49442423789E+02  0.52977308837E+03  0.53516801548E+03  0.00000000000E+00 0. -1.
          1    1    1    2  503    0  0.54673189637E+02  0.16249773141E+02 -0.21027179766E+03  0.21787024047E+03  0.00000000000E+00 0. -1.
<mgrwt>
<rscale>  0 0.66173223E+02</rscale>
<asrwt>0</asrwt>
<pdfrwt beam="2">  1        2 0.55104460E-01 0.57036942E+02</pdfrwt>
<pdfrwt beam="1">  1        1 0.91345502E-01 0.76772970E+02</pdfrwt>
<totfact> 0.45753505E+02</totfact>
</mgrwt>
</event>
<event>
 7    1  0.5277388E-004  0.1099377E+03  0.7546771E-02  0.1337590E+00
          2   -1    0    0  503    0  0.00000000000E+00  0.00000000000E+00  0.32181600565E+03  0.32181600565E+03  0.00000000000E+00 0. -1.
          1   -1    0    0  502    0 -0.00000000000E+00 -0.00000000000E+00 -0.44301791010E+03  0.44301791010E+03  0.00000000000E+00 0. -1.
         25    2    1    2    0    0  0.59572100334E+02  0.73126761401E+02 -0.11578112381E+03  0.19474378883E+03  0.12499406500E+03 0.  0.
          4    1    3    3  501    0  0.93287452106E+02  0.65056295819E+02 -0.58814378480E+02  0.12804536056E+03  0.12700000000E+01 0.  1.
         -4    1    3    3    0  501 -0.33715351772E+02  0.80704655822E+01 -0.56966745328E+02  0.66698428265E+02  0.12700000000E+01 0.  1.
          2    1    1    2  502    0 -0.10715444943E+03 -0.47545622072E+02 -0.27300338328E+03  0.29710858199E+03  0.00000000000E+00 0. -1.
          1    1    1    2  503    0  0.47582349094E+02 -0.25581139329E+02  0.26758260264E+03  0.27298154492E+03  0.00000000000E+00 0. -1.
<mgrwt>
<rscale>  0 0.77065905E+02</rscale>
<asrwt>0</asrwt>
<pdfrwt beam="1">  1        2 0.49510154E-01 0.54022908E+02</pdfrwt>
<pdfrwt beam="2">  1        1 0.68156602E-01 0.10993769E+03</pdfrwt>
<totfact> 0.73905196E+02</totfact>
</mgrwt>
</event>
<event>
 7    1  0.5277388E-004  0.8056132E+02  0.7546771E-02  0.1360719E+00
          2   -1    0    0  503    0  0.00000000000E+00  0.00000000000E+00  0.34379980918E+03  0.34379980918E+03  0.00000000000E+00 0. -1.
          1   -1    0    0  502    0 -0.00000000000E+00 -0.00000000000E+00 -0.44318750696E+03  0.44318750696E+03  0.00000000000E+00 0. -1.
         25    2    1    2    0    0 -0.12606556352E+03 -0.23126226397E+02 -0.16930042917E+03  0.24640430243E+03  0.12500038514E+03 0.  0.
          4    1    3    3  501    0 -0.65087344334E+02  0.32989964060E+01 -0.16769175341E+03  0.17991493221E+03  0.12700000000E+01 0. -1.
         -4    1    3    3    0  501 -0.60978219182E+02 -0.26425222803E+02 -0.16086757625E+01  0.66489370222E+02  0.12700000000E+01 0. -1.
          2    1    1    2  502    0  0.73562449053E+02 -0.69439612922E+01 -0.22640187435E+03  0.23815428029E+03  0.00000000000E+00 0. -1.
          1    1    1    2  503    0  0.52503114462E+02  0.30070187689E+02  0.29631460575E+03  0.30242873342E+03  0.00000000000E+00 0. -1.
<mgrwt>
<rscale>  0 0.69816341E+02</rscale>
<asrwt>0</asrwt>
<pdfrwt beam="1">  1        2 0.52892278E-01 0.60504489E+02</pdfrwt>
<pdfrwt beam="2">  1        1 0.68182693E-01 0.80561320E+02</pdfrwt>
<totfact> 0.69443439E+02</totfact>
</mgrwt>
</event>
<event>
 7    1  0.5277388E-004  0.4364930E+02  0.7546771E-02  0.1501881E+00
         -1   -1    0    0    0  501 -0.00000000000E+00  0.00000000000E+00  0.63444511241E+03  0.63444511241E+03  0.00000000000E+00 0.  1.
          1   -1    0    0  503    0  0.00000000000E+00 -0.00000000000E+00 -0.13445296910E+03  0.13445296910E+03  0.00000000000E+00 0. -1.
         25    2    1    2    0    0 -0.75762211390E+02  0.25461411374E+02  0.49983880937E+02  0.15656167318E+03  0.12499989204E+03 0.  0.
          4    1    3    3  502    0  0.25863978154E+02  0.21848243273E+02  0.42832073050E+02  0.54612182540E+02  0.12700000000E+01 0. -1.
         -4    1    3    3    0  502 -0.10162618954E+03  0.36131681009E+01  0.71518078865E+01  0.10194949064E+03  0.12700000000E+01 0. -1.
          2    1    1    2  503    0  0.40164110102E+02 -0.11402112098E+02 -0.75051772531E+02  0.85883249011E+02  0.00000000000E+00 0. -1.
         -2    1    1    2    0  501  0.35598101288E+02 -0.14059299276E+02  0.52506003491E+03  0.52645315933E+03  0.00000000000E+00 0.  1.
<mgrwt>
<rscale>  0 0.40873309E+02</rscale>
<asrwt>0</asrwt>
<pdfrwt beam="2">  1        1 0.20685073E-01 0.43649300E+02</pdfrwt>
<pdfrwt beam="1">  1       -1 0.97606939E-01 0.38273865E+02</pdfrwt>
<totfact> 0.26644513E+02</totfact>
</mgrwt>
</event>
<event>
 7    1  0.5277388E-004  0.5795515E+02  0.7546771E-02  0.1449461E+00
         -1   -1    0    0    0  501 -0.00000000000E+00  0.00000000000E+00  0.22190539366E+03  0.22190539366E+03  0.00000000000E+00 0.  1.
          1   -1    0    0  503    0  0.00000000000E+00 -0.00000000000E+00 -0.58403246117E+03  0.58403246117E+03  0.00000000000E+00 0. -1.
         25    2    1    2    0    0 -0.53294222485E+01  0.19512272620E+02  0.84448906105E+02  0.15219775222E+03  0.12499362589E+03 0.  0.
          4    1    3    3  502    0  0.41253810739E+02  0.44088031179E+02  0.10340598905E+02  0.61271300619E+02  0.12700000000E+01 0. -1.
         -4    1    3    3    0  502 -0.46583232988E+02 -0.24575758560E+02  0.74108307200E+02  0.90926451599E+02  0.12700000000E+01 0. -1.
          2    1    1    2  503    0  0.40473835096E+02 -0.42220866368E+02 -0.54430083571E+03  0.54743413544E+03  0.00000000000E+00 0. -1.
         -2    1    1    2    0  501 -0.35144412848E+02  0.22708593748E+02  0.97724862097E+02  0.10630596717E+03  0.00000000000E+00 0.  1.
<mgrwt>
<rscale>  0 0.49244278E+02</rscale>
<asrwt>0</asrwt>
<pdfrwt beam="2">  1        1 0.89851147E-01 0.57955151E+02</pdfrwt>
<pdfrwt beam="1">  1       -1 0.34139292E-01 0.41842681E+02</pdfrwt>
<totfact> 0.30866263E+02</totfact>
</mgrwt>
</event>
<event>
 7    1  0.5277388E-004  0.4929751E+02  0.7546771E-02  0.1531893E+00
          2   -1    0    0  503    0  0.00000000000E+00  0.00000000000E+00  0.63889054693E+03  0.63889054693E+03  0.00000000000E+00 0. -1.
          1   -1    0    0  502    0 -0.00000000000E+00 -0.00000000000E+00 -0.31168716566E+03  0.31168716566E+03  0.00000000000E+00 0. -1.
         25    2    1    2    0    0  0.33773170666E+02 -0.65052758469E+02  0.18274436655E+03  0.23325489562E+03  0.12505940342E+03 0.  0.
          4    1    3    3  501    0 -0.84498402407E+01 -0.90527832605E+02  0.88536124942E+02  0.12691314588E+03  0.12700000000E+01 0.  1.
         -4    1    3    3    0  501  0.42223010907E+02  0.25475074136E+02  0.94208241611E+02  0.10634174975E+03  0.12700000000E+01 0.  1.
          2    1    1    2  502    0 -0.31742242077E+02  0.37424407259E+02 -0.28387929934E+03  0.28808959160E+03  0.00000000000E+00 0. -1.
          1    1    1    2  503    0 -0.20309285898E+01  0.27628351211E+02  0.42833831407E+03  0.42923322537E+03  0.00000000000E+00 0. -1.
<mgrwt>
<rscale>  0 0.36955161E+02</rscale>
<asrwt>0</asrwt>
<pdfrwt beam="1">  1        2 0.98290853E-01 0.27702896E+02</pdfrwt>
<pdfrwt beam="2">  1        1 0.47951872E-01 0.49297514E+02</pdfrwt>
<totfact> 0.56607090E+02</totfact>
</mgrwt>
</event>
<event>
 7    1  0.5277388E-004  0.1310508E+03  0.7546771E-02  0.1227564E+00
          1   -1    0    0  502    0 -0.00000000000E+00  0.00000000000E+00  0.88251976228E+03  0.88251976228E+03  0.00000000000E+00 0. -1.
          2   -1    0    0  503    0  0.00000000000E+00 -0.00000000000E+00 -0.76372908796E+03  0.76372908796E+03  0.00000000000E+00 0. -1.
         25    2    1    2    0    0  0.33026726702E+02 -0.62142665217E+02 -0.20959882334E+03  0.25398509984E+03  0.12499715468E+03 0.  0.
          4    1    3    3  501    0  0.69672065512E+02 -0.63970700957E+02 -0.19028827729E+03  0.21250338507E+03  0.12700000000E+01 0. -1.
         -4    1    3    3    0  501 -0.36645338810E+02  0.18280357398E+01 -0.19310546049E+02  0.41481714765E+02  0.12700000000E+01 0. -1.
          2    1    1    2  502    0  0.12724025640E+03 -0.20071261026E+02  0.84002671297E+03  0.84984576063E+03  0.00000000000E+00 0. -1.
          1    1    1    2  503    0 -0.16026698310E+03  0.82213926243E+02 -0.51163721530E+03  0.54241798977E+03  0.00000000000E+00 0. -1.
<mgrwt>
<rscale>  0 0.12992738E+03</rscale>
<asrwt>0</asrwt>
<pdfrwt beam="2">  1        2 0.11749678E+00 0.13105081E+03</pdfrwt>
<pdfrwt beam="1">  1        1 0.13577227E+00 0.12881358E+03</pdfrwt>
<totfact> 0.10878549E+02</totfact>
</mgrwt>
</event>
<event>
 7    1  0.5277388E-004  0.1311799E+03  0.7546771E-02  0.1330402E+00
          2   -1    0    0  503    0  0.00000000000E+00  0.00000000000E+00  0.30911308467E+04  0.30911308467E+04  0.00000000000E+00 0. -1.
          1   -1    0    0  502    0 -0.00000000000E+00 -0.00000000000E+00 -0.13961732226E+04  0.13961732226E+04  0.00000000000E+00 0. -1.
         25    2    1    2    0    0 -0.14170246350E+03 -0.43516093111E+02  0.14581094464E+04  0.14709453797E+04  0.12499565573E+03 0.  0.
          4    1    3    3  501    0 -0.10637474920E+03 -0.25058704359E+02  0.49112869691E+03  0.50314265945E+03  0.12700000000E+01 0. -1.
         -4    1    3    3    0  501 -0.35327714295E+02 -0.18457388752E+02  0.96698074947E+03  0.96780272026E+03  0.12700000000E+01 0. -1.
          2    1    1    2  502    0  0.15137118940E+02  0.45773646387E+02 -0.13868729726E+04  0.13877107051E+04  0.00000000000E+00 0. -1.
          1    1    1    2  503    0  0.12656534455E+03 -0.22575532757E+01  0.16237211504E+04  0.16286479844E+04  0.00000000000E+00 0. -1.
<mgrwt>
<rscale>  0 0.79526055E+02</rscale>
<asrwt>0</asrwt>
<pdfrwt beam="1">  1        2 0.47555859E+00 0.13117989E+03</pdfrwt>
<pdfrwt beam="2">  1        1 0.21479588E+00 0.48211607E+02</pdfrwt>
<totfact> 0.27785831E+00</totfact>
</mgrwt>
</event>
<event>
 7    1  0.5277388E-004  0.7756858E+02  0.7546771E-02  0.1411810E+00
          2   -1    0    0  503    0  0.00000000000E+00  0.00000000000E+00  0.48914643644E+02  0.48914643644E+02  0.00000000000E+00 0. -1.
          1   -1    0    0  502    0 -0.00000000000E+00 -0.00000000000E+00 -0.80948795651E+03  0.80948795651E+03  0.00000000000E+00 0. -1.
         25    2    1    2    0    0 -0.28111212045E+02 -0.30464008871E+02 -0.19340362148E+03  0.23398384701E+03  0.12500073512E+03 0.  0.
          4    1    3    3  501    0 -0.27632560288E+02  0.38498164721E+02 -0.13671988535E+03  0.14470524187E+03  0.12700000000E+01 0.  1.
         -4    1    3    3    0  501 -0.47865175727E+00 -0.68962173593E+02 -0.56683736135E+02  0.89278605143E+02  0.12700000000E+01 0.  1.
          2    1    1    2  502    0  0.52113735335E+02  0.64416705101E+02 -0.57598524800E+03  0.58191439166E+03  0.00000000000E+00 0. -1.
          1    1    1    2  503    0 -0.24002523290E+02 -0.33952696230E+02  0.88155566264E+01  0.42504361473E+02  0.00000000000E+00 0. -1.
<mgrwt>
<rscale>  0 0.56791822E+02</rscale>
<asrwt>0</asrwt>
<pdfrwt beam="1">  1        2 0.75253300E-02 0.41580124E+02</pdfrwt>
<pdfrwt beam="2">  1        1 0.12453660E+00 0.77568578E+02</pdfrwt>
<totfact> 0.26114444E+03</totfact>
</mgrwt>
</event>
<event>
 7    1  0.5277388E-004  0.7793921E+02  0.7546771E-02  0.1422530E+00
          1   -1    0    0  502    0 -0.00000000000E+00  0.00000000000E+00  0.61757807526E+03  0.61757807526E+03  0.00000000000E+00 0. -1.
          2   -1    0    0  503    0  0.00000000000E+00 -0.00000000000E+00 -0.83592496907E+02  0.83592496907E+02  0.00000000000E+00 0. -1.
         25    2    1    2    0    0 -0.16600403054E+02 -0.99211250845E+02  0.85238566016E+02  0.18169177891E+03  0.12501137433E+03 0.  0.
          4    1    3    3  501    0  0.14862070260E+02 -0.90256747687E+02  0.10821161754E+03  0.14169872514E+03  0.12700000000E+01 0.  1.
         -4    1    3    3    0  501 -0.31462473314E+02 -0.89545031584E+01 -0.22973051521E+02  0.39993053772E+02  0.12700000000E+01 0.  1.
          2    1    1    2  502    0 -0.16038047440E+02  0.34554084011E+02  0.44534456713E+03  0.44697090191E+03  0.00000000000E+00 0. -1.
          1    1    1    2  503    0  0.32638450494E+02  0.64657166834E+02  0.34024452076E+01  0.72507891343E+02  0.00000000000E+00 0. -1.
<mgrwt>
<rscale>  0 0.54489157E+02</rscale>
<asrwt>0</asrwt>
<pdfrwt beam="2">  1        2 0.12860385E-01 0.77939208E+02</pdfrwt>
<pdfrwt beam="1">  1        1 0.95012009E-01 0.38094667E+02</pdfrwt>
<totfact> 0.21615594E+03</totfact>
</mgrwt>
</event>
<event>
 7    1  0.5277388E-004  0.3836951E+02  0.7546771E-02  0.1565680E+00
          2   -1    0    0  503    0  0.00000000000E+00  0.00000000000E+00  0.48680036780E+03  0.48680036780E+03  0.00000000000E+00 0. -1.
          1   -1    0    0  502    0 -0.00000000000E+00 -0.00000000000E+00 -0.27083647019E+03  0.27083647019E+03  0.00000000000E+00 0. -1.
         25    2    1    2    0    0 -0.23851948646E+01  0.53762495511E+02 -0.19212123739E+02  0.13743963479E+03  0.12499780972E+03 0.  0.
          4    1    3    3  501    0 -0.60472125186E+02  0.17774542596E+02 -0.27142095647E+02  0.68637588427E+02  0.12700000000E+01 0.  1.
         -4    1    3    3    0  501  0.58086930321E+02  0.35987952914E+02  0.79299719084E+01  0.68802046362E+02  0.12700000000E+01 0.  1.
          2    1    1    2  502    0  0.20866895884E+02 -0.31885309423E+02 -0.19013856178E+03  0.19391950128E+03  0.00000000000E+00 0. -1.
          1    1    1    2  503    0 -0.18481701019E+02 -0.21877186088E+02  0.42531458312E+03  0.42627770192E+03  0.00000000000E+00 0. -1.
<mgrwt>
<rscale>  0 0.33149045E+02</rscale>
<asrwt>0</asrwt>
<pdfrwt beam="1">  1        2 0.74892364E-01 0.28638864E+02</pdfrwt>
<pdfrwt beam="2">  1        1 0.41667149E-01 0.38369510E+02</pdfrwt>
<totfact> 0.88555032E+02</totfact>
</mgrwt>
</event>
<event>
 7    1  0.5277388E-004  0.7913319E+02  0.7546771E-02  0.1369700E+00
          2   -1    0    0  503    0  0.00000000000E+00  0.00000000000E+00  0.22429558182E+04  0.22429558182E+04  0.00000000000E+00 0. -1.
          1   -1    0    0  502    0 -0.00000000000E+00 -0.00000000000E+00 -0.12367420513E+04  0.12367420513E+04  0.00000000000E+00 0. -1.
         25    2    1    2    0    0 -0.16635998409E+00 -0.34169791497E+02  0.13808375839E+03  0.18937398619E+03  0.12501111945E+03 0.  0.
          4    1    3    3  501    0 -0.33091643399E+02 -0.35377474977E+02  0.14735907287E+03  0.15512231256E+03  0.12700000000E+01 0.  1.
         -4    1    3    3    0  501  0.32925283415E+02  0.12076834800E+01 -0.92753144798E+01  0.34251673624E+02  0.12700000000E+01 0.  1.
          2    1    1    2  502    0  0.48220609945E+02 -0.30678845175E+02 -0.12096386872E+04  0.12109880976E+04  0.00000000000E+00 0. -1.
          1    1    1    2  503    0 -0.48054249961E+02  0.64848636672E+02  0.20777686958E+04  0.20793357857E+04  0.00000000000E+00 0. -1.
<mgrwt>
<rscale>  0 0.67250778E+02</rscale>
<asrwt>0</asrwt>
<pdfrwt beam="1">  1        2 0.34507013E+00 0.79133194E+02</pdfrwt>
<pdfrwt beam="2">  1        1 0.19026801E+00 0.57152592E+02</pdfrwt>
<totfact> 0.10736667E+01</totfact>
</mgrwt>
</event>
<event>
 7    1  0.5277388E-004  0.8826057E+02  0.7546771E-02  0.1313311E+00
          2   -1    0    0  503    0  0.00000000000E+00  0.00000000000E+00  0.48410631913E+03  0.48410631913E+03  0.00000000000E+00 0. -1.
          1   -1    0    0  502    0 -0.00000000000E+00 -0.00000000000E+00 -0.55389524580E+03  0.55389524580E+03  0.00000000000E+00 0. -1.
         25    2    1    2    0    0 -0.11202567904E+03  0.11901038253E+03 -0.55752641885E+02  0.21317904754E+03  0.12499490117E+03 0.  0.
          4    1    3    3  501    0 -0.11985370525E+03  0.59034204893E+02 -0.41687266573E+01  0.13367475151E+03  0.12700000000E+01 0. -1.
         -4    1    3    3    0  501  0.78280262010E+01  0.59976177634E+02 -0.51583915227E+02  0.79504296035E+02  0.12700000000E+01 0. -1.
          2    1    1    2  502    0  0.42487136725E+02 -0.72894875650E+02 -0.41080247382E+03  0.41937750557E+03  0.00000000000E+00 0. -1.
          1    1    1    2  503    0  0.69538542319E+02 -0.46115506878E+02  0.39676618904E+03  0.40544501181E+03  0.00000000000E+00 0. -1.
<mgrwt>
<rscale>  0 0.85816492E+02</rscale>
<asrwt>0</asrwt>
<pdfrwt beam="1">  1        2 0.74477895E-01 0.83440091E+02</pdfrwt>
<pdfrwt beam="2">  1        1 0.85214653E-01 0.88260574E+02</pdfrwt>
<totfact> 0.36366669E+02</totfact>
</mgrwt>
</event>
<event>
 7    1  0.5277388E-004  0.1116217E+03  0.7546771E-02  0.1425430E+00
         -2   -1    0    0    0  501 -0.00000000000E+00  0.00000000000E+00  0.16764020749E+03  0.16764020749E+03  0.00000000000E+00 0.  1.
          2   -1    0    0  503    0  0.00000000000E+00 -0.00000000000E+00 -0.10824557844E+04  0.10824557844E+04  0.00000000000E+00 0. -1.
         25    2    1    2    0    0 -0.11927533289E+03 -0.27802014108E+02 -0.20167645191E+03  0.26701848763E+03  0.12500369778E+03 0.  0.
          4    1    3    3  502    0 -0.84519464951E+02  0.33028918141E+02 -0.59517665384E+02  0.10852840542E+03  0.12700000000E+01 0. -1.
         -4    1    3    3    0  502 -0.34755867935E+02 -0.60830932249E+02 -0.14215878653E+03  0.15849008222E+03  0.12700000000E+01 0. -1.
          1    1    1    2  503    0  0.10065825892E+03  0.45974584170E+02 -0.84320490527E+03  0.85043533543E+03  0.00000000000E+00 0. -1.
         -1    1    1    2    0  501  0.18617073967E+02 -0.18172570062E+02  0.13006578029E+03  0.13264216882E+03  0.00000000000E+00 0.  1.
<mgrwt>
<rscale>  0 0.53888412E+02</rscale>
<asrwt>0</asrwt>
<pdfrwt beam="2">  1        2 0.16653167E+00 0.11162166E+03</pdfrwt>
<pdfrwt beam="1">  1       -2 0.25790800E-01 0.26016106E+02</pdfrwt>
<totfact> 0.30896884E+02</totfact>
</mgrwt>
</event>
<event>
 7    1  0.5277388E-004  0.2664418E+03  0.7546771E-02  0.1103333E+00
         -1   -1    0    0    0  501 -0.00000000000E+00  0.00000000000E+00  0.12120278961E+03  0.12120278961E+03  0.00000000000E+00 0.  1.
          1   -1    0    0  503    0  0.00000000000E+00 -0.00000000000E+00 -0.14643068087E+03  0.14643068087E+03  0.00000000000E+00 0. -1.
         25    2    1    2    0    0  0.86934170338E+02 -0.36460901815E+02 -0.36201735013E+02  0.16069885463E+03  0.12500643555E+03 0.  0.
          4    1    3    3  502    0  0.60052993724E+02 -0.56478869298E+02 -0.73559743614E+02  0.11049377138E+03  0.12700000000E+01 0. -1.
         -4    1    3    3    0  502  0.26881176614E+02  0.20017967483E+02  0.37358008601E+02  0.50205083258E+02  0.12700000000E+01 0. -1.
          2    1    1    2  503    0 -0.19888671609E+02  0.33525895193E+02  0.77719830975E+01  0.39748567624E+02  0.00000000000E+00 0. -1.
         -2    1    1    2    0  501 -0.67045498728E+02  0.29350066220E+01  0.32018606555E+01  0.67186048219E+02  0.00000000000E+00 0.  1.
<mgrwt>
<rscale>  0 0.26644179E+03</rscale>
<asrwt>0</asrwt>
<pdfrwt beam="2">  1        1 0.22527797E-01 0.26644179E+03</pdfrwt>
<pdfrwt beam="1">  1       -1 0.18646583E-01 0.26644179E+03</pdfrwt>
<totfact> 0.49065978E+03</totfact>
</mgrwt>
</event>
<event>
 7    1  0.5277388E-004  0.1482625E+03  0.7546771E-02  0.1373225E+00
          1   -1    0    0  502    0 -0.00000000000E+00  0.00000000000E+00  0.66948618308E+03  0.66948618308E+03  0.00000000000E+00 0. -1.
          2   -1    0    0  503    0  0.00000000000E+00 -0.00000000000E+00 -0.61505595202E+03  0.61505595202E+03  0.00000000000E+00 0. -1.
         25    2    1    2    0    0 -0.61275191575E+02  0.16541630908E+03 -0.10306712865E+03  0.23948982166E+03  0.12496134306E+03 0.  0.
          4    1    3    3  501    0 -0.62190112071E+02  0.72699824575E+02 -0.11085297398E+03  0.14643383923E+03  0.12700000000E+01 0. -1.
         -4    1    3    3    0  501  0.91492049561E+00  0.92716484504E+02  0.77858453294E+01  0.93055982429E+02  0.12700000000E+01 0. -1.
          2    1    1    2  502    0  0.50106172422E+02 -0.13797302509E+03  0.59180360295E+03  0.60973657315E+03  0.00000000000E+00 0. -1.
          1    1    1    2  503    0  0.11169019154E+02 -0.27443283993E+02 -0.43430624325E+03  0.43531574030E+03  0.00000000000E+00 0. -1.
<mgrwt>
<rscale>  0 0.66278778E+02</rscale>
<asrwt>0</asrwt>
<pdfrwt beam="2">  1        2 0.94623992E-01 0.29629054E+02</pdfrwt>
<pdfrwt beam="1">  1        1 0.10299788E+00 0.14826246E+03</pdfrwt>
<totfact> 0.21758648E+02</totfact>
</mgrwt>
</event>
<event>
 7    1  0.5277388E-004  0.8836908E+02  0.7546771E-02  0.1335894E+00
          2   -1    0    0  503    0  0.00000000000E+00  0.00000000000E+00  0.86045701546E+03  0.86045701546E+03  0.00000000000E+00 0. -1.
          1   -1    0    0  502    0 -0.00000000000E+00 -0.00000000000E+00 -0.13286682451E+03  0.13286682451E+03  0.00000000000E+00 0. -1.
         25    2    1    2    0    0 -0.44276245863E+01  0.12969981512E+03  0.70413834432E+02  0.19344826905E+03  0.12498991487E+03 0.  0.
          4    1    3    3  501    0  0.22162190855E+01  0.39188328586E+02  0.92105541711E+02  0.10012831986E+03  0.12700000000E+01 0.  1.
         -4    1    3    3    0  501 -0.66438436718E+01  0.90511486531E+02 -0.21691707280E+02  0.93319949193E+02  0.12700000000E+01 0.  1.
          2    1    1    2  502    0  0.40845843427E+02 -0.72027382858E+02 -0.45104097508E+02  0.94290542573E+02  0.00000000000E+00 0. -1.
          1    1    1    2  503    0 -0.36418218840E+02 -0.57672432258E+02  0.70228045403E+03  0.70558502834E+03  0.00000000000E+00 0. -1.
<mgrwt>
<rscale>  0 0.77637104E+02</rscale>
<asrwt>0</asrwt>
<pdfrwt beam="1">  1        2 0.13237800E+00 0.68208475E+02</pdfrwt>
<pdfrwt beam="2">  1        1 0.20441050E-01 0.88369076E+02</pdfrwt>
<totfact> 0.11135365E+03</totfact>
</mgrwt>
</event>
<event>
 7    1  0.5277388E-004  0.7650923E+02  0.7546771E-02  0.1376192E+00
         -2   -1    0    0    0  501 -0.00000000000E+00  0.00000000000E+00  0.32056888818E+02  0.32056888818E+02  0.00000000000E+00 0.  1.
          2   -1    0    0  503    0  0.00000000000E+00 -0.00000000000E+00 -0.14172675733E+04  0.14172675733E+04  0.00000000000E+00 0. -1.
         25    2    1    2    0    0 -0.41321652491E+02 -0.25457449765E+02 -0.45397150855E+03  0.47336063265E+03  0.12499838900E+03 0.  0.
          4    1    3    3  502    0 -0.58595061985E+02  0.35259718311E+02 -0.18978596881E+03  0.20173486531E+03  0.12700000000E+01 0. -1.
         -4    1    3    3    0  502  0.17273409494E+02 -0.60717168076E+02 -0.26418553974E+03  0.27162576734E+03  0.12700000000E+01 0. -1.
          3    1    1    2  503    0  0.15787210651E+02 -0.53762989385E+02 -0.87200706213E+03  0.87380547690E+03  0.00000000000E+00 0. -1.
         -1    1    1    2    0  501  0.25534441840E+02  0.79220439150E+02 -0.59232113849E+02  0.10215835262E+03  0.00000000000E+00 0.  1.
<mgrwt>
<rscale>  0 0.65475493E+02</rscale>
<asrwt>0</asrwt>
<pdfrwt beam="2">  1        2 0.21804120E+00 0.56032982E+02</pdfrwt>
<pdfrwt beam="1">  1       -2 0.49318282E-02 0.76509228E+02</pdfrwt>
<totfact> 0.30471721E+03</totfact>
</mgrwt>
</event>
<event>
 7    1  0.5277388E-004  0.1174224E+03  0.7546771E-02  0.1428291E+00
          1   -1    0    0  502    0 -0.00000000000E+00  0.00000000000E+00  0.14353484939E+04  0.14353484939E+04  0.00000000000E+00 0. -1.
          2   -1    0    0  503    0  0.00000000000E+00 -0.00000000000E+00 -0.27524367997E+03  0.27524367997E+03  0.00000000000E+00 0. -1.
         25    2    1    2    0    0 -0.11299029742E+03 -0.75783282530E+02 -0.41010437265E+02  0.18925147805E+03  0.12499741100E+03 0.  0.
          4    1    3    3  501    0 -0.77849358972E+02  0.20595596656E+02 -0.56509181923E+01  0.80735661701E+02  0.12700000000E+01 0. -1.
         -4    1    3    3    0  501 -0.35140938445E+02 -0.96378879186E+02 -0.35359519073E+02  0.10851581634E+03  0.12700000000E+01 0. -1.
          2    1    1    2  502    0  0.10423199267E+03  0.53225942418E+02  0.13577817710E+04  0.13628164392E+04  0.00000000000E+00 0. -1.
          1    1    1    2  503    0  0.87583047445E+01  0.22557340112E+02 -0.15666651984E+03  0.15852425661E+03  0.00000000000E+00 0. -1.
<mgrwt>
<rscale>  0 0.53304630E+02</rscale>
<asrwt>0</asrwt>
<pdfrwt beam="2">  1        2 0.42345182E-01 0.24197965E+02</pdfrwt>
<pdfrwt beam="1">  1        1 0.22082284E+00 0.11742242E+03</pdfrwt>
<totfact> 0.13551063E+02</totfact>
</mgrwt>
</event>
<event>
 7    1  0.5277388E-004  0.1011992E+03  0.7546771E-02  0.1434985E+00
         -2   -1    0    0    0  501 -0.00000000000E+00  0.00000000000E+00  0.67229684415E+02  0.67229684415E+02  0.00000000000E+00 0.  1.
          2   -1    0    0  503    0  0.00000000000E+00 -0.00000000000E+00 -0.23329673671E+04  0.23329673671E+04  0.00000000000E+00 0. -1.
         25    2    1    2    0    0 -0.29531402347E+02 -0.10093403874E+03 -0.15694672088E+04  0.15779455415E+04  0.12500011451E+03 0.  0.
          4    1    3    3  502    0 -0.54542371333E+02 -0.11793210279E+03 -0.13764392964E+04  0.13825590767E+04  0.12700000000E+01 0. -1.
         -4    1    3    3    0  502  0.25010968985E+02  0.16998064055E+02 -0.19302791241E+03  0.19538646479E+03  0.12700000000E+01 0. -1.
          1    1    1    2  503    0 -0.22593849231E+02  0.14210276849E+02 -0.71821924858E+03  0.71871503604E+03  0.00000000000E+00 0. -1.
         -1    1    1    2    0  501  0.52125251578E+02  0.86723761888E+02  0.21948774695E+02  0.10353647395E+03  0.00000000000E+00 0.  1.
<mgrwt>
<rscale>  0 0.51972255E+02</rscale>
<asrwt>0</asrwt>
<pdfrwt beam="2">  1        2 0.35891805E+00 0.26691084E+02</pdfrwt>
<pdfrwt beam="1">  1       -2 0.10343028E-01 0.10119916E+03</pdfrwt>
<totfact> 0.39811267E+02</totfact>
</mgrwt>
</event>
<event>
 7    1  0.5277388E-004  0.4989259E+02  0.7546771E-02  0.1467193E+00
          2   -1    0    0  503    0  0.00000000000E+00  0.00000000000E+00  0.21376406722E+02  0.21376406722E+02  0.00000000000E+00 0. -1.
         -2   -1    0    0    0  501 -0.00000000000E+00 -0.00000000000E+00 -0.76318128757E+03  0.76318128757E+03  0.00000000000E+00 0.  1.
         25    2    1    2    0    0 -0.14011642523E+02  0.53710186249E+02 -0.50664376040E+03  0.52478279336E+03  0.12501187950E+03 0.  0.
          4    1    3    3  502    0  0.92981299647E+01  0.61306242565E+01 -0.43760045907E+03  0.43774400561E+03  0.12700000000E+01 0. -1.
         -4    1    3    3    0  502 -0.23309772487E+02  0.47579561993E+02 -0.69043301333E+02  0.87038787743E+02  0.12700000000E+01 0. -1.
          1    1    1    2  503    0  0.45045043946E+02 -0.24355720660E+02 -0.57262907628E+02  0.76819904341E+02  0.00000000000E+00 0. -1.
         -1    1    1    2    0  501 -0.31033401424E+02 -0.29354465589E+02 -0.17789821282E+03  0.18295499659E+03  0.00000000000E+00 0.  1.
<mgrwt>
<rscale>  0 0.46165683E+02</rscale>
<asrwt>0</asrwt>
<pdfrwt beam="1">  1        2 0.32886781E-02 0.49892591E+02</pdfrwt>
<pdfrwt beam="2">  1       -2 0.11741250E+00 0.42717170E+02</pdfrwt>
<totfact> 0.14466900E+03</totfact>
</mgrwt>
</event>
<event>
 7    1  0.5277388E-004  0.7829309E+02  0.7546771E-02  0.1350043E+00
          1   -1    0    0  502    0 -0.00000000000E+00  0.00000000000E+00  0.17422437430E+03  0.17422437430E+03  0.00000000000E+00 0. -1.
          2   -1    0    0  503    0  0.00000000000E+00 -0.00000000000E+00 -0.41625277523E+03  0.41625277523E+03  0.00000000000E+00 0. -1.
         25    2    1    2    0    0 -0.28738412623E+02 -0.94819397173E+02 -0.24017072476E+03  0.28830995770E+03  0.12499616087E+03 0.  0.
          4    1    3    3  501    0 -0.25351951874E+02 -0.10512235562E+03 -0.25076861262E+03  0.27309328276E+03  0.12700000000E+01 0. -1.
         -4    1    3    3    0  501 -0.33864607496E+01  0.10302958444E+02  0.10597887855E+02  0.15216674936E+02  0.12700000000E+01 0. -1.
          2    1    1    2  502    0  0.68036284452E+02  0.39148974348E+02  0.13107772659E+03  0.15278399328E+03  0.00000000000E+00 0. -1.
          1    1    1    2  503    0 -0.39297871828E+02  0.55670422825E+02 -0.13293540275E+03  0.14938319856E+03  0.00000000000E+00 0. -1.
<mgrwt>
<rscale>  0 0.73042144E+02</rscale>
<asrwt>0</asrwt>
<pdfrwt beam="2">  1        2 0.64038888E-01 0.68143369E+02</pdfrwt>
<pdfrwt beam="1">  1        1 0.26803750E-01 0.78293089E+02</pdfrwt>
<totfact> 0.17837722E+03</totfact>
</mgrwt>
</event>
<event>
 7    1  0.5277388E-004  0.3883732E+02  0.7546771E-02  0.1542008E+00
          2   -1    0    0  503    0  0.00000000000E+00  0.00000000000E+00  0.29941564172E+04  0.29941564172E+04  0.00000000000E+00 0. -1.
          1   -1    0    0  502    0 -0.00000000000E+00 -0.00000000000E+00 -0.79562366087E+02  0.79562366087E+02  0.00000000000E+00 0. -1.
         25    2    1    2    0    0  0.35106921390E+02  0.34570531989E+02  0.22160490101E+04  0.22201180381E+04  0.12499308010E+03 0.  0.
          4    1    3    3  501    0  0.78338525843E+02  0.29717950051E+02  0.17609960942E+04  0.17629886380E+04  0.12700000000E+01 0.  1.
         -4    1    3    3    0  501 -0.43231604452E+02  0.48525819378E+01  0.45505291597E+03  0.45712940006E+03  0.12700000000E+01 0.  1.
          2    1    1    2  502    0 -0.24602112285E+01 -0.38763919885E+02 -0.72289496081E+02  0.82063788407E+02  0.00000000000E+00 0. -1.
          1    1    1    2  503    0 -0.32646710162E+02  0.41933878964E+01  0.77083453712E+03  0.77153695686E+03  0.00000000000E+00 0. -1.
<mgrwt>
<rscale>  0 0.35753707E+02</rscale>
<asrwt>0</asrwt>
<pdfrwt beam="1">  1        2 0.46063936E+00 0.32914923E+02</pdfrwt>
<pdfrwt beam="2">  1        1 0.12240366E-01 0.38837325E+02</pdfrwt>
<totfact> 0.17698404E+02</totfact>
</mgrwt>
</event>
<event>
 7    1  0.5277388E-004  0.1043778E+03  0.7546771E-02  0.1380773E+00
          2   -1    0    0  503    0  0.00000000000E+00  0.00000000000E+00  0.13938111564E+04  0.13938111564E+04  0.00000000000E+00 0. -1.
          1   -1    0    0  502    0 -0.00000000000E+00 -0.00000000000E+00 -0.73241088223E+02  0.73241088223E+02  0.00000000000E+00 0. -1.
         25    2    1    2    0    0 -0.47321731320E+02 -0.12305893806E+03  0.79719115397E+03  0.81763172459E+03  0.12500021039E+03 0.  0.
          4    1    3    3  501    0 -0.37552350160E+02 -0.50069098171E+02  0.11048191021E+03  0.12698408947E+03  0.12700000000E+01 0. -1.
         -4    1    3    3    0  501 -0.97693811592E+01 -0.72989839887E+02  0.68670924376E+03  0.69064763512E+03  0.12700000000E+01 0. -1.
          2    1    1    2  502    0  0.23475038815E+02  0.31845644308E+02 -0.52576925968E+02  0.65799359062E+02  0.00000000000E+00 0. -1.
          1    1    1    2  503    0  0.23846692505E+02  0.91213293751E+02  0.57595584014E+03  0.58362116094E+03  0.00000000000E+00 0. -1.
<mgrwt>
<rscale>  0 0.64261092E+02</rscale>
<asrwt>0</asrwt>
<pdfrwt beam="1">  1        2 0.21443247E+00 0.10437781E+03</pdfrwt>
<pdfrwt beam="2">  1        1 0.11267861E-01 0.39562893E+02</pdfrwt>
<totfact> 0.11057766E+03</totfact>
</mgrwt>
</event>
<event>
 7    1  0.5277388E-004  0.5158379E+02  0.7546771E-02  0.1504876E+00
          2   -1    0    0  503    0  0.00000000000E+00  0.00000000000E+00  0.10875350514E+04  0.10875350514E+04  0.00000000000E+00 0. -1.
         -2   -1    0    0    0  501 -0.00000000000E+00 -0.00000000000E+00 -0.17937673751E+02  0.17937673751E+02  0.00000000000E+00 0.  1.
         25    2    1    2    0    0  0.55268814443E+02 -0.52452596527E+02  0.40807327042E+03  0.43353811941E+03  0.12500236086E+03 0.  0.
          4    1    3    3  502    0 -0.85358430881E+01 -0.41831076432E+02  0.32718087171E+03  0.32995702037E+03  0.12700000000E+01 0.  1.
         -4    1    3    3    0  502  0.63804657531E+02 -0.10621520095E+02  0.80892398703E+02  0.10358109905E+03  0.12700000000E+01 0.  1.
          1    1    1    2  503    0 -0.18654761934E+02  0.25666977061E+02  0.55806447705E+03  0.55896579001E+03  0.00000000000E+00 0. -1.
         -1    1    1    2    0  501 -0.36614052509E+02  0.26785619465E+02  0.10345963022E+03  0.11296881577E+03  0.00000000000E+00 0.  1.
<mgrwt>
<rscale>  0 0.40456821E+02</rscale>
<asrwt>0</asrwt>
<pdfrwt beam="1">  1        2 0.16731303E+00 0.31730015E+02</pdfrwt>
<pdfrwt beam="2">  1       -2 0.27596430E-02 0.51583787E+02</pdfrwt>
<totfact> 0.10385021E+04</totfact>
</mgrwt>
</event>
<event>
 7    1  0.5277388E-004  0.3705112E+02  0.7546771E-02  0.1545231E+00
          1   -1    0    0  502    0 -0.00000000000E+00  0.00000000000E+00  0.25895684181E+04  0.25895684181E+04  0.00000000000E+00 0. -1.
          2   -1    0    0  503    0  0.00000000000E+00 -0.00000000000E+00 -0.27050288369E+04  0.27050288369E+04  0.00000000000E+00 0. -1.
         25    2    1    2    0    0 -0.24688269392E+01 -0.20280865768E+02 -0.59063540914E+03  0.60406292701E+03  0.12499769851E+03 0.  0.
          4    1    3    3  501    0  0.27704098375E+02 -0.62749440544E+02 -0.42260364491E+03  0.42813603323E+03  0.12700000000E+01 0.  1.
         -4    1    3    3    0  501 -0.30172925314E+02  0.42468574776E+02 -0.16803176423E+03  0.17592689378E+03  0.12700000000E+01 0.  1.
          2    1    1    2  502    0 -0.31316640040E+02  0.19812121013E+02  0.25825863049E+04  0.25828521588E+04  0.00000000000E+00 0. -1.
          1    1    1    2  503    0  0.33785466979E+02  0.46874475488E+00 -0.21074113146E+04  0.21076821692E+04  0.00000000000E+00 0. -1.
<mgrwt>
<rscale>  0 0.35382338E+02</rscale>
<asrwt>0</asrwt>
<pdfrwt beam="2">  1        2 0.41615828E+00 0.33788719E+02</pdfrwt>
<pdfrwt beam="1">  1        1 0.39839514E+00 0.37051120E+02</pdfrwt>
<totfact> 0.10872020E+00</totfact>
</mgrwt>
</event>
<event>
 7    1  0.5277388E-004  0.9446417E+02  0.7546771E-02  0.1386045E+00
          2   -1    0    0  503    0  0.00000000000E+00  0.00000000000E+00  0.68332526160E+03  0.68332526160E+03  0.00000000000E+00 0. -1.
          1   -1    0    0  502    0 -0.00000000000E+00 -0.00000000000E+00 -0.51120280364E+02  0.51120280364E+02  0.00000000000E+00 0. -1.
         25    2    1    2    0    0 -0.11106839176E+03  0.62182908447E+02  0.17633165689E+03  0.25082740560E+03  0.12497452712E+03 0.  0.
          4    1    3    3  501    0 -0.13587284900E+03  0.32958804108E+02  0.13319871768E+03  0.19310936060E+03  0.12700000000E+01 0. -1.
         -4    1    3    3    0  501  0.24804457238E+02  0.29224104339E+02  0.43132939212E+02  0.57718044998E+02  0.12700000000E+01 0. -1.
          2    1    1    2  502    0  0.41672576970E+02 -0.42065244112E+01  0.39615395058E+02  0.57651349026E+02  0.00000000000E+00 0. -1.
          1    1    1    2  503    0  0.69395814788E+02 -0.57976384035E+02  0.41625792929E+03  0.42596678734E+03  0.00000000000E+00 0. -1.
<mgrwt>
<rscale>  0 0.62901271E+02</rscale>
<asrwt>0</asrwt>
<pdfrwt beam="1">  1        2 0.10512696E+00 0.94464165E+02</pdfrwt>
<pdfrwt beam="2">  1        1 0.78646590E-02 0.41884347E+02</pdfrwt>
<totfact> 0.46775105E+03</totfact>
</mgrwt>
</event>
<event>
 7    1  0.5277388E-004  0.4474019E+02  0.7546771E-02  0.1522829E+00
         -2   -1    0    0    0  501 -0.00000000000E+00  0.00000000000E+00  0.27078022484E+03  0.27078022484E+03  0.00000000000E+00 0.  1.
          2   -1    0    0  503    0  0.00000000000E+00 -0.00000000000E+00 -0.62248893126E+03  0.62248893126E+03  0.00000000000E+00 0. -1.
         25    2    1    2    0    0  0.22556845401E+02 -0.73600801036E+01  0.88956672523E+02  0.15524457197E+03  0.12499842194E+03 0.  0.
          4    1    3    3  502    0  0.13855611179E+02 -0.36240447042E+02 -0.18947435003E+02  0.43196830394E+02  0.12700000000E+01 0.  1.
         -4    1    3    3    0  502  0.87012342214E+01  0.28880366938E+02  0.10790410753E+03  0.11204774158E+03  0.12700000000E+01 0.  1.
          1    1    1    2  503    0  0.42323526283E+01 -0.32135128396E+02 -0.58505521482E+03  0.58595237322E+03  0.00000000000E+00 0. -1.
         -1    1    1    2    0  501 -0.26789198029E+02  0.39495208499E+02  0.14438983588E+03  0.15207221091E+03  0.00000000000E+00 0.  1.
<mgrwt>
<rscale>  0 0.38080806E+02</rscale>
<asrwt>0</asrwt>
<pdfrwt beam="2">  1        2 0.95767527E-01 0.32412641E+02</pdfrwt>
<pdfrwt beam="1">  1       -2 0.41658497E-01 0.44740193E+02</pdfrwt>
<totfact> 0.27833035E+02</totfact>
</mgrwt>
</event>
<event>
 7    1  0.5277388E-004  0.1077908E+03  0.7546771E-02  0.1354829E+00
         -1   -1    0    0    0  501 -0.00000000000E+00  0.00000000000E+00  0.77753935313E+03  0.77753935313E+03  0.00000000000E+00 0.  1.
          1   -1    0    0  503    0  0.00000000000E+00 -0.00000000000E+00 -0.15277561708E+04  0.15277561708E+04  0.00000000000E+00 0. -1.
         25    2    1    2    0    0  0.43886580593E+02 -0.51565089530E+02 -0.24090621368E+03  0.27972621582E+03  0.12500384639E+03 0.  0.
          4    1    3    3  502    0  0.62436844312E+02 -0.81060190035E+02 -0.20788570037E+03  0.23170496597E+03  0.12700000000E+01 0.  1.
         -4    1    3    3    0  502 -0.18550263719E+02  0.29495100505E+02 -0.33020513311E+02  0.48021249850E+02  0.12700000000E+01 0.  1.
          2    1    1    2  503    0  0.46888557552E+02 -0.77367347189E+01 -0.12631139169E+04  0.12640075795E+04  0.00000000000E+00 0. -1.
         -2    1    1    2    0  501 -0.90775138144E+02  0.59301824249E+02  0.75380331288E+03  0.76156172867E+03  0.00000000000E+00 0.  1.
<mgrwt>
<rscale>  0 0.71571603E+02</rscale>
<asrwt>0</asrwt>
<pdfrwt beam="2">  1        1 0.23503941E+00 0.47522562E+02</pdfrwt>
<pdfrwt beam="1">  1       -1 0.11962144E+00 0.10779079E+03</pdfrwt>
<totfact> 0.57820692E+00</totfact>
</mgrwt>
</event>
<event>
 7    1  0.5277388E-004  0.1573376E+03  0.7546771E-02  0.1230359E+00
          2   -1    0    0  503    0  0.00000000000E+00  0.00000000000E+00  0.16684335520E+04  0.16684335520E+04  0.00000000000E+00 0. -1.
          1   -1    0    0  502    0 -0.00000000000E+00 -0.00000000000E+00 -0.12063033282E+04  0.12063033282E+04  0.00000000000E+00 0. -1.
         25    2    1    2    0    0 -0.81573934632E+02 -0.23045199354E+03  0.67723916621E+03  0.73078061894E+03  0.12499998654E+03 0.  0.
          4    1    3    3  501    0  0.27735770594E+02 -0.55051242285E+02  0.98090792777E+02  0.11585909017E+03  0.12700000000E+01 0. -1.
         -4    1    3    3    0  501 -0.10930970523E+03 -0.17540075126E+03  0.57914837343E+03  0.61492152877E+03  0.12700000000E+01 0. -1.
          2    1    1    2  502    0  0.41415542698E+02  0.95654021167E+02 -0.11720791463E+04  0.11767049181E+04  0.00000000000E+00 0. -1.
          1    1    1    2  503    0  0.40158391933E+02  0.13479797238E+03  0.95697020386E+03  0.96725134318E+03  0.00000000000E+00 0. -1.
<mgrwt>
<rscale>  0 0.12806285E+03</rscale>
<asrwt>0</asrwt>
<pdfrwt beam="1">  1        2 0.25668208E+00 0.15733765E+03</pdfrwt>
<pdfrwt beam="2">  1        1 0.18558513E+00 0.10423502E+03</pdfrwt>
<totfact> 0.19531468E+01</totfact>
</mgrwt>
</event>
<event>
 7    1  0.5277388E-004  0.5127597E+02  0.7546771E-02  0.1510791E+00
         -2   -1    0    0    0  501  0.00000000000E+00  0.00000000000E+00  0.11228503768E+04  0.11228503768E+04  0.00000000000E+00 0.  1.
         -1   -1    0    0    0  502 -0.00000000000E+00 -0.00000000000E+00 -0.56801506393E+02  0.56801506393E+02  0.00000000000E+00 0.  1.
         25    2    1    2    0    0  0.15918860781E+02 -0.34182281698E+02  0.18933091648E+03  0.22998848337E+03  0.12500667197E+03 0.  0.
          4    1    3    3  503    0 -0.14329838183E+02 -0.76588955187E+02  0.10310118527E+03  0.12923884719E+03  0.12700000000E+01 0.  1.
         -4    1    3    3    0  503  0.30248698964E+02  0.42406673489E+02  0.86229731207E+02  0.10074963618E+03  0.12700000000E+01 0.  1.
         -2    1    1    2    0  502  0.87522494942E+01  0.52390120289E+02 -0.16730653358E+02  0.55688790047E+02  0.00000000000E+00 0.  1.
         -1    1    1    2    0  501 -0.24671110275E+02 -0.18207838592E+02  0.89344860725E+03  0.89397460974E+03  0.00000000000E+00 0.  1.
<mgrwt>
<rscale>  0 0.39651603E+02</rscale>
<asrwt>0</asrwt>
<pdfrwt beam="1">  1       -2 0.17274619E+00 0.30662503E+02</pdfrwt>
<pdfrwt beam="2">  1       -1 0.87386941E-02 0.51275972E+02</pdfrwt>
<totfact> 0.12193461E+02</totfact>
</mgrwt>
</event>
<event>
 7    1  0.5277388E-004  0.1032722E+03  0.7546771E-02  0.1306884E+00
          2   -1    0    0  503    0  0.00000000000E+00  0.00000000000E+00  0.23982186801E+03  0.23982186801E+03  0.00000000000E+00 0. -1.
          1   -1    0    0  502    0 -0.00000000000E+00 -0.00000000000E+00 -0.12137679302E+04  0.12137679302E+04  0.00000000000E+00 0. -1.
         25    2    1    2    0    0 -0.21172010544E+02 -0.57094548449E+02 -0.83912228435E+02  0.16239677318E+03  0.12499363330E+03 0.  0.
          4    1    3    3  501    0  0.37596634800E+01 -0.93789921830E+02 -0.64842677897E+02  0.11409149961E+03  0.12700000000E+01 0.  1.
         -4    1    3    3    0  501 -0.24931674024E+02  0.36695373381E+02 -0.19069550538E+02  0.48305273572E+02  0.12700000000E+01 0.  1.
          2    1    1    2  502    0  0.96149218849E+02  0.47462535497E+02 -0.10807425673E+04  0.10860487380E+04  0.00000000000E+00 0. -1.
          1    1    1    2  503    0 -0.74977208305E+02  0.96320129521E+01  0.19070873356E+03  0.20514428701E+03  0.00000000000E+00 0. -1.
<mgrwt>
<rscale>  0 0.88355480E+02</rscale>
<asrwt>0</asrwt>
<pdfrwt beam="1">  1        2 0.36895672E-01 0.75593369E+02</pdfrwt>
<pdfrwt beam="2">  1        1 0.18673353E+00 0.10327216E+03</pdfrwt>
<totfact> 0.22586835E+02</totfact>
</mgrwt>
</event>
<event>
 7    1  0.5277388E-004  0.1014794E+03  0.7546771E-02  0.1289927E+00
          2   -1    0    0  503    0  0.00000000000E+00  0.00000000000E+00  0.15784660859E+04  0.15784660859E+04  0.00000000000E+00 0. -1.
          1   -1    0    0  502    0 -0.00000000000E+00 -0.00000000000E+00 -0.92646695193E+03  0.92646695193E+03  0.00000000000E+00 0. -1.
         25    2    1    2    0    0  0.21790364412E+02  0.73679923622E+02  0.37480547313E+00  0.14672513346E+03  0.12499829272E+03 0.  0.
          4    1    3    3  501    0  0.36528247973E+02 -0.73065059751E+01 -0.40303767197E+02  0.54897217414E+02  0.12700000000E+01 0. -1.
         -4    1    3    3    0  501 -0.14737883561E+02  0.80986429597E+02  0.40678572670E+02  0.91827916045E+02  0.12700000000E+01 0. -1.
          2    1    1    2  502    0  0.68049424739E+02 -0.78690803863E+02 -0.84876800673E+03  0.85511993081E+03  0.00000000000E+00 0. -1.
          1    1    1    2  503    0 -0.89839789151E+02  0.50108802409E+01  0.15003923352E+04  0.15030879735E+04  0.00000000000E+00 0. -1.
<mgrwt>
<rscale>  0 0.95556577E+02</rscale>
<asrwt>0</asrwt>
<pdfrwt beam="1">  1        2 0.24284094E+00 0.89979423E+02</pdfrwt>
<pdfrwt beam="2">  1        1 0.14253338E+00 0.10147942E+03</pdfrwt>
<totfact> 0.36012367E+01</totfact>
</mgrwt>
</event>
<event>
 7    1  0.5277388E-004  0.8630411E+02  0.7546771E-02  0.1354585E+00
          2   -1    0    0  503    0  0.00000000000E+00  0.00000000000E+00  0.18621087414E+04  0.18621087414E+04  0.00000000000E+00 0. -1.
          1   -1    0    0  502    0 -0.00000000000E+00 -0.00000000000E+00 -0.10856472018E+03  0.10856472018E+03  0.00000000000E+00 0. -1.
         25    2    1    2    0    0  0.12520663132E+02  0.69574259182E+02  0.43913370873E+03  0.46202072209E+03  0.12500955545E+03 0.  0.
          4    1    3    3  501    0  0.24069413297E+02 -0.15206191187E+02  0.21470575167E+02  0.35681415399E+02  0.12700000000E+01 0. -1.
         -4    1    3    3    0  501 -0.11548750164E+02  0.84780450370E+02  0.41766313356E+03  0.42633930669E+03  0.12700000000E+01 0. -1.
          2    1    1    2  502    0 -0.58949049945E+02  0.79066567792E+01 -0.86422290693E+02  0.10491100056E+03  0.00000000000E+00 0. -1.
          1    1    1    2  503    0  0.46428386813E+02 -0.77480915961E+02  0.14008326032E+04  0.14037417389E+04  0.00000000000E+00 0. -1.
<mgrwt>
<rscale>  0 0.71645681E+02</rscale>
<asrwt>0</asrwt>
<pdfrwt beam="1">  1        2 0.28647824E+00 0.86304106E+02</pdfrwt>
<pdfrwt beam="2">  1        1 0.16702266E-01 0.59476934E+02</pdfrwt>
<totfact> 0.40655840E+02</totfact>
</mgrwt>
</event>
<event>
 7    1  0.5277388E-004  0.9849035E+02  0.7546771E-02  0.1390415E+00
          2   -1    0    0  503    0  0.00000000000E+00  0.00000000000E+00  0.36045935240E+04  0.36045935240E+04  0.00000000000E+00 0. -1.
          1   -1    0    0  502    0 -0.00000000000E+00 -0.00000000000E+00 -0.29815237932E+02  0.29815237932E+02  0.00000000000E+00 0. -1.
         25    2    1    2    0    0 -0.99377054979E+02 -0.26915132708E+01  0.23914681876E+03  0.28757608709E+03  0.12500304654E+03 0.  0.
          4    1    3    3  501    0 -0.12432149744E+03 -0.22805611954E+02  0.17519728685E+03  0.21603618419E+03  0.12700000000E+01 0. -1.
         -4    1    3    3    0  501  0.24944442457E+02  0.20114098684E+02  0.63949531908E+02  0.71539902897E+02  0.12700000000E+01 0. -1.
          2    1    1    2  502    0  0.95144464918E+02 -0.35859171795E+02  0.46707356409E+03  0.47801261875E+03  0.00000000000E+00 0. -1.
          1    1    1    2  503    0  0.42325900613E+01  0.38550685066E+02  0.28685579032E+04  0.28688200561E+04  0.00000000000E+00 0. -1.
<mgrwt>
<rscale>  0 0.61803614E+02</rscale>
<asrwt>0</asrwt>
<pdfrwt beam="1">  1        2 0.55455250E+00 0.38782343E+02</pdfrwt>
<pdfrwt beam="2">  1        1 0.45869625E-02 0.98490354E+02</pdfrwt>
<totfact> 0.29428979E+02</totfact>
</mgrwt>
</event>
<event>
 7    1  0.5277388E-004  0.5559252E+02  0.7546771E-02  0.1462005E+00
          1   -1    0    0  502    0 -0.00000000000E+00  0.00000000000E+00  0.47959972850E+02  0.47959972850E+02  0.00000000000E+00 0. -1.
          2   -1    0    0  503    0  0.00000000000E+00 -0.00000000000E+00 -0.69304865042E+03  0.69304865042E+03  0.00000000000E+00 0. -1.
         25    2    1    2    0    0 -0.35152193857E+02  0.38745056955E+02 -0.12790680741E+03  0.18633722292E+03  0.12499821235E+03 0.  0.
          4    1    3    3  501    0 -0.51070931319E+02  0.30280845194E+01 -0.13693421702E+03  0.14618482142E+03  0.12700000000E+01 0. -1.
         -4    1    3    3    0  501  0.15918737462E+02  0.35716972436E+02  0.90274096052E+01  0.40152401504E+02  0.12700000000E+01 0. -1.
          2    1    1    2  502    0  0.59441850875E+02 -0.72162999533E+01 -0.32062456954E+02  0.67922085999E+02  0.00000000000E+00 0. -1.
          1    1    1    2  503    0 -0.24289657018E+02 -0.31528757002E+02 -0.48511941320E+03  0.48674931435E+03  0.00000000000E+00 0. -1.
<mgrwt>
<rscale>  0 0.47038169E+02</rscale>
<asrwt>0</asrwt>
<pdfrwt beam="2">  1        2 0.10662286E+00 0.39800125E+02</pdfrwt>
<pdfrwt beam="1">  1        1 0.73784577E-02 0.55592522E+02</pdfrwt>
<totfact> 0.52590761E+03</totfact>
</mgrwt>
</event>
<event>
 7    1  0.5277388E-004  0.5549930E+02  0.7546771E-02  0.1473519E+00
          2   -1    0    0  503    0  0.00000000000E+00  0.00000000000E+00  0.15169630720E+04  0.15169630720E+04  0.00000000000E+00 0. -1.
          1   -1    0    0  502    0 -0.00000000000E+00 -0.00000000000E+00 -0.51423293015E+02  0.51423293015E+02  0.00000000000E+00 0. -1.
         25    2    1    2    0    0  0.60899537321E+02 -0.46955543842E+02  0.50640676057E+03  0.52724246680E+03  0.12499293941E+03 0.  0.
          4    1    3    3  501    0 -0.35294101391E-01  0.13303987220E+02 -0.27051320318E+00  0.13367250990E+02  0.12700000000E+01 0. -1.
         -4    1    3    3    0  501  0.60934831422E+02 -0.60259531062E+02  0.50667727378E+03  0.51387521581E+03  0.12700000000E+01 0. -1.
          2    1    1    2  502    0 -0.36656033877E+02 -0.18218818373E+01 -0.31892747786E+02  0.48622334728E+02  0.00000000000E+00 0. -1.
          1    1    1    2  503    0 -0.24243503444E+02  0.48777425679E+02  0.99102576617E+03  0.99252156346E+03  0.00000000000E+00 0. -1.
<mgrwt>
<rscale>  0 0.45131977E+02</rscale>
<asrwt>0</asrwt>
<pdfrwt beam="1">  1        2 0.23337890E+00 0.55499298E+02</pdfrwt>
<pdfrwt beam="2">  1        1 0.79112770E-02 0.36701282E+02</pdfrwt>
<totfact> 0.15701978E+03</totfact>
</mgrwt>
</event>
<event>
 7    1  0.5277388E-004  0.2537127E+02  0.7546771E-02  0.1662536E+00
         -2   -1    0    0    0  501 -0.00000000000E+00  0.00000000000E+00  0.58933512300E+02  0.58933512300E+02  0.00000000000E+00 0.  1.
          2   -1    0    0  503    0  0.00000000000E+00 -0.00000000000E+00 -0.84650320890E+03  0.84650320890E+03  0.00000000000E+00 0. -1.
         25    2    1    2    0    0 -0.42008943963E+00  0.69475441926E+01 -0.87668020024E+02  0.15283639414E+03  0.12499934718E+03 0.  0.
          4    1    3    3  502    0 -0.34616969308E+02 -0.26109045702E+01  0.19565804668E+02  0.39869599936E+02  0.12700000000E+01 0. -1.
         -4    1    3    3    0  502  0.34196879869E+02  0.95584487627E+01 -0.10723382469E+03  0.11296679421E+03  0.12700000000E+01 0. -1.
          3    1    1    2  503    0  0.25352330069E+02 -0.98008052646E+00 -0.71973842075E+03  0.72018545910E+03  0.00000000000E+00 0. -1.
         -1    1    1    2    0  501 -0.24932240630E+02 -0.59674636661E+01  0.19836744170E+02  0.32414867957E+02  0.00000000000E+00 0.  1.
<mgrwt>
<rscale>  0 0.24893518E+02</rscale>
<asrwt>0</asrwt>
<pdfrwt beam="2">  1        2 0.13023125E+00 0.25371267E+02</pdfrwt>
<pdfrwt beam="1">  1       -2 0.90666948E-02 0.24424766E+02</pdfrwt>
<totfact> 0.23371179E+03</totfact>
</mgrwt>
</event>
<event>
 7    1  0.5277388E-004  0.8224711E+02  0.7546771E-02  0.1378220E+00
         -2   -1    0    0    0  501 -0.00000000000E+00  0.00000000000E+00  0.10596641132E+03  0.10596641132E+03  0.00000000000E+00 0.  1.
          2   -1    0    0  503    0  0.00000000000E+00 -0.00000000000E+00 -0.77807099966E+03  0.77807099966E+03  0.00000000000E+00 0. -1.
         25    2    1    2    0    0 -0.78122288463E+02 -0.10419639758E+03 -0.46535541604E+02  0.18641604704E+03  0.12500161894E+03 0.  0.
          4    1    3    3  502    0  0.57449187449E+01 -0.78865212425E+02  0.13465129708E+02  0.80222493357E+02  0.12700000000E+01 0. -1.
         -4    1    3    3    0  502 -0.83867207208E+02 -0.25331185152E+02 -0.60000671311E+02  0.10619355368E+03  0.12700000000E+01 0. -1.
          1    1    1    2  503    0  0.55888090253E+02  0.58003786240E+02 -0.63945566433E+03  0.64450870009E+03  0.00000000000E+00 0. -1.
         -3    1    1    2    0  501  0.22234198209E+02  0.46192611337E+02  0.13886617592E+02  0.53112663841E+02  0.00000000000E+00 0.  1.
<mgrwt>
<rscale>  0 0.64933902E+02</rscale>
<asrwt>0</asrwt>
<pdfrwt beam="2">  1        2 0.11970323E+00 0.82247114E+02</pdfrwt>
<pdfrwt beam="1">  1       -2 0.16302524E-01 0.51265163E+02</pdfrwt>
<totfact> 0.10616674E+03</totfact>
</mgrwt>
</event>
<event>
 7    1  0.5277388E-004  0.6275900E+02  0.7546771E-02  0.1514943E+00
          1   -1    0    0  502    0 -0.00000000000E+00  0.00000000000E+00  0.11380938450E+03  0.11380938450E+03  0.00000000000E+00 0. -1.
          2   -1    0    0  503    0  0.00000000000E+00 -0.00000000000E+00 -0.26764441430E+03  0.26764441430E+03  0.00000000000E+00 0. -1.
         25    2    1    2    0    0  0.35088453731E+02  0.36859500107E+02 -0.61195889649E+02  0.14818828230E+03  0.12500003108E+03 0.  0.
          4    1    3    3  501    0  0.33398537160E+02  0.26396393755E+02  0.32695473697E+02  0.53692073791E+02  0.12700000000E+01 0. -1.
         -4    1    3    3    0  501  0.16899165716E+01  0.10463106352E+02 -0.93891363346E+02  0.94496208514E+02  0.12700000000E+01 0. -1.
          2    1    1    2  502    0 -0.90009307116E+01  0.22635728516E+02  0.61417500005E+02  0.66071947648E+02  0.00000000000E+00 0. -1.
          1    1    1    2  503    0 -0.26087523020E+02 -0.59495228623E+02 -0.15405664016E+03  0.16719356885E+03  0.00000000000E+00 0. -1.
<mgrwt>
<rscale>  0 0.39099716E+02</rscale>
<asrwt>0</asrwt>
<pdfrwt beam="2">  1        2 0.41176063E-01 0.62759000E+02</pdfrwt>
<pdfrwt beam="1">  1        1 0.17509136E-01 0.24359658E+02</pdfrwt>
<totfact> 0.44974988E+03</totfact>
</mgrwt>
</event>
<event>
 7    1  0.5277388E-004  0.1793261E+03  0.7546771E-02  0.1311138E+00
          2   -1    0    0  503    0  0.00000000000E+00  0.00000000000E+00  0.24964031068E+04  0.24964031068E+04  0.00000000000E+00 0. -1.
         -2   -1    0    0    0  501 -0.00000000000E+00 -0.00000000000E+00 -0.18166940949E+03  0.18166940949E+03  0.00000000000E+00 0.  1.
         25    2    1    2    0    0 -0.14034424404E+03  0.14003655246E+02  0.99126387246E+03  0.10090203643E+04  0.12500168604E+03 0.  0.
          4    1    3    3  502    0 -0.15229414136E+03  0.12710362886E+02  0.98192250588E+03  0.99374467509E+03  0.12700000000E+01 0. -1.
         -4    1    3    3    0  502  0.11949897316E+02  0.12932923600E+01  0.93413665833E+01  0.15275689203E+02  0.12700000000E+01 0. -1.
          1    1    1    2  503    0 -0.40767473525E+02 -0.95993912023E+01  0.14483886420E+04  0.14489940626E+04  0.00000000000E+00 0. -1.
         -1    1    1    2    0  501  0.18111171757E+03 -0.44042640439E+01 -0.12491881721E+03  0.22005808932E+03  0.00000000000E+00 0.  1.
<mgrwt>
<rscale>  0 0.86663750E+02</rscale>
<asrwt>0</asrwt>
<pdfrwt beam="1">  1        2 0.38406199E+00 0.41882397E+02</pdfrwt>
<pdfrwt beam="2">  1       -2 0.27949142E-01 0.17932607E+03</pdfrwt>
<totfact> 0.60469298E+01</totfact>
</mgrwt>
</event>
<event>
 7    1  0.5277388E-004  0.6142348E+02  0.7546771E-02  0.1399859E+00
          1   -1    0    0  502    0 -0.00000000000E+00  0.00000000000E+00  0.13522873180E+04  0.13522873180E+04  0.00000000000E+00 0. -1.
          2   -1    0    0  503    0  0.00000000000E+00 -0.00000000000E+00 -0.91578999866E+03  0.91578999866E+03  0.00000000000E+00 0. -1.
         25    2    1    2    0    0  0.67778370637E+02  0.28130133006E+02 -0.36083590305E+03  0.38884888176E+03  0.12496276250E+03 0.  0.
          4    1    3    3  501    0  0.27339427805E+02 -0.29581699023E+02 -0.29100562546E+02  0.49708921436E+02  0.12700000000E+01 0.  1.
         -4    1    3    3    0  501  0.40438942831E+02  0.57711832029E+02 -0.33173534050E+03  0.33913996033E+03  0.12700000000E+01 0.  1.
          2    1    1    2  502    0 -0.18757928889E+02 -0.58516671945E+02  0.13360353358E+04  0.13374477482E+04  0.00000000000E+00 0. -1.
          1    1    1    2  503    0 -0.49020441747E+02  0.30386538940E+02 -0.53870211340E+03  0.54178068666E+03  0.00000000000E+00 0. -1.
<mgrwt>
<rscale>  0 0.59519467E+02</rscale>
<asrwt>0</asrwt>
<pdfrwt beam="2">  1        2 0.14089077E+00 0.57674478E+02</pdfrwt>
<pdfrwt beam="1">  1        1 0.20804420E+00 0.61423476E+02</pdfrwt>
<totfact> 0.44675201E+01</totfact>
</mgrwt>
</event>
<event>
 7    1  0.5277388E-004  0.2235102E+03  0.7546771E-02  0.1257973E+00
         -1   -1    0    0    0  501 -0.00000000000E+00  0.00000000000E+00  0.43713004595E+03  0.43713004595E+03  0.00000000000E+00 0.  1.
          1   -1    0    0  503    0  0.00000000000E+00 -0.00000000000E+00 -0.90277173900E+03  0.90277173900E+03  0.00000000000E+00 0. -1.
         25    2    1    2    0    0 -0.24749292647E+03  0.84984336743E+02 -0.33887955140E+03  0.44602643146E+03  0.12500056424E+03 0.  0.
          4    1    3    3  502    0 -0.24460448366E+03  0.58109096991E+02 -0.33475625654E+03  0.41865425445E+03  0.12700000000E+01 0. -1.
         -4    1    3    3    0  502 -0.28884428040E+01  0.26875239752E+02 -0.41232948652E+01  0.27372177007E+02  0.12700000000E+01 0. -1.
          2    1    1    2  503    0  0.20127540116E+03 -0.54189284059E+02 -0.48681567605E+03  0.52956375260E+03  0.00000000000E+00 0. -1.
         -2    1    1    2    0  501  0.46217525308E+02 -0.30795052684E+02  0.36005353439E+03  0.36431160089E+03  0.00000000000E+00 0.  1.
<mgrwt>
<rscale>  0 0.11141436E+03</rscale>
<asrwt>0</asrwt>
<pdfrwt beam="2">  1        1 0.13888796E+00 0.22351022E+03</pdfrwt>
<pdfrwt beam="1">  1       -1 0.67250777E-01 0.55537329E+02</pdfrwt>
<totfact> 0.46878590E+01</totfact>
</mgrwt>
</event>
<event>
 7    1  0.5277388E-004  0.9086887E+02  0.7546771E-02  0.1310203E+00
         -1   -1    0    0    0  501 -0.00000000000E+00  0.00000000000E+00  0.14563280410E+03  0.14563280410E+03  0.00000000000E+00 0.  1.
          1   -1    0    0  503    0  0.00000000000E+00 -0.00000000000E+00 -0.11142214337E+04  0.11142214337E+04  0.00000000000E+00 0. -1.
         25    2    1    2    0    0  0.14707623271E+01  0.24146545260E-01 -0.16198012606E+03  0.20460860403E+03  0.12499982352E+03 0.  0.
          4    1    3    3  502    0 -0.20391796549E+02 -0.42302063261E+01  0.15336059758E+02  0.25894548480E+02  0.12700000000E+01 0.  1.
         -4    1    3    3    0  502  0.21862558876E+02  0.42543528714E+01 -0.17731618581E+03  0.17871405555E+03  0.12700000000E+01 0.  1.
          2    1    1    2  503    0 -0.91016988415E+02  0.15423344600E+02 -0.91167401680E+03  0.91633590164E+03  0.00000000000E+00 0. -1.
         -2    1    1    2    0  501  0.89546226088E+02 -0.15447491145E+02  0.10506551328E+03  0.13890973209E+03  0.00000000000E+00 0.  1.
<mgrwt>
<rscale>  0 0.87031779E+02</rscale>
<asrwt>0</asrwt>
<pdfrwt beam="2">  1        1 0.17141868E+00 0.83356715E+02</pdfrwt>
<pdfrwt beam="1">  1       -1 0.22405048E-01 0.90868870E+02</pdfrwt>
<totfact> 0.23432647E+02</totfact>
</mgrwt>
</event>
<event>
 7    1  0.5277388E-004  0.5716047E+02  0.7546771E-02  0.1521949E+00
          1   -1    0    0  502    0 -0.00000000000E+00  0.00000000000E+00  0.21830204632E+04  0.21830204632E+04  0.00000000000E+00 0. -1.
          2   -1    0    0  503    0  0.00000000000E+00 -0.00000000000E+00 -0.10780949100E+03  0.10780949100E+03  0.00000000000E+00 0. -1.
         25    2    1    2    0    0 -0.80930174889E+02 -0.42645282278E+00  0.74883469758E+03  0.76349219066E+03  0.12496817931E+03 0.  0.
          4    1    3    3  501    0 -0.35269063797E+01 -0.44775925553E+02  0.11597967125E+03  0.12437933760E+03  0.12700000000E+01 0.  1.
         -4    1    3    3    0  501 -0.77403268509E+02  0.44349472731E+02  0.63285502633E+03  0.63911285307E+03  0.12700000000E+01 0.  1.
          2    1    1    2  502    0  0.55413398008E+02  0.90076254476E-01  0.14246894037E+04  0.14257666534E+04  0.00000000000E+00 0. -1.
          1    1    1    2  503    0  0.25516776881E+02  0.33637656831E+00 -0.98313129140E+02  0.10157111013E+03  0.00000000000E+00 0. -1.
<mgrwt>
<rscale>  0 0.38192639E+02</rscale>
<asrwt>0</asrwt>
<pdfrwt beam="2">  1        2 0.16586077E-01 0.25518994E+02</pdfrwt>
<pdfrwt beam="1">  1        1 0.33584927E+00 0.57160468E+02</pdfrwt>
<totfact> 0.13192392E+02</totfact>
</mgrwt>
</event>
<event>
 7    1  0.5277388E-004  0.7549780E+02  0.7546771E-02  0.1342521E+00
          2   -1    0    0  503    0  0.00000000000E+00  0.00000000000E+00  0.13165210010E+03  0.13165210010E+03  0.00000000000E+00 0. -1.
          1   -1    0    0  502    0 -0.00000000000E+00 -0.00000000000E+00 -0.13838623458E+04  0.13838623458E+04  0.00000000000E+00 0. -1.
         25    2    1    2    0    0 -0.72068638805E+02 -0.42489413581E+01 -0.82350667626E+03  0.83605224073E+03  0.12493262658E+03 0.  0.
          4    1    3    3  501    0 -0.62552539932E+02 -0.77235804078E+01 -0.15313987038E+03  0.16560768927E+03  0.12700000000E+01 0. -1.
         -4    1    3    3    0  501 -0.95160988737E+01  0.34746390498E+01 -0.67036680589E+03  0.67044455146E+03  0.12700000000E+01 0. -1.
          2    1    1    2  502    0  0.39481106627E+02 -0.64351840834E+02 -0.53970809246E+03  0.54496306505E+03  0.00000000000E+00 0. -1.
          1    1    1    2  503    0  0.32587532178E+02  0.68600782192E+02  0.11100452300E+03  0.13449914014E+03  0.00000000000E+00 0. -1.
<mgrwt>
<rscale>  0 0.75437714E+02</rscale>
<asrwt>0</asrwt>
<pdfrwt beam="1">  1        2 0.20254169E-01 0.75377680E+02</pdfrwt>
<pdfrwt beam="2">  1        1 0.21290190E+00 0.75497796E+02</pdfrwt>
<totfact> 0.34132455E+02</totfact>
</mgrwt>
</event>
<event>
 7    1  0.5277388E-004  0.9141228E+02  0.7546771E-02  0.1429259E+00
          2   -1    0    0  503    0  0.00000000000E+00  0.00000000000E+00  0.74469625520E+03  0.74469625520E+03  0.00000000000E+00 0. -1.
         -2   -1    0    0    0  501 -0.00000000000E+00 -0.00000000000E+00 -0.34993626157E+03  0.34993626157E+03  0.00000000000E+00 0.  1.
         25    2    1    2    0    0  0.59863419085E+02 -0.21689648985E+02  0.98857512930E+02  0.17161294254E+03  0.12499649742E+03 0.  0.
          4    1    3    3  502    0  0.43593059605E+02 -0.73171792831E+02  0.49922245862E+02  0.98733528468E+02  0.12700000000E+01 0. -1.
         -4    1    3    3    0  502  0.16270359480E+02  0.51482143847E+02  0.48935267068E+02  0.72879414074E+02  0.12700000000E+01 0. -1.
          1    1    1    2  503    0  0.30808919519E+02  0.16950727028E+01  0.60218364119E+03  0.60297363169E+03  0.00000000000E+00 0. -1.
         -1    1    1    2    0  501 -0.90672338604E+02  0.19994576282E+02 -0.30628116049E+03  0.32004594254E+03  0.00000000000E+00 0.  1.
<mgrwt>
<rscale>  0 0.53109068E+02</rscale>
<asrwt>0</asrwt>
<pdfrwt beam="1">  1        2 0.11456865E+00 0.30855515E+02</pdfrwt>
<pdfrwt beam="2">  1       -2 0.53836348E-01 0.91412285E+02</pdfrwt>
<totfact> 0.14048077E+02</totfact>
</mgrwt>
</event>
<event>
 7    1  0.6026900E-004  0.3286791E+02  0.7546771E-02  0.1573685E+00
          1   -1    0    0  502    0 -0.00000000000E+00  0.00000000000E+00  0.16318837849E+04  0.16318837849E+04  0.00000000000E+00 0. -1.
          2   -1    0    0  503    0  0.00000000000E+00 -0.00000000000E+00 -0.16550929060E+04  0.16550929060E+04  0.00000000000E+00 0. -1.
         25    2    1    2    0    0 -0.17377198664E+02  0.28046082750E+02  0.15917470914E+03  0.20506259255E+03  0.12500211614E+03 0.  0.
          4    1    3    3  501    0  0.16177147613E+02  0.99865809559E+01 -0.16557022620E+02  0.25242420687E+02  0.12700000000E+01 0.  1.
         -4    1    3    3    0  501 -0.33554346276E+02  0.18059501794E+02  0.17573173176E+03  0.17982017186E+03  0.12700000000E+01 0.  1.
          2    1    1    2  502    0 -0.15503362290E+02 -0.27763555854E+02  0.14494251171E+04  0.14497738925E+04  0.00000000000E+00 0. -1.
          1    1    1    2  503    0  0.32880560953E+02 -0.28252689609E+00 -0.16318089473E+04  0.16321402059E+04  0.00000000000E+00 0. -1.
<mgrwt>
<rscale>  0 0.32328983E+02</rscale>
<asrwt>0</asrwt>
<pdfrwt beam="2">  1        2 0.25462968E+00 0.32867915E+02</pdfrwt>
<pdfrwt beam="1">  1        1 0.25105904E+00 0.31798888E+02</pdfrwt>
<totfact> 0.13842984E+01</totfact>
</mgrwt>
</event>
<event>
 7    1  0.5277388E-004  0.9906590E+02  0.7546771E-02  0.1357881E+00
          2   -1    0    0  503    0  0.00000000000E+00  0.00000000000E+00  0.27563998102E+03  0.27563998102E+03  0.00000000000E+00 0. -1.
         -2   -1    0    0    0  501 -0.00000000000E+00 -0.00000000000E+00 -0.40412935789E+03  0.40412935789E+03  0.00000000000E+00 0.  1.
         25    2    1    2    0    0  0.76710621832E+01 -0.60928013920E+02  0.12517199452E+02  0.13983077541E+03  0.12499958958E+03 0.  0.
          4    1    3    3  502    0  0.37973245433E+02 -0.49364965614E+02 -0.42879803022E+02  0.75625112271E+02  0.12700000000E+01 0.  1.
         -4    1    3    3    0  502 -0.30302183250E+02 -0.11563048305E+02  0.55397002474E+02  0.64205663138E+02  0.12700000000E+01 0.  1.
          1    1    1    2  503    0  0.11440331782E+02  0.10755499948E+03  0.18270909828E+03  0.21232421836E+03  0.00000000000E+00 0. -1.
         -1    1    1    2    0  501 -0.19111393966E+02 -0.46626985563E+02 -0.32371567461E+03  0.32761434515E+03  0.00000000000E+00 0.  1.
<mgrwt>
<rscale>  0 0.70654774E+02</rscale>
<asrwt>0</asrwt>
<pdfrwt beam="1">  1        2 0.42406151E-01 0.99065904E+02</pdfrwt>
<pdfrwt beam="2">  1       -2 0.62173747E-01 0.50391678E+02</pdfrwt>
<totfact> 0.29822117E+02</totfact>
</mgrwt>
</event>
<event>
 7    1  0.5277388E-004  0.8688731E+02  0.7546771E-02  0.1445990E+00
         -2   -1    0    0    0  501 -0.00000000000E+00  0.00000000000E+00  0.14463056847E+04  0.14463056847E+04  0.00000000000E+00 0.  1.
          2   -1    0    0  503    0  0.00000000000E+00 -0.00000000000E+00 -0.13051645925E+03  0.13051645925E+03  0.00000000000E+00 0. -1.
         25    2    1    2    0    0 -0.73520024988E+02 -0.55892666737E+02  0.68688533709E+02  0.16991951464E+03  0.12500137009E+03 0.  0.
          4    1    3    3  502    0 -0.29971989853E+02 -0.63397957653E+02  0.95294308233E+02  0.11832260685E+03  0.12700000000E+01 0. -1.
         -4    1    3    3    0  502 -0.43548035135E+02  0.75052909157E+01 -0.26605774524E+02  0.51596907794E+02  0.12700000000E+01 0. -1.
          1    1    1    2  503    0  0.24068578910E+02 -0.15513437199E+02 -0.75864746429E+02  0.81088981836E+02  0.00000000000E+00 0. -1.
         -1    1    1    2    0  501  0.49451446078E+02  0.71406103936E+02  0.13229654382E+04  0.13258136475E+04  0.00000000000E+00 0.  1.
<mgrwt>
<rscale>  0 0.49880038E+02</rscale>
<asrwt>0</asrwt>
<pdfrwt beam="2">  1        2 0.20079456E-01 0.28635000E+02</pdfrwt>
<pdfrwt beam="1">  1       -2 0.22250856E+00 0.86887313E+02</pdfrwt>
<totfact> 0.29038765E+01</totfact>
</mgrwt>
</event>
<event>
 7    1  0.5277388E-004  0.7912435E+02  0.7546771E-02  0.1487481E+00
          1   -1    0    0  503    0  0.00000000000E+00  0.00000000000E+00  0.11587781785E+04  0.11587781785E+04  0.00000000000E+00 0. -1.
         -1   -1    0    0    0  501 -0.00000000000E+00 -0.00000000000E+00 -0.17108184092E+03  0.17108184092E+03  0.00000000000E+00 0.  1.
         25    2    1    2    0    0  0.92796916192E+02 -0.93576355149E+01 -0.49683608243E+02  0.16368114041E+03  0.12499688716E+03 0.  0.
          4    1    3    3  502    0  0.85831723071E+02  0.33631899816E+02 -0.69854676834E+02  0.11566969416E+03  0.12700000000E+01 0.  1.
         -4    1    3    3    0  502  0.69651931213E+01 -0.42989535331E+02  0.20171068592E+02  0.48011446253E+02  0.12700000000E+01 0.  1.
          2    1    1    2  503    0 -0.21181033324E+02 -0.97731095415E+01  0.10802807113E+04  0.10805325378E+04  0.00000000000E+00 0. -1.
         -2    1    1    2    0  501 -0.71615882868E+02  0.19130745056E+02 -0.42900765539E+02  0.85646341248E+02  0.00000000000E+00 0.  1.
<mgrwt>
<rscale>  0 0.42962022E+02</rscale>
<asrwt>0</asrwt>
<pdfrwt beam="1">  1        1 0.17827356E+00 0.23327020E+02</pdfrwt>
<pdfrwt beam="2">  1       -1 0.26320284E-01 0.79124353E+02</pdfrwt>
<totfact> 0.18597705E+02</totfact>
</mgrwt>
</event>
<event>
 7    1  0.5277388E-004  0.6476440E+02  0.7546771E-02  0.1526128E+00
          1   -1    0    0  502    0 -0.00000000000E+00  0.00000000000E+00  0.75008372032E+02  0.75008372032E+02  0.00000000000E+00 0. -1.
          2   -1    0    0  503    0  0.00000000000E+00 -0.00000000000E+00 -0.80739954330E+03  0.80739954330E+03  0.00000000000E+00 0. -1.
         25    2    1    2    0    0 -0.42362132310E+02  0.58460398600E+02 -0.14143858367E+03  0.20209254921E+03  0.12499742812E+03 0.  0.
          4    1    3    3  501    0 -0.13031706812E+02  0.61925289559E+02 -0.15657264586E+03  0.16888212813E+03  0.12700000000E+01 0.  1.
         -4    1    3    3    0  501 -0.29330425498E+02 -0.34648909586E+01  0.15134062199E+02  0.33210421074E+02  0.12700000000E+01 0.  1.
          2    1    1    2  502    0  0.20576943807E+02 -0.60753164927E+02  0.21363650928E+02  0.67607420051E+02  0.00000000000E+00 0. -1.
          1    1    1    2  503    0  0.21785188504E+02  0.22927663264E+01 -0.61231623853E+03  0.61270794607E+03  0.00000000000E+00 0. -1.
<mgrwt>
<rscale>  0 0.37665596E+02</rscale>
<asrwt>0</asrwt>
<pdfrwt beam="2">  1        2 0.12421532E+00 0.21905507E+02</pdfrwt>
<pdfrwt beam="1">  1        1 0.11539749E-01 0.64764405E+02</pdfrwt>
<totfact> 0.25594164E+03</totfact>
</mgrwt>
</event>
<event>
 7    1  0.5277388E-004  0.1428756E+03  0.7546771E-02  0.1286264E+00
          1   -1    0    0  503    0  0.00000000000E+00  0.00000000000E+00  0.44945777634E+03  0.44945777634E+03  0.00000000000E+00 0. -1.
         -1   -1    0    0    0  501 -0.00000000000E+00 -0.00000000000E+00 -0.14289918389E+04  0.14289918389E+04  0.00000000000E+00 0.  1.
         25    2    1    2    0    0 -0.88171880969E+02  0.28513191125E+02 -0.18633024246E+03  0.24272392887E+03  0.12493463783E+03 0.  0.
          4    1    3    3  502    0 -0.10228420584E+03  0.22176870578E+02 -0.19755438243E+03  0.22356927175E+03  0.12700000000E+01 0.  1.
         -4    1    3    3    0  502  0.14112324873E+02  0.63363205468E+01  0.11224139970E+02  0.19154657122E+02  0.12700000000E+01 0.  1.
          2    1    1    2  503    0 -0.40129447642E+02  0.52583481011E+02  0.41388202212E+03  0.41913449306E+03  0.00000000000E+00 0. -1.
         -2    1    1    2    0  501  0.12830132861E+03 -0.81096672135E+02 -0.12070858422E+04  0.12165911933E+04  0.00000000000E+00 0.  1.
<mgrwt>
<rscale>  0 0.97215029E+02</rscale>
<asrwt>0</asrwt>
<pdfrwt beam="1">  1        1 0.69147352E-01 0.66146769E+02</pdfrwt>
<pdfrwt beam="2">  1       -1 0.21984489E+00 0.14287564E+03</pdfrwt>
<totfact> 0.70987509E+00</totfact>
</mgrwt>
</event>
<event>
 7    1  0.5277388E-004  0.8887987E+02  0.7546771E-02  0.1455640E+00
          1   -1    0    0  503    0  0.00000000000E+00  0.00000000000E+00  0.19290624163E+04  0.19290624163E+04  0.00000000000E+00 0. -1.
         -1   -1    0    0    0  501 -0.00000000000E+00 -0.00000000000E+00 -0.32535519444E+02  0.32535519444E+02  0.00000000000E+00 0.  1.
         25    2    1    2    0    0  0.49949016670E+02  0.77148047743E+02  0.86887695430E+03  0.88262313648E+03  0.12501885377E+03 0.  0.
          4    1    3    3  502    0  0.70899907665E+02  0.70084365828E+02  0.36828936617E+03  0.38154591516E+03  0.12700000000E+01 0. -1.
         -4    1    3    3    0  502 -0.20950890995E+02  0.70636819151E+01  0.50058758814E+03  0.50107722133E+03  0.12700000000E+01 0. -1.
          2    1    1    2  503    0 -0.24773499956E+02  0.81319805773E+01  0.97558782205E+03  0.97593619358E+03  0.00000000000E+00 0. -1.
         -2    1    1    2    0  501 -0.25175516714E+02 -0.85280028320E+02  0.52062120528E+02  0.10303860571E+03  0.00000000000E+00 0.  1.
<mgrwt>
<rscale>  0 0.48139973E+02</rscale>
<asrwt>0</asrwt>
<pdfrwt beam="1">  1        1 0.29677874E+00 0.26074037E+02</pdfrwt>
<pdfrwt beam="2">  1       -1 0.50054660E-02 0.88879868E+02</pdfrwt>
<totfact> 0.80026572E+02</totfact>
</mgrwt>
</event>
<event>
 7    1  0.5277388E-004  0.8255498E+02  0.7546771E-02  0.1385491E+00
          2   -1    0    0  503    0  0.00000000000E+00  0.00000000000E+00  0.44028009401E+03  0.44028009401E+03  0.00000000000E+00 0. -1.
         -2   -1    0    0    0  501 -0.00000000000E+00 -0.00000000000E+00 -0.15856619575E+04  0.15856619575E+04  0.00000000000E+00 0.  1.
         25    2    1    2    0    0 -0.91194388619E+02  0.83067212078E+02 -0.20132654502E+02  0.17673814313E+03  0.12495786979E+03 0.  0.
          4    1    3    3  502    0 -0.80649831771E+02  0.86777115243E+02  0.32552259233E+02  0.12286547756E+03  0.12700000000E+01 0.  1.
         -4    1    3    3    0  502 -0.10544556848E+02 -0.37099031656E+01 -0.52684913734E+02  0.53872665572E+02  0.12700000000E+01 0.  1.
          1    1    1    2  503    0  0.45830431670E+02 -0.14737067586E+02  0.35923966801E+03  0.36245102938E+03  0.00000000000E+00 0. -1.
         -1    1    1    2    0  501  0.45363956949E+02 -0.68330144492E+02 -0.14844888770E+04  0.14867528790E+04  0.00000000000E+00 0.  1.
<mgrwt>
<rscale>  0 0.63042250E+02</rscale>
<asrwt>0</asrwt>
<pdfrwt beam="1">  1        2 0.67735398E-01 0.48141558E+02</pdfrwt>
<pdfrwt beam="2">  1       -2 0.24394800E+00 0.82554977E+02</pdfrwt>
<totfact> 0.63609191E+00</totfact>
</mgrwt>
</event>
<event>
 7    1  0.5277388E-004  0.2206808E+03  0.7546771E-02  0.1245153E+00
          2   -1    0    0  503    0  0.00000000000E+00  0.00000000000E+00  0.16892829073E+04  0.16892829073E+04  0.00000000000E+00 0. -1.
          1   -1    0    0  502    0 -0.00000000000E+00 -0.00000000000E+00 -0.16441911330E+04  0.16441911330E+04  0.00000000000E+00 0. -1.
         25    2    1    2    0    0  0.20722563979E+03  0.18642703465E+03 -0.38733211243E+03  0.49330226176E+03  0.12499380429E+03 0.  0.
          4    1    3    3  501    0  0.85249642510E+02  0.79462038167E+02 -0.26694049104E+03  0.29127402170E+03  0.12700000000E+01 0. -1.
         -4    1    3    3    0  501  0.12197599728E+03  0.10696499648E+03 -0.12039162138E+03  0.20202824007E+03  0.12700000000E+01 0. -1.
          2    1    1    2  502    0 -0.30118264416E+02 -0.56372036991E+02 -0.11956399677E+04  0.11973470043E+04  0.00000000000E+00 0. -1.
          1    1    1    2  503    0 -0.17710737538E+03 -0.13005499766E+03  0.16280638545E+04  0.16428247743E+04  0.00000000000E+00 0. -1.
<mgrwt>
<rscale>  0 0.11876216E+03</rscale>
<asrwt>0</asrwt>
<pdfrwt beam="1">  1        2 0.25988968E+00 0.22068083E+03</pdfrwt>
<pdfrwt beam="2">  1        1 0.25295248E+00 0.63913351E+02</pdfrwt>
<totfact> 0.10122631E+01</totfact>
</mgrwt>
</event>
<event>
 7    1  0.5277388E-004  0.5387187E+02  0.7546771E-02  0.1427369E+00
         -2   -1    0    0    0  501 -0.00000000000E+00  0.00000000000E+00  0.32190189480E+03  0.32190189480E+03  0.00000000000E+00 0.  1.
          2   -1    0    0  503    0  0.00000000000E+00 -0.00000000000E+00 -0.25816257326E+04  0.25816257326E+04  0.00000000000E+00 0. -1.
         25    2    1    2    0    0  0.13296842420E+02  0.66256399143E+02 -0.16921516862E+01  0.14210645145E+03  0.12499865488E+03 0.  0.
          4    1    3    3  502    0  0.31276311695E+02  0.84313322758E+02  0.35764099312E+02  0.96786506122E+02  0.12700000000E+01 0. -1.
         -4    1    3    3    0  502 -0.17979469274E+02 -0.18056923614E+02 -0.37456250998E+02  0.45319945329E+02  0.12700000000E+01 0. -1.
          1    1    1    2  503    0 -0.47458264999E+02 -0.25585515698E+02 -0.25066311840E+04  0.25072109600E+04  0.00000000000E+00 0. -1.
         -1    1    1    2    0  501  0.34161422578E+02 -0.40670883445E+02  0.24859949786E+03  0.25421021594E+03  0.00000000000E+00 0.  1.
<mgrwt>
<rscale>  0 0.53491716E+02</rscale>
<asrwt>0</asrwt>
<pdfrwt beam="2">  1        2 0.39717318E+00 0.53871865E+02</pdfrwt>
<pdfrwt beam="1">  1       -2 0.49523369E-01 0.53114250E+02</pdfrwt>
<totfact> 0.17917091E+01</totfact>
</mgrwt>
</event>
<event>
 7    1  0.5277388E-004  0.9857972E+02  0.7546771E-02  0.1443221E+00
          1   -1    0    0  502    0 -0.00000000000E+00  0.00000000000E+00  0.22126611289E+03  0.22126611289E+03  0.00000000000E+00 0. -1.
          2   -1    0    0  503    0  0.00000000000E+00 -0.00000000000E+00 -0.29737590999E+03  0.29737590999E+03  0.00000000000E+00 0. -1.
         25    2    1    2    0    0  0.55873056793E+02  0.73587931899E+02 -0.79846442263E+01  0.15566058343E+03  0.12501792069E+03 0.  0.
          4    1    3    3  501    0 -0.92302214861E+01 -0.29306200676E+02  0.10507470956E+02  0.32497234231E+02  0.12700000000E+01 0. -1.
         -4    1    3    3    0  501  0.65103278280E+02  0.10289413257E+03 -0.18492115183E+02  0.12316334920E+03  0.12700000000E+01 0. -1.
          2    1    1    2  502    0 -0.38590449722E+02 -0.92693795908E+02  0.12939869553E+03  0.16378456891E+03  0.00000000000E+00 0. -1.
          1    1    1    2  503    0 -0.17282607072E+02  0.19105864009E+02 -0.19752384840E+03  0.19919687054E+03  0.00000000000E+00 0. -1.
<mgrwt>
<rscale>  0 0.50395347E+02</rscale>
<asrwt>0</asrwt>
<pdfrwt beam="2">  1        2 0.45750140E-01 0.25762813E+02</pdfrwt>
<pdfrwt beam="1">  1        1 0.34040941E-01 0.98579723E+02</pdfrwt>
<totfact> 0.18679836E+03</totfact>
</mgrwt>
</event>
<event>
 7    1  0.5277388E-004  0.5565873E+02  0.7546771E-02  0.1471682E+00
         -2   -1    0    0    0  501 -0.00000000000E+00  0.00000000000E+00  0.51621135626E+03  0.51621135626E+03  0.00000000000E+00 0.  1.
          2   -1    0    0  503    0  0.00000000000E+00 -0.00000000000E+00 -0.57585544826E+02  0.57585544826E+02  0.00000000000E+00 0. -1.
         25    2    1    2    0    0 -0.41493698988E+02  0.74154607332E+02  0.13648153403E+03  0.20365102446E+03  0.12500359110E+03 0.  0.
          4    1    3    3  502    0  0.40043694202E+02  0.51274260319E+01  0.59713731564E+02  0.72091126918E+02  0.12700000000E+01 0.  1.
         -4    1    3    3    0  502 -0.81537393190E+02  0.69027181300E+02  0.76767802469E+02  0.13155989755E+03  0.12700000000E+01 0.  1.
          1    1    1    2  503    0  0.14230962725E+02 -0.49022606101E+02  0.55043708304E+01  0.51342324717E+02  0.00000000000E+00 0. -1.
         -1    1    1    2    0  501  0.27262736263E+02 -0.25132001230E+02  0.31663990657E+03  0.31880355190E+03  0.00000000000E+00 0.  1.
<mgrwt>
<rscale>  0 0.45428918E+02</rscale>
<asrwt>0</asrwt>
<pdfrwt beam="2">  1        2 0.88593149E-02 0.55658730E+02</pdfrwt>
<pdfrwt beam="1">  1       -2 0.79417129E-01 0.37079297E+02</pdfrwt>
<totfact> 0.10097347E+03</totfact>
</mgrwt>
</event>
<event>
 7    1  0.5277388E-004  0.3167573E+02  0.7546771E-02  0.1699707E+00
          2   -1    0    0  503    0  0.00000000000E+00  0.00000000000E+00  0.89999242624E+02  0.89999242624E+02  0.00000000000E+00 0.  1.
         -2   -1    0    0    0  501 -0.00000000000E+00 -0.00000000000E+00 -0.15278825891E+03  0.15278825891E+03  0.00000000000E+00 0. -1.
         25    2    1    2    0    0  0.84959634695E-01 -0.25987512335E+01 -0.72799565388E+02  0.14467835068E+03  0.12500115083E+03 0.  0.
          4    1    3    3  502    0  0.36836084429E+02  0.36479315748E+02  0.28431190580E+01  0.51935862557E+02  0.12700000000E+01 0. -1.
         -4    1    3    3    0  502 -0.36751124795E+02 -0.39078066981E+02 -0.75642684446E+02  0.92742488121E+02  0.12700000000E+01 0. -1.
          3    1    1    2  503    0 -0.14168988327E+02 -0.28330049573E+02 -0.31357389914E+02  0.44571715709E+02  0.00000000000E+00 0. -1.
         -3    1    1    2    0  501  0.14084028693E+02  0.30928800807E+02  0.41367939017E+02  0.53537435147E+02  0.00000000000E+00 0.  1.
<mgrwt>
<rscale>  0 0.22502318E+02</rscale>
<asrwt>0</asrwt>
<pdfrwt beam="1">  1        2 0.13846037E-01 0.31675731E+02</pdfrwt>
<pdfrwt beam="2">  1       -2 0.23505886E-01 0.15985560E+02</pdfrwt>
<totfact> 0.53891290E+03</totfact>
</mgrwt>
</event>
<event>
 7    1  0.5277388E-004  0.3774886E+02  0.7546771E-02  0.1535362E+00
          2   -1    0    0  503    0  0.00000000000E+00  0.00000000000E+00  0.15073505981E+04  0.15073505981E+04  0.00000000000E+00 0. -1.
          1   -1    0    0  502    0 -0.00000000000E+00 -0.00000000000E+00 -0.51537788123E+03  0.51537788123E+03  0.00000000000E+00 0. -1.
         25    2    1    2    0    0  0.32769928684E+02  0.10612256632E+02 -0.12072543389E+03  0.17717450479E+03  0.12501874477E+03 0.  0.
          4    1    3    3  501    0  0.52454664345E+02  0.82214481209E+01 -0.13985058075E+03  0.14959572807E+03  0.12700000000E+01 0. -1.
         -4    1    3    3    0  501 -0.19684735661E+02  0.23908085107E+01  0.19125146857E+02  0.27578776725E+02  0.12700000000E+01 0. -1.
          2    1    1    2  502    0 -0.94936935058E+01 -0.37235566507E+02 -0.36520837306E+03  0.36722441828E+03  0.00000000000E+00 0. -1.
          3    1    1    2  503    0 -0.23276235179E+02  0.26623309875E+02  0.14779065239E+04  0.14783295563E+04  0.00000000000E+00 0. -1.
<mgrwt>
<rscale>  0 0.36536767E+02</rscale>
<asrwt>0</asrwt>
<pdfrwt beam="1">  1        2 0.23190009E+00 0.35363594E+02</pdfrwt>
<pdfrwt beam="2">  1        1 0.79288905E-01 0.37748860E+02</pdfrwt>
<totfact> 0.99930365E+01</totfact>
</mgrwt>
</event>
<event>
 7    1  0.5277388E-004  0.6092860E+02  0.7546771E-02  0.1463930E+00
          2   -1    0    0  503    0  0.00000000000E+00  0.00000000000E+00  0.18502539494E+03  0.18502539494E+03  0.00000000000E+00 0. -1.
          1   -1    0    0  502    0 -0.00000000000E+00 -0.00000000000E+00 -0.73710759913E+03  0.73710759913E+03  0.00000000000E+00 0. -1.
         25    2    1    2    0    0 -0.25684376149E+02  0.17034175653E+02 -0.60454375013E+02  0.14222934190E+03  0.12499841567E+03 0.  0.
          4    1    3    3  501    0 -0.17264263333E+02 -0.54973773788E+00 -0.98206135853E+02  0.99721687808E+02  0.12700000000E+01 0.  1.
         -4    1    3    3    0  501 -0.84201128163E+01  0.17583913391E+02  0.37751760840E+02  0.42507654093E+02  0.12700000000E+01 0.  1.
          2    1    1    2  502    0  0.34350031606E+02 -0.51782209597E+02 -0.63199374458E+03  0.63504127038E+03  0.00000000000E+00 0. -1.
          1    1    1    2  503    0 -0.86656554570E+01  0.34748033945E+02  0.14036591541E+03  0.14486238179E+03  0.00000000000E+00 0. -1.
<mgrwt>
<rscale>  0 0.46711799E+02</rscale>
<asrwt>0</asrwt>
<pdfrwt beam="1">  1        2 0.28465445E-01 0.35812281E+02</pdfrwt>
<pdfrwt beam="2">  1        1 0.11340117E+00 0.60928602E+02</pdfrwt>
<totfact> 0.67054987E+02</totfact>
</mgrwt>
</event>
<event>
 7    1  0.5277388E-004  0.4538348E+02  0.7546771E-02  0.1518883E+00
          1   -1    0    0  503    0  0.00000000000E+00  0.00000000000E+00  0.13059209798E+03  0.13059209798E+03  0.00000000000E+00 0. -1.
         -1   -1    0    0    0  501 -0.00000000000E+00 -0.00000000000E+00 -0.20039967727E+03  0.20039967727E+03  0.00000000000E+00 0.  1.
         25    2    1    2    0    0 -0.41249443534E+02  0.37209443919E+02 -0.48020399326E+02  0.14496764403E+03  0.12499439890E+03 0.  0.
          4    1    3    3  502    0 -0.19102442632E+02  0.64533086809E+02 -0.74884808592E+02  0.10069145974E+03  0.12700000000E+01 0. -1.
         -4    1    3    3    0  502 -0.22147000902E+02 -0.27323642890E+02  0.26864409266E+02  0.44276184286E+02  0.12700000000E+01 0. -1.
          2    1    1    2  503    0 -0.38356626343E+01 -0.32581497338E+02  0.73510132144E+02  0.80498483243E+02  0.00000000000E+00 0. -1.
         -2    1    1    2    0  501  0.45085106168E+02 -0.46279465815E+01 -0.95297312105E+02  0.10552564798E+03  0.00000000000E+00 0.  1.
<mgrwt>
<rscale>  0 0.38585917E+02</rscale>
<asrwt>0</asrwt>
<pdfrwt beam="1">  1        1 0.20091092E-01 0.32806497E+02</pdfrwt>
<pdfrwt beam="2">  1       -1 0.30830719E-01 0.45383480E+02</pdfrwt>
<totfact> 0.22234023E+03</totfact>
</mgrwt>
</event>
<event>
 7    1  0.5277388E-004  0.4161851E+02  0.7546771E-02  0.1606874E+00
          2   -1    0    0  503    0  0.00000000000E+00  0.00000000000E+00  0.42715996375E+03  0.42715996375E+03  0.00000000000E+00 0. -1.
          1   -1    0    0  502    0 -0.00000000000E+00 -0.00000000000E+00 -0.14286965268E+03  0.14286965268E+03  0.00000000000E+00 0. -1.
         25    2    1    2    0    0 -0.50196701093E+02 -0.10668836750E+02  0.57928559404E+02  0.14701962859E+03  0.12500208125E+03 0.  0.
          4    1    3    3  501    0 -0.41393668338E+01 -0.41230017777E+02 -0.24208661701E+02  0.48007509048E+02  0.12700000000E+01 0. -1.
         -4    1    3    3    0  501 -0.46057334259E+02  0.30561181027E+02  0.82137221105E+02  0.99012119539E+02  0.12700000000E+01 0. -1.
          2    1    1    2  502    0  0.94469084793E+01  0.18210642045E+02 -0.95912560883E+02  0.98082062064E+02  0.00000000000E+00 0. -1.
          1    1    1    2  503    0  0.40749792613E+02 -0.75418052950E+01  0.32227431255E+03  0.32492792578E+03  0.00000000000E+00 0. -1.
<mgrwt>
<rscale>  0 0.29220032E+02</rscale>
<asrwt>0</asrwt>
<pdfrwt beam="1">  1        2 0.65716917E-01 0.41618514E+02</pdfrwt>
<pdfrwt beam="2">  1        1 0.21979947E-01 0.20515154E+02</pdfrwt>
<totfact> 0.20982387E+03</totfact>
</mgrwt>
</event>
<event>
 7    1  0.5277388E-004  0.1424542E+03  0.7546771E-02  0.1363637E+00
         -1   -1    0    0    0  501 -0.00000000000E+00  0.00000000000E+00  0.45701172830E+03  0.45701172830E+03  0.00000000000E+00 0.  1.
          1   -1    0    0  503    0  0.00000000000E+00 -0.00000000000E+00 -0.12251870909E+04  0.12251870909E+04  0.00000000000E+00 0. -1.
         25    2    1    2    0    0  0.11811900987E+03 -0.20724592548E+02  0.88654589445E+01  0.17345045421E+03  0.12499941789E+03 0.  0.
          4    1    3    3  502    0 -0.72519866046E+01 -0.36405790528E+02  0.26838162612E+02  0.45824368693E+02  0.12700000000E+01 0. -1.
         -4    1    3    3    0  502  0.12537099647E+03  0.15681197980E+02 -0.17972703668E+02  0.12762608552E+03  0.12700000000E+01 0. -1.
          2    1    1    2  503    0 -0.14365999649E+03 -0.78328594770E+00 -0.11376055582E+04  0.11466408393E+04  0.00000000000E+00 0. -1.
         -2    1    1    2    0  501  0.25540986623E+02  0.21507878496E+02  0.36056473670E+03  0.36210752572E+03  0.00000000000E+00 0.  1.
<mgrwt>
<rscale>  0 0.68968310E+02</rscale>
<asrwt>0</asrwt>
<pdfrwt beam="2">  1        1 0.18849032E+00 0.14245418E+03</pdfrwt>
<pdfrwt beam="1">  1       -1 0.70309498E-01 0.33390580E+02</pdfrwt>
<totfact> 0.26142211E+01</totfact>
</mgrwt>
</event>
<event>
 7    1  0.5277388E-004  0.8693907E+02  0.7546771E-02  0.1325358E+00
          2   -1    0    0  503    0  0.00000000000E+00  0.00000000000E+00  0.85170879551E+03  0.85170879551E+03  0.00000000000E+00 0. -1.
          1   -1    0    0  502    0 -0.00000000000E+00 -0.00000000000E+00 -0.37444058085E+03  0.37444058085E+03  0.00000000000E+00 0. -1.
         25    2    1    2    0    0 -0.23415889448E+02 -0.20205329108E+02 -0.44715928328E+01  0.12884763886E+03  0.12500063878E+03 0.  0.
          4    1    3    3  501    0  0.26311768551E+02  0.21597922845E+02  0.38145671943E+02  0.51141808958E+02  0.12700000000E+01 0. -1.
         -4    1    3    3    0  501 -0.49727657999E+02 -0.41803251953E+02 -0.42617264776E+02  0.77705829903E+02  0.12700000000E+01 0. -1.
          2    1    1    2  502    0 -0.63517837608E+02  0.41833467555E+02 -0.30048649416E+03  0.30996239752E+03  0.00000000000E+00 0. -1.
          1    1    1    2  503    0  0.86933727056E+02 -0.21628138447E+02  0.78222630166E+03  0.78733933998E+03  0.00000000000E+00 0. -1.
<mgrwt>
<rscale>  0 0.81315808E+02</rscale>
<asrwt>0</asrwt>
<pdfrwt beam="1">  1        2 0.13103212E+00 0.86939071E+02</pdfrwt>
<pdfrwt beam="2">  1        1 0.57606243E-01 0.76056260E+02</pdfrwt>
<totfact> 0.31299015E+02</totfact>
</mgrwt>
</event>
<event>
 7    1  0.5277388E-004  0.4856563E+02  0.7546771E-02  0.1462576E+00
          1   -1    0    0  503    0  0.00000000000E+00  0.00000000000E+00  0.10775991027E+04  0.10775991027E+04  0.00000000000E+00 0. -1.
         -1   -1    0    0    0  501 -0.00000000000E+00 -0.00000000000E+00 -0.26534487013E+02  0.26534487013E+02  0.00000000000E+00 0.  1.
         25    2    1    2    0    0 -0.17356812929E+02  0.13692127667E+02  0.50172578779E+03  0.51753507602E+03  0.12500022186E+03 0.  0.
          4    1    3    3  502    0 -0.35450939578E+02 -0.47262151627E+02  0.30862227938E+03  0.31422890434E+03  0.12700000000E+01 0.  1.
         -4    1    3    3    0  502  0.18094126649E+02  0.60954279293E+02  0.19310350842E+03  0.20330617169E+03  0.12700000000E+01 0.  1.
          2    1    1    2  503    0  0.26496822420E+02  0.36829521393E+02  0.52968334269E+03  0.53162292913E+03  0.00000000000E+00 0. -1.
         -2    1    1    2    0  501 -0.91400094913E+01 -0.50521649059E+02  0.19655485166E+02  0.54975584529E+02  0.00000000000E+00 0.  1.
<mgrwt>
<rscale>  0 0.46940963E+02</rscale>
<asrwt>0</asrwt>
<pdfrwt beam="1">  1        1 0.16578444E+00 0.45370643E+02</pdfrwt>
<pdfrwt beam="2">  1       -1 0.40822296E-02 0.48565634E+02</pdfrwt>
<totfact> 0.31818611E+03</totfact>
</mgrwt>
</event>
<event>
 7    1  0.5277388E-004  0.1051012E+03  0.7546771E-02  0.1331745E+00
          1   -1    0    0  502    0 -0.00000000000E+00  0.00000000000E+00  0.51237846048E+02  0.51237846048E+02  0.00000000000E+00 0. -1.
          2   -1    0    0  503    0  0.00000000000E+00 -0.00000000000E+00 -0.61930817090E+03  0.61930817090E+03  0.00000000000E+00 0. -1.
         25    2    1    2    0    0 -0.33478162348E+02 -0.61054547258E+02 -0.23811459596E+03  0.27779537691E+03  0.12499306191E+03 0.  0.
          4    1    3    3  501    0 -0.71156433241E+02 -0.37720366907E+02 -0.79774755504E+02  0.11336528828E+03  0.12700000000E+01 0. -1.
         -4    1    3    3    0  501  0.37678270893E+02 -0.23334180351E+02 -0.15833984046E+03  0.16443008863E+03  0.12700000000E+01 0. -1.
          2    1    1    2  502    0 -0.34076501743E+02 -0.48737052559E+02 -0.30732324670E+02  0.66940152695E+02  0.00000000000E+00 0. -1.
          1    1    1    2  503    0  0.67554664091E+02  0.10979159982E+03 -0.29922340422E+03  0.32581048735E+03  0.00000000000E+00 0. -1.
<mgrwt>
<rscale>  0 0.79058316E+02</rscale>
<asrwt>0</asrwt>
<pdfrwt beam="2">  1        2 0.95278181E-01 0.10510123E+03</pdfrwt>
<pdfrwt beam="1">  1        1 0.78827455E-02 0.59468549E+02</pdfrwt>
<totfact> 0.53669647E+03</totfact>
</mgrwt>
</event>
<event>
 7    1  0.5277388E-004  0.7012026E+02  0.7546771E-02  0.1445427E+00
          2   -1    0    0  503    0  0.00000000000E+00  0.00000000000E+00  0.20735734662E+04  0.20735734662E+04  0.00000000000E+00 0. -1.
          1   -1    0    0  502    0 -0.00000000000E+00 -0.00000000000E+00 -0.11534940171E+03  0.11534940171E+03  0.00000000000E+00 0. -1.
         25    2    1    2    0    0  0.92248182173E+02 -0.17212975089E+02  0.75247705716E+02  0.17347239015E+03  0.12499775720E+03 0.  0.
          4    1    3    3  501    0  0.30742212361E+02  0.34770751131E+02  0.80317374977E+02  0.92771667972E+02  0.12700000000E+01 0. -1.
         -4    1    3    3    0  501  0.61505969812E+02 -0.51983726220E+02 -0.50696692613E+01  0.80700722182E+02  0.12700000000E+01 0. -1.
          2    1    1    2  502    0 -0.31315114041E+02 -0.16996922514E+02 -0.60771727183E+02  0.70446678894E+02  0.00000000000E+00 0. -1.
          3    1    1    2  503    0 -0.60933068132E+02  0.34209897604E+02  0.19437480859E+04  0.19450037988E+04  0.00000000000E+00 0. -1.
<mgrwt>
<rscale>  0 0.49984188E+02</rscale>
<asrwt>0</asrwt>
<pdfrwt beam="1">  1        2 0.31901127E+00 0.70120256E+02</pdfrwt>
<pdfrwt beam="2">  1        1 0.17746063E-01 0.35630489E+02</pdfrwt>
<totfact> 0.29479233E+02</totfact>
</mgrwt>
</event>
<event>
 7    1  0.5277388E-004  0.1118828E+03  0.7546771E-02  0.1456290E+00
          2   -1    0    0  503    0  0.00000000000E+00  0.00000000000E+00  0.11229681352E+04  0.11229681352E+04  0.00000000000E+00 0. -1.
          1   -1    0    0  502    0 -0.00000000000E+00 -0.00000000000E+00 -0.13996701202E+03  0.13996701202E+03  0.00000000000E+00 0. -1.
         25    2    1    2    0    0  0.12704692997E+03 -0.32768554946E+02  0.89928077162E+03  0.91735831031E+03  0.12500265070E+03 0.  0.
          4    1    3    3  501    0 -0.11603045144E+02 -0.38529331700E+02  0.14854415425E+03  0.15390295228E+03  0.12700000000E+01 0.  1.
         -4    1    3    3    0  501  0.13864997512E+03  0.57607767539E+01  0.75073661737E+03  0.76345535803E+03  0.12700000000E+01 0.  1.
          2    1    1    2  502    0 -0.10903368858E+03  0.22743123298E+02 -0.10658264989E+03  0.15416048833E+03  0.00000000000E+00 0. -1.
          1    1    1    2  503    0 -0.18013241394E+02  0.10025431648E+02  0.19030300147E+03  0.19141634861E+03  0.00000000000E+00 0. -1.
<mgrwt>
<rscale>  0 0.48025883E+02</rscale>
<asrwt>0</asrwt>
<pdfrwt beam="1">  1        2 0.17276432E+00 0.20615192E+02</pdfrwt>
<pdfrwt beam="2">  1        1 0.21533387E-01 0.11188280E+03</pdfrwt>
<totfact> 0.79714449E+02</totfact>
</mgrwt>
</event>
<event>
 7    1  0.5277388E-004  0.5964406E+02  0.7546771E-02  0.1482637E+00
         -2   -1    0    0    0  501 -0.00000000000E+00  0.00000000000E+00  0.18011182132E+03  0.18011182132E+03  0.00000000000E+00 0.  1.
          2   -1    0    0  503    0  0.00000000000E+00 -0.00000000000E+00 -0.85646705319E+03  0.85646705319E+03  0.00000000000E+00 0. -1.
         25    2    1    2    0    0 -0.28121038277E+02  0.40690206574E+02  0.64270252326E+02  0.14906313539E+03  0.12507064921E+03 0.  0.
          4    1    3    3  502    0 -0.53960279720E+02 -0.26402931241E+02  0.43614030805E+02  0.74247041346E+02  0.12700000000E+01 0.  1.
         -4    1    3    3    0  502  0.25839241443E+02  0.67093137815E+02  0.20656221521E+02  0.74816094042E+02  0.12700000000E+01 0.  1.
          1    1    1    2  503    0 -0.29787529934E+02 -0.11733648234E+02 -0.79941891801E+03  0.80005973646E+03  0.00000000000E+00 0. -1.
         -1    1    1    2    0  501  0.57908568211E+02 -0.28956558340E+02  0.58793433807E+02  0.87456002664E+02  0.00000000000E+00 0.  1.
<mgrwt>
<rscale>  0 0.43698042E+02</rscale>
<asrwt>0</asrwt>
<pdfrwt beam="2">  1        2 0.13176416E+00 0.32015238E+02</pdfrwt>
<pdfrwt beam="1">  1       -2 0.27709511E-01 0.59644065E+02</pdfrwt>
<totfact> 0.40776014E+02</totfact>
</mgrwt>
</event>
<event>
 7    1  0.5277388E-004  0.8914220E+02  0.7546771E-02  0.1310554E+00
          2   -1    0    0  503    0  0.00000000000E+00  0.00000000000E+00  0.71791115870E+03  0.71791115870E+03  0.00000000000E+00 0. -1.
         -2   -1    0    0    0  501 -0.00000000000E+00 -0.00000000000E+00 -0.46688432305E+03  0.46688432305E+03  0.00000000000E+00 0.  1.
         25    2    1    2    0    0  0.27559348401E+02 -0.13223922043E+02  0.60644318484E+02  0.14228681389E+03  0.12503365245E+03 0.  0.
          4    1    3    3  502    0  0.53587427536E+02 -0.54108566777E+02  0.53967664445E+02  0.93345975244E+02  0.12700000000E+01 0. -1.
         -4    1    3    3    0  502 -0.26028079135E+02  0.40884644733E+02  0.66766540392E+01  0.48940838648E+02  0.12700000000E+01 0. -1.
          1    1    1    2  503    0 -0.77649205269E+01  0.95579563157E+02  0.60844331595E+03  0.61595374469E+03  0.00000000000E+00 0. -1.
         -1    1    1    2    0  501 -0.19794427874E+02 -0.82355641114E+02 -0.41806079878E+03  0.42655492316E+03  0.00000000000E+00 0.  1.
<mgrwt>
<rscale>  0 0.86893264E+02</rscale>
<asrwt>0</asrwt>
<pdfrwt beam="1">  1        2 0.11044787E+00 0.89142196E+02</pdfrwt>
<pdfrwt beam="2">  1       -2 0.71828357E-01 0.84701068E+02</pdfrwt>
<totfact> 0.78355016E+01</totfact>
</mgrwt>
</event>
<event>
 7    1  0.5277388E-004  0.1729288E+03  0.7546771E-02  0.1310547E+00
          1   -1    0    0  502    0 -0.00000000000E+00  0.00000000000E+00  0.35356054621E+04  0.35356054621E+04  0.00000000000E+00 0. -1.
          2   -1    0    0  503    0  0.00000000000E+00 -0.00000000000E+00 -0.42493903404E+03  0.42493903404E+03  0.00000000000E+00 0. -1.
         25    2    1    2    0    0  0.11238927678E+03 -0.82977145539E+02  0.82202453868E+03  0.84312934563E+03  0.12500478016E+03 0.  0.
          4    1    3    3  501    0  0.12968739804E+03 -0.54431316558E+02  0.50092248673E+03  0.52029466655E+03  0.12700000000E+01 0.  1.
         -4    1    3    3    0  501 -0.17298121259E+02 -0.28545828980E+02  0.32110205195E+03  0.32283467908E+03  0.12700000000E+01 0.  1.
          2    1    1    2  502    0 -0.14161071376E+03  0.11542326289E+03  0.26987813594E+04  0.27049578462E+04  0.00000000000E+00 0. -1.
          1    1    1    2  503    0  0.29221436981E+02 -0.32446117347E+02 -0.41013947008E+03  0.41245730425E+03  0.00000000000E+00 0. -1.
<mgrwt>
<rscale>  0 0.86896252E+02</rscale>
<asrwt>0</asrwt>
<pdfrwt beam="2">  1        2 0.65375238E-01 0.43665122E+02</pdfrwt>
<pdfrwt beam="1">  1        1 0.54393928E+00 0.17292883E+03</pdfrwt>
<totfact> 0.33140966E+00</totfact>
</mgrwt>
</event>
<event>
 7    1  0.5277388E-004  0.3104314E+03  0.7546771E-02  0.1245441E+00
          1   -1    0    0  502    0 -0.00000000000E+00  0.00000000000E+00  0.61640352747E+03  0.61640352747E+03  0.00000000000E+00 0. -1.
          2   -1    0    0  503    0  0.00000000000E+00 -0.00000000000E+00 -0.19295269580E+04  0.19295269580E+04  0.00000000000E+00 0. -1.
         25    2    1    2    0    0 -0.33573490499E+03  0.36919869944E+02  0.20192115240E+03  0.41289351881E+03  0.12501161093E+03 0.  0.
          4    1    3    3  501    0 -0.11421748478E+03  0.39204536251E+02  0.12483635325E+02  0.12140874574E+03  0.12700000000E+01 0.  1.
         -4    1    3    3    0  501 -0.22151742021E+03 -0.22846663074E+01  0.18943751707E+03  0.29148477307E+03  0.12700000000E+01 0.  1.
          2    1    1    2  502    0  0.29056040849E+03 -0.33502045090E+02  0.23942399141E+03  0.37798357858E+03  0.00000000000E+00 0. -1.
          1    1    1    2  503    0  0.45174496493E+02 -0.34178248542E+01 -0.17544685743E+04  0.17550533881E+04  0.00000000000E+00 0. -1.
<mgrwt>
<rscale>  0 0.11859031E+03</rscale>
<asrwt>0</asrwt>
<pdfrwt beam="2">  1        2 0.29685030E+00 0.45303605E+02</pdfrwt>
<pdfrwt beam="1">  1        1 0.94831313E-01 0.31043141E+03</pdfrwt>
<totfact> 0.45222198E+01</totfact>
</mgrwt>
</event>
<event>
 7    1  0.5277388E-004  0.4088650E+02  0.7546771E-02  0.1580040E+00
          1   -1    0    0  502    0 -0.00000000000E+00  0.00000000000E+00  0.42851644960E+03  0.42851644960E+03  0.00000000000E+00 0. -1.
          2   -1    0    0  503    0  0.00000000000E+00 -0.00000000000E+00 -0.10964987616E+03  0.10964987616E+03  0.00000000000E+00 0. -1.
         25    2    1    2    0    0 -0.14764520668E+02  0.19224936564E+02  0.26231897060E+03  0.29158794508E+03  0.12499879249E+03 0.  0.
          4    1    3    3  501    0  0.76606422775E+00  0.65978715690E+02  0.85372167822E+02  0.10790643038E+03  0.12700000000E+01 0. -1.
         -4    1    3    3    0  501 -0.15530584896E+02 -0.46753779126E+02  0.17694680277E+03  0.18368151470E+03  0.12700000000E+01 0. -1.
          2    1    1    2  502    0  0.39118420903E+02 -0.22514369223E+02  0.14651786077E+03  0.15331220173E+03  0.00000000000E+00 0. -1.
          1    1    1    2  503    0 -0.24353900235E+02  0.32894326589E+01 -0.89970257933E+02  0.93266178953E+02  0.00000000000E+00 0. -1.
<mgrwt>
<rscale>  0 0.31698383E+02</rscale>
<asrwt>0</asrwt>
<pdfrwt beam="2">  1        2 0.16869212E-01 0.24575045E+02</pdfrwt>
<pdfrwt beam="1">  1        1 0.65925607E-01 0.40886497E+02</pdfrwt>
<totfact> 0.23358636E+03</totfact>
</mgrwt>
</event>
<event>
 7    1  0.5277388E-004  0.1353575E+03  0.7546771E-02  0.1249888E+00
          2   -1    0    0  503    0  0.00000000000E+00  0.00000000000E+00  0.35403332591E+03  0.35403332591E+03  0.00000000000E+00 0. -1.
          1   -1    0    0  502    0 -0.00000000000E+00 -0.00000000000E+00 -0.16972085935E+03  0.16972085935E+03  0.00000000000E+00 0. -1.
         25    2    1    2    0    0  0.20873752954E+02 -0.99643100993E+02  0.13641875051E+02  0.16179048563E+03  0.12500239737E+03 0.  0.
          4    1    3    3  501    0  0.55446288878E+02 -0.23288658338E+02 -0.30072505505E+02  0.67250435276E+02  0.12700000000E+01 0.  1.
         -4    1    3    3    0  501 -0.34572535924E+02 -0.76354442656E+02  0.43714380556E+02  0.94540050353E+02  0.12700000000E+01 0.  1.
          2    1    1    2  502    0  0.42353590624E+02  0.17630139508E+03  0.21306210952E+02  0.18256495603E+03  0.00000000000E+00 0. -1.
          1    1    1    2  503    0 -0.63227343577E+02 -0.76658294085E+02  0.14936438055E+03  0.17939874360E+03  0.00000000000E+00 0. -1.
<mgrwt>
<rscale>  0 0.11597557E+03</rscale>
<asrwt>0</asrwt>
<pdfrwt beam="1">  1        2 0.54466665E-01 0.99368964E+02</pdfrwt>
<pdfrwt beam="2">  1        1 0.26110902E-01 0.13535748E+03</pdfrwt>
<totfact> 0.22081428E+03</totfact>
</mgrwt>
</event>
<event>
 7    1  0.5277388E-004  0.4701174E+02  0.7546771E-02  0.1507197E+00
          2   -1    0    0  503    0  0.00000000000E+00  0.00000000000E+00  0.13016305650E+04  0.13016305650E+04  0.00000000000E+00 0. -1.
          1   -1    0    0  502    0 -0.00000000000E+00 -0.00000000000E+00 -0.28982684168E+04  0.28982684168E+04  0.00000000000E+00 0. -1.
         25    2    1    2    0    0 -0.71855969199E+02 -0.37688170481E+02 -0.54345486161E+02  0.15862918562E+03  0.12500443256E+03 0.  0.
          4    1    3    3  501    0  0.66947626584E+01  0.16114286327E+02  0.27817695950E+02  0.32862245493E+02  0.12700000000E+01 0.  1.
         -4    1    3    3    0  501 -0.78550731857E+02 -0.53802456808E+02 -0.82163182112E+02  0.12576694013E+03  0.12700000000E+01 0.  1.
          2    1    1    2  502    0  0.41185925091E+02  0.22399311678E+02 -0.27913492224E+04  0.27917429127E+04  0.00000000000E+00 0. -1.
          1    1    1    2  503    0  0.30670044108E+02  0.15288858803E+02  0.12490568568E+04  0.12495268834E+04  0.00000000000E+00 0. -1.
<mgrwt>
<rscale>  0 0.40138141E+02</rscale>
<asrwt>0</asrwt>
<pdfrwt beam="1">  1        2 0.20025086E+00 0.34269532E+02</pdfrwt>
<pdfrwt beam="2">  1        1 0.44588745E+00 0.47011740E+02</pdfrwt>
<totfact> 0.31796606E+00</totfact>
</mgrwt>
</event>
<event>
 7    1  0.5277388E-004  0.3289063E+02  0.7546771E-02  0.1612988E+00
          2   -1    0    0  503    0  0.00000000000E+00  0.00000000000E+00  0.67795866577E+03  0.67795866577E+03  0.00000000000E+00 0. -1.
          1   -1    0    0  502    0 -0.00000000000E+00 -0.00000000000E+00 -0.24101945569E+03  0.24101945569E+03  0.00000000000E+00 0. -1.
         25    2    1    2    0    0 -0.51881750593E+01  0.13594872556E+02  0.25695887022E+03  0.28611638084E+03  0.12499193845E+03 0.  0.
          4    1    3    3  501    0  0.52034779754E+02  0.27372792522E+02  0.17908180184E+03  0.18849082928E+03  0.12700000000E+01 0. -1.
         -4    1    3    3    0  501 -0.57222954814E+02 -0.13777919966E+02  0.77877068384E+02  0.97625551554E+02  0.12700000000E+01 0. -1.
          2    1    1    2  502    0 -0.13716197745E+02 -0.30004702145E+02 -0.22485036983E+03  0.22725779424E+03  0.00000000000E+00 0. -1.
          1    1    1    2  503    0  0.18904372805E+02  0.16409829588E+02  0.40483070969E+03  0.40560394639E+03  0.00000000000E+00 0. -1.
<mgrwt>
<rscale>  0 0.28694174E+02</rscale>
<asrwt>0</asrwt>
<pdfrwt beam="1">  1        2 0.10430133E+00 0.25033134E+02</pdfrwt>
<pdfrwt beam="2">  1        1 0.37079917E-01 0.32890631E+02</pdfrwt>
<totfact> 0.71839064E+02</totfact>
</mgrwt>
</event>
<event>
 7    1  0.5277388E-004  0.1775330E+03  0.7546771E-02  0.1356319E+00
         -1   -1    0    0    0  502 -0.00000000000E+00  0.00000000000E+00  0.35629095344E+03  0.35629095344E+03  0.00000000000E+00 0.  1.
         -2   -1    0    0    0  501  0.00000000000E+00 -0.00000000000E+00 -0.63091432245E+03  0.63091432245E+03  0.00000000000E+00 0.  1.
         25    2    1    2    0    0  0.15181034816E+03 -0.47150730735E+02  0.66554430546E+02  0.21289432811E+03  0.12499971800E+03 0.  0.
          4    1    3    3  503    0  0.10535037904E+03 -0.52491465280E+02 -0.15213242756E+02  0.11868913997E+03  0.12700000000E+01 0. -1.
         -4    1    3    3    0  503  0.46459969113E+02  0.53407345457E+01  0.81767673302E+02  0.94205188141E+02  0.12700000000E+01 0. -1.
         -2    1    1    2    0  502  0.24700410774E+02  0.14202341796E+02  0.20108442058E+03  0.20309298611E+03  0.00000000000E+00 0.  1.
         -1    1    1    2    0  501 -0.17651075893E+03  0.32948388939E+02 -0.54226222013E+03  0.57121796167E+03  0.00000000000E+00 0.  1.
<mgrwt>
<rscale>  0 0.71122024E+02</rscale>
<asrwt>0</asrwt>
<pdfrwt beam="2">  1       -2 0.97063741E-01 0.17753304E+03</pdfrwt>
<pdfrwt beam="1">  1       -1 0.54813993E-01 0.28492399E+02</pdfrwt>
<totfact> 0.24600026E+01</totfact>
</mgrwt>
</event>
<event>
 7    1  0.5277388E-004  0.1020925E+03  0.7546771E-02  0.1358140E+00
          2   -1    0    0  503    0  0.00000000000E+00  0.00000000000E+00  0.22169776176E+04  0.22169776176E+04  0.00000000000E+00 0. -1.
          1   -1    0    0  502    0 -0.00000000000E+00 -0.00000000000E+00 -0.24390248587E+02  0.24390248587E+02  0.00000000000E+00 0. -1.
         25    2    1    2    0    0 -0.58822354576E+02  0.43998025345E+01  0.11350591927E+04  0.11434430491E+04  0.12499283212E+03 0.  0.
          4    1    3    3  501    0 -0.34217989537E+02  0.58287330004E+02  0.82555550725E+03  0.82831865371E+03  0.12700000000E+01 0.  1.
         -4    1    3    3    0  501 -0.24604365039E+02 -0.53887527469E+02  0.30950368541E+03  0.31512439540E+03  0.12700000000E+01 0.  1.
          2    1    1    2  502    0  0.10761309500E+03 -0.44998851067E+01  0.12872947368E+03  0.16784547827E+03  0.00000000000E+00 0. -1.
          1    1    1    2  503    0 -0.48790740424E+02  0.10008257230E+00  0.92879870270E+03  0.93007933883E+03  0.00000000000E+00 0. -1.
<mgrwt>
<rscale>  0 0.70577473E+02</rscale>
<asrwt>0</asrwt>
<pdfrwt beam="1">  1        2 0.34107332E+00 0.48790843E+02</pdfrwt>
<pdfrwt beam="2">  1        1 0.37523477E-02 0.10209251E+03</pdfrwt>
<totfact> 0.21531302E+03</totfact>
</mgrwt>
</event>
<event>
 7    1  0.5277388E-004  0.5890581E+02  0.7546771E-02  0.1489744E+00
          1   -1    0    0  502    0 -0.00000000000E+00  0.00000000000E+00  0.46940551284E+03  0.46940551284E+03  0.00000000000E+00 0. -1.
          2   -1    0    0  503    0  0.00000000000E+00 -0.00000000000E+00 -0.11246607052E+03  0.11246607052E+03  0.00000000000E+00 0. -1.
         25    2    1    2    0    0 -0.85293499466E+02 -0.12551282858E+02  0.31557788321E+03  0.35021267227E+03  0.12500799852E+03 0.  0.
          4    1    3    3  501    0 -0.10273266372E+03 -0.30287310792E+02  0.30480373931E+03  0.32307623525E+03  0.12700000000E+01 0.  1.
         -4    1    3    3    0  501  0.17439164257E+02  0.17736027934E+02  0.10774143901E+02  0.27136437011E+02  0.12700000000E+01 0.  1.
          2    1    1    2  502    0  0.30207410440E+02 -0.62267239891E+01  0.12556652441E+03  0.12929892416E+03  0.00000000000E+00 0. -1.
          1    1    1    2  503    0  0.55086089025E+02  0.18778006847E+02 -0.84204965295E+02  0.10235998694E+03  0.00000000000E+00 0. -1.
<mgrwt>
<rscale>  0 0.42623964E+02</rscale>
<asrwt>0</asrwt>
<pdfrwt beam="2">  1        2 0.17302473E-01 0.58905808E+02</pdfrwt>
<pdfrwt beam="1">  1        1 0.72216231E-01 0.30842499E+02</pdfrwt>
<totfact> 0.21480669E+03</totfact>
</mgrwt>
</event>
<event>
 7    1  0.5277388E-004  0.9431490E+02  0.7546771E-02  0.1293330E+00
          2   -1    0    0  503    0  0.00000000000E+00  0.00000000000E+00  0.11412679571E+04  0.11412679571E+04  0.00000000000E+00 0. -1.
          1   -1    0    0  502    0 -0.00000000000E+00 -0.00000000000E+00 -0.10474386783E+03  0.10474386783E+03  0.00000000000E+00 0. -1.
         25    2    1    2    0    0 -0.83527302237E+01 -0.22165700542E+02  0.27320186579E+03  0.30137477438E+03  0.12500563499E+03 0.  0.
          4    1    3    3  501    0 -0.66541711385E+02 -0.88280364793E+01  0.13290380463E+03  0.14889851499E+03  0.12700000000E+01 0.  1.
         -4    1    3    3    0  501  0.58188981161E+02 -0.13337664063E+02  0.14029806116E+03  0.15247625938E+03  0.12700000000E+01 0.  1.
          2    1    1    2  502    0 -0.79411098539E+02 -0.50883960012E+02 -0.61079105249E+02  0.11236528403E+03  0.00000000000E+00 0. -1.
          1    1    1    2  503    0  0.87763828763E+02  0.73049660554E+02  0.82440132869E+03  0.83227176649E+03  0.00000000000E+00 0. -1.
<mgrwt>
<rscale>  0 0.94050242E+02</rscale>
<asrwt>0</asrwt>
<pdfrwt beam="1">  1        2 0.17557968E+00 0.93786328E+02</pdfrwt>
<pdfrwt beam="2">  1        1 0.16114442E-01 0.94314898E+02</pdfrwt>
<totfact> 0.10161104E+03</totfact>
</mgrwt>
</event>
<event>
 7    1  0.5277388E-004  0.7814474E+02  0.7546771E-02  0.1421604E+00
          1   -1    0    0  502    0 -0.00000000000E+00  0.00000000000E+00  0.76849648441E+03  0.76849648441E+03  0.00000000000E+00 0. -1.
          2   -1    0    0  503    0  0.00000000000E+00 -0.00000000000E+00 -0.19757056409E+04  0.19757056409E+04  0.00000000000E+00 0. -1.
         25    2    1    2    0    0  0.40980532768E+02  0.97158322340E+01 -0.14932193525E+03  0.19924477696E+03  0.12501055690E+03 0.  0.
          4    1    3    3  501    0 -0.20256482131E+02 -0.17964691292E+02  0.79210613407E+01  0.28238472237E+02  0.12700000000E+01 0. -1.
         -4    1    3    3    0  501  0.61237014899E+02  0.27680523526E+02 -0.15724299659E+03  0.17100630472E+03  0.12700000000E+01 0. -1.
          2    1    1    2  502    0  0.38153233868E+02 -0.29279008637E+01  0.74216646785E+03  0.74315227770E+03  0.00000000000E+00 0. -1.
          1    1    1    2  503    0 -0.79133766636E+02 -0.67879313703E+01 -0.18000536891E+04  0.18018050707E+04  0.00000000000E+00 0. -1.
<mgrwt>
<rscale>  0 0.54683092E+02</rscale>
<asrwt>0</asrwt>
<pdfrwt beam="2">  1        2 0.30395471E+00 0.78144735E+02</pdfrwt>
<pdfrwt beam="1">  1        1 0.11823023E+00 0.38265413E+02</pdfrwt>
<totfact> 0.32210872E+01</totfact>
</mgrwt>
</event>
<event>
 7    1  0.5277388E-004  0.5266096E+02  0.7546771E-02  0.1551511E+00
          1   -1    0    0  502    0 -0.00000000000E+00  0.00000000000E+00  0.69399383056E+02  0.69399383056E+02  0.00000000000E+00 0. -1.
          2   -1    0    0  503    0  0.00000000000E+00 -0.00000000000E+00 -0.18515052357E+04  0.18515052357E+04  0.00000000000E+00 0. -1.
         25    2    1    2    0    0  0.73292395358E+02 -0.20610355459E+01 -0.67894501283E+03  0.69423884758E+03  0.12500089580E+03 0.  0.
          4    1    3    3  501    0 -0.29082450945E+02  0.16292880377E+02 -0.86070358813E+02  0.92309081190E+02  0.12700000000E+01 0. -1.
         -4    1    3    3    0  501  0.10237484630E+03 -0.18353915923E+02 -0.59287465402E+03  0.60192976639E+03  0.12700000000E+01 0. -1.
          2    1    1    2  502    0 -0.51979226816E+02 -0.61252640073E+01  0.50529120454E+02  0.72749920229E+02  0.00000000000E+00 0. -1.
          1    1    1    2  503    0 -0.21313168541E+02  0.81862995532E+01 -0.11536899603E+04  0.11539158510E+04  0.00000000000E+00 0. -1.
<mgrwt>
<rscale>  0 0.34674435E+02</rscale>
<asrwt>0</asrwt>
<pdfrwt beam="2">  1        2 0.28484689E+00 0.22831265E+02</pdfrwt>
<pdfrwt beam="1">  1        1 0.10676831E-01 0.52660965E+02</pdfrwt>
<totfact> 0.83485086E+02</totfact>
</mgrwt>
</event>
<event>
 7    1  0.5277388E-004  0.6453999E+02  0.7546771E-02  0.1518299E+00
          1   -1    0    0  503    0  0.00000000000E+00  0.00000000000E+00  0.15812242405E+03  0.15812242405E+03  0.00000000000E+00 0. -1.
         -1   -1    0    0    0  501 -0.00000000000E+00 -0.00000000000E+00 -0.11958850069E+03  0.11958850069E+03  0.00000000000E+00 0.  1.
         25    2    1    2    0    0  0.46479765826E+02  0.24238272927E+02 -0.45984048118E+02  0.14313495116E+03  0.12500087623E+03 0.  0.
          4    1    3    3  502    0  0.39801259657E+02  0.45609385455E+02 -0.81258174447E+02  0.10133538437E+03  0.12700000000E+01 0. -1.
         -4    1    3    3    0  502  0.66785061696E+01 -0.21371112528E+02  0.35274126329E+02  0.41799566787E+02  0.12700000000E+01 0. -1.
          2    1    1    2  503    0 -0.65337273919E+02 -0.10793666062E+02  0.89052594604E+02  0.11097669663E+03  0.00000000000E+00 0. -1.
         -2    1    1    2    0  501  0.18857508093E+02 -0.13444606866E+02 -0.45346231309E+01  0.23599276942E+02  0.00000000000E+00 0.  1.
<mgrwt>
<rscale>  0 0.38661540E+02</rscale>
<asrwt>0</asrwt>
<pdfrwt beam="1">  1        1 0.24326527E-01 0.64539988E+02</pdfrwt>
<pdfrwt beam="2">  1       -1 0.18398231E-01 0.23159513E+02</pdfrwt>
<totfact> 0.39395972E+03</totfact>
</mgrwt>
</event>
<event>
 7    1  0.5277388E-004  0.3465096E+02  0.7546771E-02  0.1616093E+00
          2   -1    0    0  503    0  0.00000000000E+00  0.00000000000E+00  0.17518037541E+04  0.17518037541E+04  0.00000000000E+00 0. -1.
         -2   -1    0    0    0  501 -0.00000000000E+00 -0.00000000000E+00 -0.18560649636E+03  0.18560649636E+03  0.00000000000E+00 0.  1.
         25    2    1    2    0    0 -0.72227728147E+01  0.11690666148E+02 -0.93501090536E+00  0.12575667559E+03  0.12500010836E+03 0.  0.
          4    1    3    3  502    0  0.37601243896E+02 -0.28179163210E+02 -0.33276641632E+02  0.57592243923E+02  0.12700000000E+01 0.  1.
         -4    1    3    3    0  502 -0.44824016711E+02  0.39869829358E+02  0.32341630727E+02  0.68164431672E+02  0.12700000000E+01 0.  1.
          1    1    1    2  503    0  0.95817289479E+00  0.23310019541E+02  0.16867253070E+04  0.16868866400E+04  0.00000000000E+00 0. -1.
         -1    1    1    2    0  501  0.62645999200E+01 -0.35000685689E+02 -0.11959303833E+03  0.12476693484E+03  0.00000000000E+00 0.  1.
<mgrwt>
<rscale>  0 0.28432319E+02</rscale>
<asrwt>0</asrwt>
<pdfrwt beam="1">  1        2 0.26950826E+00 0.23329704E+02</pdfrwt>
<pdfrwt beam="2">  1       -2 0.28554847E-01 0.34650964E+02</pdfrwt>
<totfact> 0.13715158E+02</totfact>
</mgrwt>
</event>
<event>
 7    1  0.5277388E-004  0.9449986E+02  0.7546771E-02  0.1297687E+00
          1   -1    0    0  502    0 -0.00000000000E+00  0.00000000000E+00  0.52738543764E+03  0.52738543764E+03  0.00000000000E+00 0. -1.
          2   -1    0    0  503    0  0.00000000000E+00 -0.00000000000E+00 -0.15017008350E+04  0.15017008350E+04  0.00000000000E+00 0. -1.
         25    2    1    2    0    0 -0.57702594164E+02 -0.11757879275E+03  0.22940912678E+03  0.29224664223E+03  0.12500076227E+03 0.  0.
          4    1    3    3  501    0 -0.57546438758E+02 -0.13839687502E+03  0.22588729744E+03  0.27109402736E+03  0.12700000000E+01 0. -1.
         -4    1    3    3    0  501 -0.15615540599E+00  0.20818082266E+02  0.35218293390E+01  0.21152614865E+02  0.12700000000E+01 0. -1.
          2    1    1    2  502    0 -0.27172366807E+02  0.87969053757E+02  0.25718431586E+03  0.27316783167E+03  0.00000000000E+00 0. -1.
          1    1    1    2  503    0  0.84874960971E+02  0.29609738994E+02 -0.14609088400E+04  0.14636717987E+04  0.00000000000E+00 0. -1.
<mgrwt>
<rscale>  0 0.92166921E+02</rscale>
<asrwt>0</asrwt>
<pdfrwt beam="2">  1        2 0.23103090E+00 0.89891577E+02</pdfrwt>
<pdfrwt beam="1">  1        1 0.81136222E-01 0.94499859E+02</pdfrwt>
<totfact> 0.88106995E+01</totfact>
</mgrwt>
</event>
<event>
 7    1  0.5277388E-004  0.8436767E+02  0.7546771E-02  0.1471345E+00
          1   -1    0    0  502    0 -0.00000000000E+00  0.00000000000E+00  0.37349809297E+02  0.37349809297E+02  0.00000000000E+00 0. -1.
          2   -1    0    0  503    0  0.00000000000E+00 -0.00000000000E+00 -0.16735986514E+04  0.16735986514E+04  0.00000000000E+00 0. -1.
         25    2    1    2    0    0  0.97673997403E+02 -0.37615500872E+02 -0.62491485398E+03  0.64583100665E+03  0.12499591495E+03 0.  0.
          4    1    3    3  501    0  0.94127109625E+02 -0.29065246352E+02 -0.62823654068E+03  0.63591466822E+03  0.12700000000E+01 0. -1.
         -4    1    3    3    0  501  0.35468877777E+01 -0.85502545195E+01  0.33216867046E+01  0.99163384280E+01  0.12700000000E+01 0. -1.
          2    1    1    2  502    0 -0.73155132168E+02  0.37913999995E+02 -0.36742038147E+02  0.90217083334E+02  0.00000000000E+00 0. -1.
          1    1    1    2  503    0 -0.24518865235E+02 -0.29849912316E+00 -0.97459194998E+03  0.97490037071E+03  0.00000000000E+00 0. -1.
<mgrwt>
<rscale>  0 0.45483545E+02</rscale>
<asrwt>0</asrwt>
<pdfrwt beam="2">  1        2 0.25747667E+00 0.24520682E+02</pdfrwt>
<pdfrwt beam="1">  1        1 0.57461254E-02 0.84367672E+02</pdfrwt>
<totfact> 0.23450493E+03</totfact>
</mgrwt>
</event>
<event>
 7    1  0.5277388E-004  0.1412060E+03  0.7546771E-02  0.1221221E+00
          2   -1    0    0  503    0  0.00000000000E+00  0.00000000000E+00  0.93775342549E+03  0.93775342549E+03  0.00000000000E+00 0. -1.
          1   -1    0    0  502    0 -0.00000000000E+00 -0.00000000000E+00 -0.14045533976E+03  0.14045533976E+03  0.00000000000E+00 0. -1.
         25    2    1    2    0    0  0.37924176834E+02  0.57913136878E+02  0.30526053872E+02  0.14611251588E+03  0.12499941088E+03 0.  0.
          4    1    3    3  501    0  0.25206062621E+02  0.16797739724E+02 -0.47874846588E+02  0.56666775879E+02  0.12700000000E+01 0. -1.
         -4    1    3    3    0  501  0.12718114213E+02  0.41115397154E+02  0.78400900459E+02  0.89445740005E+02  0.12700000000E+01 0. -1.
          2    1    1    2  502    0  0.11615845611E+03 -0.53097181610E+02 -0.20955139496E+02  0.12942648683E+03  0.00000000000E+00 0. -1.
          1    1    1    2  503    0 -0.15408263295E+03 -0.48159552676E+01  0.78772717136E+03  0.80266976254E+03  0.00000000000E+00 0. -1.
<mgrwt>
<rscale>  0 0.13429322E+03</rscale>
<asrwt>0</asrwt>
<pdfrwt beam="1">  1        2 0.14426975E+00 0.14120604E+03</pdfrwt>
<pdfrwt beam="2">  1        1 0.21608514E-01 0.12771882E+03</pdfrwt>
<totfact> 0.91062501E+02</totfact>
</mgrwt>
</event>
<event>
 7    1  0.5277388E-004  0.8635134E+02  0.7546771E-02  0.1325270E+00
          1   -1    0    0  503    0  0.00000000000E+00  0.00000000000E+00  0.12545937230E+04  0.12545937230E+04  0.00000000000E+00 0. -1.
         -1   -1    0    0    0  501 -0.00000000000E+00 -0.00000000000E+00 -0.36100845158E+03  0.36100845158E+03  0.00000000000E+00 0.  1.
         25    2    1    2    0    0  0.10208839480E+02  0.10704624564E+02  0.15623366089E+02  0.12684352562E+03  0.12500552401E+03 0.  0.
          4    1    3    3  502    0  0.13615194902E+02  0.42883992386E+02  0.58058569986E+02  0.73463057273E+02  0.12700000000E+01 0.  1.
         -4    1    3    3    0  502 -0.34063554224E+01 -0.32179367822E+02 -0.42435203896E+02  0.53380468342E+02  0.12700000000E+01 0.  1.
          2    1    1    2  503    0 -0.86276266835E+02 -0.20003182044E+02  0.11768626355E+04  0.11801904017E+04  0.00000000000E+00 0. -1.
         -2    1    1    2    0  501  0.76067427355E+02  0.92985574805E+01 -0.29890073019E+03  0.30856824721E+03  0.00000000000E+00 0.  1.
<mgrwt>
<rscale>  0 0.81347518E+02</rscale>
<asrwt>0</asrwt>
<pdfrwt beam="1">  1        1 0.19301442E+00 0.86351342E+02</pdfrwt>
<pdfrwt beam="2">  1       -1 0.55539762E-01 0.76633652E+02</pdfrwt>
<totfact> 0.39907148E+01</totfact>
</mgrwt>
</event>
<event>
 7    1  0.5277388E-004  0.7399280E+02  0.7546771E-02  0.1480426E+00
         -2   -1    0    0    0  501  0.00000000000E+00  0.00000000000E+00  0.96428645927E+02  0.96428645927E+02  0.00000000000E+00 0.  1.
         -3   -1    0    0    0  502 -0.00000000000E+00 -0.00000000000E+00 -0.17736304613E+03  0.17736304613E+03  0.00000000000E+00 0.  1.
         25    2    1    2    0    0 -0.62457292424E+02  0.50042820862E+02 -0.44230577691E+02  0.15488088886E+03  0.12500619359E+03 0.  0.
          4    1    3    3  503    0  0.33254638702E+02 -0.31030335777E+01  0.67674348449E+01  0.34101479249E+02  0.12700000000E+01 0. -1.
         -4    1    3    3    0  503 -0.95711931126E+02  0.53145854440E+02 -0.50998012536E+02  0.12077940961E+03  0.12700000000E+01 0. -1.
         -2    1    1    2    0  502 -0.62237399883E+01 -0.25462662863E+02 -0.37747848993E+02  0.45956307980E+02  0.00000000000E+00 0.  1.
         -1    1    1    2    0  501  0.68681032413E+02 -0.24580157999E+02  0.10440264830E+01  0.72954495213E+02  0.00000000000E+00 0.  1.
<mgrwt>
<rscale>  0 0.44039959E+02</rscale>
<asrwt>0</asrwt>
<pdfrwt beam="1">  1       -2 0.14835176E-01 0.73992803E+02</pdfrwt>
<pdfrwt beam="2">  1       -3 0.27286622E-01 0.26212252E+02</pdfrwt>
<totfact> 0.13827150E+03</totfact>
</mgrwt>
</event>
<event>
 7    1  0.5277388E-004  0.5016018E+02  0.7546771E-02  0.1564442E+00
          2   -1    0    0  503    0  0.00000000000E+00  0.00000000000E+00  0.17008177222E+04  0.17008177222E+04  0.00000000000E+00 0. -1.
          1   -1    0    0  502    0 -0.00000000000E+00 -0.00000000000E+00 -0.17427247157E+03  0.17427247157E+03  0.00000000000E+00 0. -1.
         25    2    1    2    0    0 -0.67758616160E+02  0.22110056717E+02  0.18640859084E+03  0.23547876268E+03  0.12498800048E+03 0.  0.
          4    1    3    3  501    0  0.46259280572E+01  0.60259765949E+02  0.62195089444E+02  0.86732235377E+02  0.12700000000E+01 0. -1.
         -4    1    3    3    0  501 -0.72384544217E+02 -0.38149709232E+02  0.12421350139E+03  0.14874652730E+03  0.12700000000E+01 0. -1.
          2    1    1    2  502    0  0.45861964694E+02 -0.19283071521E+02 -0.14552060230E+03  0.15379012434E+03  0.00000000000E+00 0. -1.
          1    1    1    2  503    0  0.21896651466E+02 -0.28269851960E+01  0.14856572621E+04  0.14858213067E+04  0.00000000000E+00 0. -1.
<mgrwt>
<rscale>  0 0.33278461E+02</rscale>
<asrwt>0</asrwt>
<pdfrwt beam="1">  1        2 0.26166425E+00 0.22078387E+02</pdfrwt>
<pdfrwt beam="2">  1        1 0.26811151E-01 0.50160184E+02</pdfrwt>
<totfact> 0.31212078E+02</totfact>
</mgrwt>
</event>
<event>
 7    1  0.5277388E-004  0.8279331E+02  0.7546771E-02  0.1406090E+00
          2   -1    0    0  503    0  0.00000000000E+00  0.00000000000E+00  0.33142411371E+04  0.33142411371E+04  0.00000000000E+00 0. -1.
          1   -1    0    0  502    0 -0.00000000000E+00 -0.00000000000E+00 -0.54292717214E+02  0.54292717214E+02  0.00000000000E+00 0. -1.
         25    2    1    2    0    0 -0.44798746434E+02  0.53963016139E+01  0.24916081998E+03  0.28238577032E+03  0.12499824525E+03 0.  0.
          4    1    3    3  501    0  0.14943238536E+02  0.58844806981E+01  0.21071332188E+03  0.21132828587E+03  0.12700000000E+01 0. -1.
         -4    1    3    3    0  501 -0.59741984970E+02 -0.48817908421E+00  0.38447498097E+02  0.71057484453E+02  0.12700000000E+01 0. -1.
          2    1    1    2  502    0 -0.39136030597E+02 -0.11309401225E+02 -0.25913898649E+02  0.48281068651E+02  0.00000000000E+00 0. -1.
          1    1    1    2  503    0  0.83934777031E+02  0.59130996111E+01  0.30367014986E+04  0.30378670153E+04  0.00000000000E+00 0. -1.
<mgrwt>
<rscale>  0 0.58075637E+02</rscale>
<asrwt>0</asrwt>
<pdfrwt beam="1">  1        2 0.50988309E+00 0.82793306E+02</pdfrwt>
<pdfrwt beam="2">  1        1 0.83527284E-02 0.40737347E+02</pdfrwt>
<totfact> 0.15938239E+02</totfact>
</mgrwt>
</event>
<event>
 7    1  0.5277388E-004  0.6243881E+02  0.7546771E-02  0.1513136E+00
          2   -1    0    0  503    0  0.00000000000E+00  0.00000000000E+00  0.91667045359E+03  0.91667045359E+03  0.00000000000E+00 0. -1.
         -2   -1    0    0    0  501 -0.00000000000E+00 -0.00000000000E+00 -0.39503274731E+02  0.39503274731E+02  0.00000000000E+00 0.  1.
         25    2    1    2    0    0 -0.80129365462E+02 -0.22260557630E+02  0.18573381099E+03  0.23882742872E+03  0.12500097810E+03 0.  0.
          4    1    3    3  502    0 -0.93710086923E+02  0.26542086581E+02  0.14011266637E+03  0.17064359036E+03  0.12700000000E+01 0. -1.
         -4    1    3    3    0  502  0.13580721461E+02 -0.48802644212E+02  0.45621144616E+02  0.68183838360E+02  0.12700000000E+01 0. -1.
          1    1    1    2  503    0  0.55635062631E+02  0.26042794861E+02  0.68977648815E+03  0.69250638334E+03  0.00000000000E+00 0. -1.
         -1    1    1    2    0  501  0.24494302831E+02 -0.37822372312E+01  0.16568797176E+01  0.24839916265E+02  0.00000000000E+00 0.  1.
<mgrwt>
<rscale>  0 0.39338539E+02</rscale>
<asrwt>0</asrwt>
<pdfrwt beam="1">  1        2 0.14102621E+00 0.62438809E+02</pdfrwt>
<pdfrwt beam="2">  1       -2 0.60774276E-02 0.24784596E+02</pdfrwt>
<totfact> 0.36594355E+03</totfact>
</mgrwt>
</event>
<event>
 7    1  0.5277388E-004  0.4497582E+03  0.7546771E-02  0.1027794E+00
          1   -1    0    0  503    0  0.00000000000E+00  0.00000000000E+00  0.17802898676E+04  0.17802898676E+04  0.00000000000E+00 0. -1.
         -1   -1    0    0    0  501 -0.00000000000E+00 -0.00000000000E+00 -0.28405830450E+02  0.28405830450E+02  0.00000000000E+00 0.  1.
         25    2    1    2    0    0 -0.15664557793E+03 -0.10474133310E+03  0.10973197361E+04  0.11203772662E+04  0.12500412551E+03 0.  0.
          4    1    3    3  502    0 -0.15672816461E+03 -0.91669108503E+02  0.71048088179E+03  0.73331551144E+03  0.12700000000E+01 0. -1.
         -4    1    3    3    0  502  0.82586677081E-01 -0.13072224597E+02  0.38683885429E+03  0.38706175471E+03  0.12700000000E+01 0. -1.
          2    1    1    2  503    0  0.54901061870E+02  0.95053032664E+02  0.37096732099E+03  0.38686684900E+03  0.00000000000E+00 0. -1.
         -2    1    1    2    0  501  0.10174451606E+03  0.96883004367E+01  0.28359698007E+03  0.30145158288E+03  0.00000000000E+00 0.  1.
<mgrwt>
<rscale>  0 0.44975821E+03</rscale>
<asrwt>0</asrwt>
<pdfrwt beam="1">  1        1 0.27389066E+00 0.44975821E+03</pdfrwt>
<pdfrwt beam="2">  1       -1 0.43701292E-02 0.44975821E+03</pdfrwt>
<totfact> 0.99699788E+02</totfact>
</mgrwt>
</event>
<event>
 7    1  0.5277388E-004  0.4427956E+02  0.7546771E-02  0.1542511E+00
          1   -1    0    0  502    0 -0.00000000000E+00  0.00000000000E+00  0.32837962322E+03  0.32837962322E+03  0.00000000000E+00 0. -1.
          2   -1    0    0  503    0  0.00000000000E+00 -0.00000000000E+00 -0.10985525520E+04  0.10985525520E+04  0.00000000000E+00 0. -1.
         25    2    1    2    0    0 -0.46039701794E+02  0.43377794408E+02  0.17600873092E+03  0.22497790690E+03  0.12503878616E+03 0.  0.
          4    1    3    3  501    0  0.17489191183E+02  0.54298904542E+02  0.28049474962E+02  0.63581670223E+02  0.12700000000E+01 0. -1.
         -4    1    3    3    0  501 -0.63528892977E+02 -0.10921110134E+02  0.14795925596E+03  0.16139623667E+03  0.12700000000E+01 0. -1.
          2    1    1    2  502    0  0.43895515200E+01 -0.28438598923E+02  0.12580542397E+03  0.12905435588E+03  0.00000000000E+00 0. -1.
          1    1    1    2  503    0  0.41650150274E+02 -0.14939195485E+02 -0.10719870836E+04  0.10728999124E+04  0.00000000000E+00 0. -1.
<mgrwt>
<rscale>  0 0.35695389E+02</rscale>
<asrwt>0</asrwt>
<pdfrwt beam="2">  1        2 0.16900809E+00 0.44279558E+02</pdfrwt>
<pdfrwt beam="1">  1        1 0.50519941E-01 0.28775373E+02</pdfrwt>
<totfact> 0.27256387E+02</totfact>
</mgrwt>
</event>
<event>
 7    1  0.5277388E-004  0.8625925E+02  0.7546771E-02  0.1375561E+00
          1   -1    0    0  503    0  0.00000000000E+00  0.00000000000E+00  0.30593622740E+03  0.30593622740E+03  0.00000000000E+00 0. -1.
         -1   -1    0    0    0  501 -0.00000000000E+00 -0.00000000000E+00 -0.79214218263E+03  0.79214218263E+03  0.00000000000E+00 0.  1.
         25    2    1    2    0    0 -0.52381187450E+02 -0.39384179057E+02  0.84708187016E+02  0.16460684392E+03  0.12500013503E+03 0.  0.
          4    1    3    3  502    0 -0.74214851460E+02 -0.12101171276E+02  0.10108705582E+03  0.12599400096E+03  0.12700000000E+01 0.  1.
         -4    1    3    3    0  502  0.21833664010E+02 -0.27283007780E+02 -0.16378868809E+02  0.38612842955E+02  0.12700000000E+01 0.  1.
          2    1    1    2  503    0  0.25163685189E+02 -0.43156794501E+02  0.17526602111E+03  0.18224680551E+03  0.00000000000E+00 0. -1.
         -2    1    1    2    0  501  0.27217502261E+02  0.82540973557E+02 -0.74618016335E+03  0.75122476059E+03  0.00000000000E+00 0.  1.
<mgrwt>
<rscale>  0 0.65645021E+02</rscale>
<asrwt>0</asrwt>
<pdfrwt beam="1">  1        1 0.47067112E-01 0.49957181E+02</pdfrwt>
<pdfrwt beam="2">  1       -1 0.12186803E+00 0.86259247E+02</pdfrwt>
<totfact> 0.58603634E+01</totfact>
</mgrwt>
</event>
<event>
 7    1  0.5277388E-004  0.1313764E+03  0.7546771E-02  0.1291356E+00
          1   -1    0    0  502    0 -0.00000000000E+00  0.00000000000E+00  0.10722291084E+04  0.10722291084E+04  0.00000000000E+00 0. -1.
          2   -1    0    0  503    0  0.00000000000E+00 -0.00000000000E+00 -0.22006317219E+04  0.22006317219E+04  0.00000000000E+00 0. -1.
         25    2    1    2    0    0  0.13660034992E+03  0.10632090240E+03 -0.65966664867E+03  0.69336036386E+03  0.12499886767E+03 0.  0.
          4    1    3    3  501    0  0.10300710122E+03  0.54805040248E+02 -0.21648286305E+03  0.24592783135E+03  0.12700000000E+01 0.  1.
         -4    1    3    3    0  501  0.33593248703E+02  0.51515862153E+02 -0.44318378562E+03  0.44743253251E+03  0.12700000000E+01 0.  1.
          2    1    1    2  502    0 -0.12536426486E+03 -0.38667169557E+02  0.10505286729E+04  0.10586887368E+04  0.00000000000E+00 0. -1.
          1    1    1    2  503    0 -0.11236085062E+02 -0.67653732845E+02 -0.15192646378E+04  0.15208117296E+04  0.00000000000E+00 0. -1.
<mgrwt>
<rscale>  0 0.94920256E+02</rscale>
<asrwt>0</asrwt>
<pdfrwt beam="2">  1        2 0.33855872E+00 0.68580443E+02</pdfrwt>
<pdfrwt beam="1">  1        1 0.16495833E+00 0.13137645E+03</pdfrwt>
<totfact> 0.13954184E+01</totfact>
</mgrwt>
</event>
<event>
 7    1  0.5277388E-004  0.6308769E+02  0.7546771E-02  0.1406857E+00
          2   -1    0    0  503    0  0.00000000000E+00  0.00000000000E+00  0.41208258406E+02  0.41208258406E+02  0.00000000000E+00 0. -1.
          1   -1    0    0  502    0 -0.00000000000E+00 -0.00000000000E+00 -0.57295979026E+03  0.57295979026E+03  0.00000000000E+00 0. -1.
         25    2    1    2    0    0 -0.21020544198E+02 -0.24077808187E+02 -0.32764105324E+03  0.35212354115E+03  0.12498289619E+03 0.  0.
          4    1    3    3  501    0 -0.21951495779E+02 -0.53869449620E+02 -0.62813384812E+02  0.85620791756E+02  0.12700000000E+01 0. -1.
         -4    1    3    3    0  501  0.93095158138E+00  0.29791641434E+02 -0.26482766843E+03  0.26650274940E+03  0.12700000000E+01 0. -1.
          2    1    1    2  502    0  0.29522949338E+02 -0.44185527211E+02 -0.18228699691E+03  0.18987499729E+03  0.00000000000E+00 0. -1.
          1    1    1    2  503    0 -0.85024051396E+01  0.68263335398E+02 -0.21823481705E+02  0.72169510228E+02  0.00000000000E+00 0. -1.
<mgrwt>
<rscale>  0 0.57901144E+02</rscale>
<asrwt>0</asrwt>
<pdfrwt beam="1">  1        2 0.63397316E-02 0.63087686E+02</pdfrwt>
<pdfrwt beam="2">  1        1 0.88147666E-01 0.53140995E+02</pdfrwt>
<totfact> 0.54761128E+03</totfact>
</mgrwt>
</event>
<event>
 7    1  0.5277388E-004  0.3541901E+02  0.7546771E-02  0.1545607E+00
         -2   -1    0    0    0  501  0.00000000000E+00  0.00000000000E+00  0.58612303437E+03  0.58612303437E+03  0.00000000000E+00 0.  1.
         -1   -1    0    0    0  502 -0.00000000000E+00 -0.00000000000E+00 -0.14860594416E+03  0.14860594416E+03  0.00000000000E+00 0.  1.
         25    2    1    2    0    0  0.89848403421E+01  0.13542843949E+01  0.97337000926E+01  0.12571063822E+03  0.12500343276E+03 0.  0.
          4    1    3    3  503    0  0.28632335297E+02 -0.65988493860E+01  0.62367951704E+02  0.68954548346E+02  0.12700000000E+01 0. -1.
         -4    1    3    3    0  503 -0.19647494954E+02  0.79531337809E+01 -0.52634251612E+02  0.56756089873E+02  0.12700000000E+01 0. -1.
         -2    1    1    2    0  502 -0.89652625658E+01  0.34265587647E+02 -0.86516780930E+02  0.93486147702E+02  0.00000000000E+00 0.  1.
         -1    1    1    2    0  501 -0.19577776339E-01 -0.35619872042E+02  0.51430017105E+03  0.51553219260E+03  0.00000000000E+00 0.  1.
<mgrwt>
<rscale>  0 0.35339356E+02</rscale>
<asrwt>0</asrwt>
<pdfrwt beam="1">  1       -2 0.90172773E-01 0.35259879E+02</pdfrwt>
<pdfrwt beam="2">  1       -1 0.22862453E-01 0.35419012E+02</pdfrwt>
<totfact> 0.12847729E+02</totfact>
</mgrwt>
</event>
<event>
 7    1  0.5277388E-004  0.9150885E+02  0.7546771E-02  0.1358039E+00
          1   -1    0    0  502    0 -0.00000000000E+00  0.00000000000E+00  0.76548503474E+03  0.76548503474E+03  0.00000000000E+00 0. -1.
          2   -1    0    0  503    0  0.00000000000E+00 -0.00000000000E+00 -0.15883319788E+04  0.15883319788E+04  0.00000000000E+00 0. -1.
         25    2    1    2    0    0  0.25312400782E+02 -0.57146830362E+02 -0.10387725327E+03  0.17413174856E+03  0.12499961702E+03 0.  0.
          4    1    3    3  501    0  0.14267315946E+02 -0.50359224105E+02 -0.13261688712E+03  0.14257790645E+03  0.12700000000E+01 0.  1.
         -4    1    3    3    0  501  0.11045084836E+02 -0.67876062571E+01  0.28739633856E+02  0.31553842110E+02  0.12700000000E+01 0.  1.
          2    1    1    2  502    0  0.17648828534E+02  0.90649749069E+02  0.72692330889E+03  0.73276623500E+03  0.00000000000E+00 0. -1.
          1    1    1    2  503    0 -0.42961229316E+02 -0.33502918708E+02 -0.14458929996E+04  0.14469190299E+04  0.00000000000E+00 0. -1.
<mgrwt>
<rscale>  0 0.70607633E+02</rscale>
<asrwt>0</asrwt>
<pdfrwt beam="2">  1        2 0.24435876E+00 0.54480389E+02</pdfrwt>
<pdfrwt beam="1">  1        1 0.11776693E+00 0.91508852E+02</pdfrwt>
<totfact> 0.50061882E+01</totfact>
</mgrwt>
</event>
<event>
 7    1  0.5277388E-004  0.8314348E+02  0.7546771E-02  0.1439573E+00
         -2   -1    0    0    0  501 -0.00000000000E+00  0.00000000000E+00  0.59303843978E+02  0.59303843978E+02  0.00000000000E+00 0.  1.
          2   -1    0    0  503    0  0.00000000000E+00 -0.00000000000E+00 -0.78882987791E+03  0.78882987791E+03  0.00000000000E+00 0. -1.
         25    2    1    2    0    0 -0.66762450204E+02 -0.29170354442E+02 -0.25250924738E+03  0.29102357436E+03  0.12500266592E+03 0.  0.
          4    1    3    3  502    0 -0.71759427823E+02 -0.30333469435E+02 -0.59744340161E+02  0.98186220677E+02  0.12700000000E+01 0. -1.
         -4    1    3    3    0  502  0.49969776193E+01  0.11631149933E+01 -0.19276490722E+03  0.19283735369E+03  0.12700000000E+01 0. -1.
          1    1    1    2  503    0 -0.18760445105E+02  0.25164921405E+02 -0.47017392451E+03  0.47122048646E+03  0.00000000000E+00 0. -1.
         -1    1    1    2    0  501  0.85522895308E+02  0.40054330366E+01 -0.68428620336E+01  0.85889661057E+02  0.00000000000E+00 0.  1.
<mgrwt>
<rscale>  0 0.51085568E+02</rscale>
<asrwt>0</asrwt>
<pdfrwt beam="2">  1        2 0.12135844E+00 0.31388335E+02</pdfrwt>
<pdfrwt beam="1">  1       -2 0.91236683E-02 0.83143476E+02</pdfrwt>
<totfact> 0.27809690E+03</totfact>
</mgrwt>
</event>
<event>
 7    1  0.5277388E-004  0.9270489E+02  0.7546771E-02  0.1427460E+00
          1   -1    0    0  502    0 -0.00000000000E+00  0.00000000000E+00  0.26108843890E+04  0.26108843890E+04  0.00000000000E+00 0. -1.
          2   -1    0    0  503    0  0.00000000000E+00 -0.00000000000E+00 -0.11923716245E+03  0.11923716245E+03  0.00000000000E+00 0. -1.
         25    2    1    2    0    0  0.11449814255E+03 -0.27470792069E+02  0.11979857895E+04  0.12102311057E+04  0.12499963342E+03 0.  0.
          4    1    3    3  501    0  0.29742404302E+02 -0.17806982738E+02  0.88919806861E+03  0.88987443910E+03  0.12700000000E+01 0. -1.
         -4    1    3    3    0  501  0.84755738251E+02 -0.96638093307E+01  0.30878772090E+03  0.32035666664E+03  0.12700000000E+01 0. -1.
          2    1    1    2  502    0 -0.85549093333E+02  0.16826179549E+02  0.14032948828E+04  0.14060008164E+04  0.00000000000E+00 0. -1.
          1    1    1    2  503    0 -0.28949049220E+02  0.10644612519E+02 -0.10963344578E+03  0.11388962929E+03  0.00000000000E+00 0. -1.
<mgrwt>
<rscale>  0 0.53473302E+02</rscale>
<asrwt>0</asrwt>
<pdfrwt beam="2">  1        2 0.18344181E-01 0.30844047E+02</pdfrwt>
<pdfrwt beam="1">  1        1 0.40167448E+00 0.92704892E+02</pdfrwt>
<totfact> 0.59590467E+01</totfact>
</mgrwt>
</event>
<event>
 7    1  0.5277388E-004  0.2145385E+03  0.7546771E-02  0.1150860E+00
          2   -1    0    0  503    0  0.00000000000E+00  0.00000000000E+00  0.11823604286E+04  0.11823604286E+04  0.00000000000E+00 0. -1.
         -2   -1    0    0    0  501 -0.00000000000E+00 -0.00000000000E+00 -0.66789015851E+03  0.66789015851E+03  0.00000000000E+00 0.  1.
         25    2    1    2    0    0 -0.55712334206E+02 -0.64773517268E+02  0.23654214846E+03  0.28085021928E+03  0.12500073979E+03 0.  0.
          4    1    3    3  502    0 -0.11034122976E+01 -0.82375245281E+01 -0.15062557287E+02  0.17250155393E+02  0.12700000000E+01 0. -1.
         -4    1    3    3    0  502 -0.54608921908E+02 -0.56535992740E+02  0.25160470575E+03  0.26360006389E+03  0.12700000000E+01 0. -1.
          1    1    1    2  503    0  0.25287170093E+03  0.14936043952E+03  0.88133974795E+03  0.92898460124E+03  0.00000000000E+00 0. -1.
         -1    1    1    2    0  501 -0.19715936673E+03 -0.84586922251E+02 -0.60341162632E+03  0.64041576658E+03  0.00000000000E+00 0.  1.
<mgrwt>
<rscale>  0 0.19867749E+03</rscale>
<asrwt>0</asrwt>
<pdfrwt beam="1">  1        2 0.18190160E+00 0.18398911E+03</pdfrwt>
<pdfrwt beam="2">  1       -2 0.10275233E+00 0.21453849E+03</pdfrwt>
<totfact> 0.17264342E+01</totfact>
</mgrwt>
</event>
<event>
 7    1  0.5277388E-004  0.6928694E+02  0.7546771E-02  0.1405551E+00
          2   -1    0    0  503    0  0.00000000000E+00  0.00000000000E+00  0.69443734243E+03  0.69443734243E+03  0.00000000000E+00 0. -1.
          1   -1    0    0  502    0 -0.00000000000E+00 -0.00000000000E+00 -0.23897702884E+03  0.23897702884E+03  0.00000000000E+00 0. -1.
         25    2    1    2    0    0 -0.42580348753E+02  0.71419414224E+02 -0.22503528911E+02  0.15180372939E+03  0.12499657841E+03 0.  0.
          4    1    3    3  501    0 -0.45383290703E+02 -0.16302904289E+02 -0.39559336277E+02  0.62385749575E+02  0.12700000000E+01 0.  1.
         -4    1    3    3    0  501  0.28029419500E+01  0.87722318513E+02  0.17055807366E+02  0.89417979813E+02  0.12700000000E+01 0.  1.
          2    1    1    2  502    0  0.63685262368E+02 -0.27325262193E+02 -0.14290427075E+03  0.15882100993E+03  0.00000000000E+00 0. -1.
          1    1    1    2  503    0 -0.21104913615E+02 -0.44094152031E+02  0.62086811325E+03  0.62278963195E+03  0.00000000000E+00 0. -1.
<mgrwt>
<rscale>  0 0.58198536E+02</rscale>
<asrwt>0</asrwt>
<pdfrwt beam="1">  1        2 0.10683651E+00 0.48884677E+02</pdfrwt>
<pdfrwt beam="2">  1        1 0.36765697E-01 0.69286939E+02</pdfrwt>
<totfact> 0.70174539E+02</totfact>
</mgrwt>
</event>
<event>
 7    1  0.5277388E-004  0.1260157E+03  0.7546771E-02  0.1397496E+00
          1   -1    0    0  502    0 -0.00000000000E+00  0.00000000000E+00  0.22296033350E+03  0.22296033350E+03  0.00000000000E+00 0. -1.
          2   -1    0    0  503    0  0.00000000000E+00 -0.00000000000E+00 -0.93176718889E+03  0.93176718889E+03  0.00000000000E+00 0. -1.
         25    2    1    2    0    0  0.99926731570E+02  0.95323569890E+02  0.29876721052E+02  0.18865647683E+03  0.12500685233E+03 0.  0.
          4    1    3    3  501    0  0.71700350279E+02 -0.12914171177E+02  0.23694612996E+02  0.76620908584E+02  0.12700000000E+01 0. -1.
         -4    1    3    3    0  501  0.28226381291E+02  0.10823774107E+03  0.61821080565E+01  0.11203556825E+03  0.12700000000E+01 0. -1.
          2    1    1    2  502    0 -0.27666445466E+02  0.74204210035E+01  0.10717498668E+03  0.11093679562E+03  0.00000000000E+00 0. -1.
          1    1    1    2  503    0 -0.72260286104E+02 -0.10274399089E+03 -0.84585856312E+03  0.85513424994E+03  0.00000000000E+00 0. -1.
<mgrwt>
<rscale>  0 0.60080186E+02</rscale>
<asrwt>0</asrwt>
<pdfrwt beam="2">  1        2 0.14334880E+00 0.12601569E+03</pdfrwt>
<pdfrwt beam="1">  1        1 0.34301589E-01 0.28644281E+02</pdfrwt>
<totfact> 0.50551355E+02</totfact>
</mgrwt>
</event>
<event>
 7    1  0.5277388E-004  0.8266210E+02  0.7546771E-02  0.1488686E+00
          2   -1    0    0  503    0  0.00000000000E+00  0.00000000000E+00  0.61288898543E+03  0.61288898543E+03  0.00000000000E+00 0. -1.
          1   -1    0    0  502    0 -0.00000000000E+00 -0.00000000000E+00 -0.10286767498E+04  0.10286767498E+04  0.00000000000E+00 0. -1.
         25    2    1    2    0    0 -0.75748201158E+01  0.60145386819E+02 -0.65792427929E+03  0.67243109724E+03  0.12499751118E+03 0.  0.
          4    1    3    3  501    0  0.36541362883E+02  0.12007045003E+02 -0.62236613512E+02  0.73174102608E+02  0.12700000000E+01 0.  1.
         -4    1    3    3    0  501 -0.44116182999E+02  0.48138341816E+02 -0.59568766578E+03  0.59925699464E+03  0.12700000000E+01 0.  1.
          2    1    1    2  502    0 -0.33697469086E+01  0.21883540661E+02 -0.36033065911E+03  0.36101028855E+03  0.00000000000E+00 0. -1.
          1    1    1    2  503    0  0.10944567024E+02 -0.82028927480E+02  0.60246717408E+03  0.60812434940E+03  0.00000000000E+00 0. -1.
<mgrwt>
<rscale>  0 0.42781540E+02</rscale>
<asrwt>0</asrwt>
<pdfrwt beam="1">  1        2 0.94290614E-01 0.82662100E+02</pdfrwt>
<pdfrwt beam="2">  1        1 0.15825796E+00 0.22141467E+02</pdfrwt>
<totfact> 0.12540671E+02</totfact>
</mgrwt>
</event>
<event>
 7    1  0.5277388E-004  0.7383259E+02  0.7546771E-02  0.1374123E+00
          1   -1    0    0  502    0 -0.00000000000E+00  0.00000000000E+00  0.69400959314E+03  0.69400959314E+03  0.00000000000E+00 0. -1.
          2   -1    0    0  503    0  0.00000000000E+00 -0.00000000000E+00 -0.13459263305E+03  0.13459263305E+03  0.00000000000E+00 0. -1.
         25    2    1    2    0    0  0.60266564942E+02 -0.10684430187E+03  0.13803778467E+02  0.17567746926E+03  0.12499706082E+03 0.  0.
          4    1    3    3  501    0  0.37453362568E+01  0.22425897335E+01  0.47941433985E+02  0.48156523389E+02  0.12700000000E+01 0. -1.
         -4    1    3    3    0  501  0.56521228685E+02 -0.10908689160E+03 -0.34137655518E+02  0.12752094587E+03  0.12700000000E+01 0. -1.
          2    1    1    2  502    0 -0.25991055960E+02  0.53032988532E+02  0.57825223931E+03  0.58126042797E+03  0.00000000000E+00 0. -1.
          1    1    1    2  503    0 -0.34275508982E+02  0.53811313336E+02 -0.32639057685E+02  0.71664328961E+02  0.00000000000E+00 0. -1.
<mgrwt>
<rscale>  0 0.66034240E+02</rscale>
<asrwt>0</asrwt>
<pdfrwt beam="2">  1        2 0.20706559E-01 0.73832586E+02</pdfrwt>
<pdfrwt beam="1">  1        1 0.10677070E+00 0.59059570E+02</pdfrwt>
<totfact> 0.10550451E+03</totfact>
</mgrwt>
</event>
<event>
 7    1  0.5277388E-004  0.1411776E+03  0.7546771E-02  0.1290810E+00
          1   -1    0    0  502    0 -0.00000000000E+00  0.00000000000E+00  0.50371299718E+03  0.50371299718E+03  0.00000000000E+00 0. -1.
          2   -1    0    0  503    0  0.00000000000E+00 -0.00000000000E+00 -0.18772117158E+03  0.18772117158E+03  0.00000000000E+00 0. -1.
         25    2    1    2    0    0 -0.79782951601E+02  0.39399205710E+02  0.15390077435E+03  0.21732325814E+03  0.12500533352E+03 0.  0.
          4    1    3    3  501    0 -0.52912066888E+02  0.84622883280E+02  0.88622671205E+02  0.13347775076E+03  0.12700000000E+01 0. -1.
         -4    1    3    3    0  501 -0.26870884713E+02 -0.45223677570E+02  0.65278103141E+02  0.83845507381E+02  0.12700000000E+01 0. -1.
          2    1    1    2  502    0 -0.62814280440E+02  0.13002598394E+02  0.27655418016E+03  0.28389595974E+03  0.00000000000E+00 0. -1.
          1    1    1    2  503    0  0.14259723204E+03 -0.52401804104E+02 -0.11446312890E+03  0.19021495088E+03  0.00000000000E+00 0. -1.
<mgrwt>
<rscale>  0 0.95162849E+02</rscale>
<asrwt>0</asrwt>
<pdfrwt beam="2">  1        2 0.28880180E-01 0.14117757E+03</pdfrwt>
<pdfrwt beam="1">  1        1 0.77494307E-01 0.64145938E+02</pdfrwt>
<totfact> 0.11352670E+03</totfact>
</mgrwt>
</event>
<event>
 7    1  0.5277388E-004  0.8545301E+02  0.7546771E-02  0.1335300E+00
          1   -1    0    0  502    0 -0.00000000000E+00  0.00000000000E+00  0.25343916270E+02  0.25343916270E+02  0.00000000000E+00 0. -1.
          2   -1    0    0  503    0  0.00000000000E+00 -0.00000000000E+00 -0.13130215622E+04  0.13130215622E+04  0.00000000000E+00 0. -1.
         25    2    1    2    0    0 -0.16882630080E+02 -0.45199826412E+02 -0.71268121404E+03  0.72516694695E+03  0.12499816236E+03 0.  0.
          4    1    3    3  501    0 -0.10824242288E+02  0.29362739000E+02 -0.47400285471E+03  0.47503647632E+03  0.12700000000E+01 0.  1.
         -4    1    3    3    0  501 -0.60583877923E+01 -0.74562565412E+02 -0.23867835933E+03  0.25013047063E+03  0.12700000000E+01 0.  1.
          2    1    1    2  502    0  0.87408665390E+02  0.37903546362E+02 -0.12253409946E+03  0.15521455841E+03  0.00000000000E+00 0. -1.
          1    1    1    2  503    0 -0.70526035310E+02  0.72962800503E+01 -0.45246233248E+03  0.45798397316E+03  0.00000000000E+00 0. -1.
<mgrwt>
<rscale>  0 0.77838473E+02</rscale>
<asrwt>0</asrwt>
<pdfrwt beam="2">  1        2 0.20200330E+00 0.70902450E+02</pdfrwt>
<pdfrwt beam="1">  1        1 0.38990643E-02 0.85453011E+02</pdfrwt>
<totfact> 0.54241264E+03</totfact>
</mgrwt>
</event>
<event>
 7    1  0.5277388E-004  0.3174342E+02  0.7546771E-02  0.1634412E+00
          1   -1    0    0  502    0 -0.00000000000E+00  0.00000000000E+00  0.83782993759E+03  0.83782993759E+03  0.00000000000E+00 0. -1.
          2   -1    0    0  503    0  0.00000000000E+00 -0.00000000000E+00 -0.21836609040E+02  0.21836609040E+02  0.00000000000E+00 0. -1.
         25    2    1    2    0    0  0.37204198037E+02 -0.33216061160E+02  0.23611370593E+03  0.27177679485E+03  0.12500194006E+03 0.  0.
          4    1    3    3  501    0 -0.26795068001E+02  0.20335746626E+02  0.17851824788E+02  0.38102740168E+02  0.12700000000E+01 0. -1.
         -4    1    3    3    0  501  0.63999266039E+02 -0.53551807786E+02  0.21826188114E+03  0.23367405468E+03  0.12700000000E+01 0. -1.
          2    1    1    2  502    0 -0.20154239944E+02  0.10849303659E+02  0.53102635447E+03  0.53151941631E+03  0.00000000000E+00 0. -1.
          1    1    1    2  503    0 -0.17049958093E+02  0.22366757501E+02  0.48853268154E+02  0.56370335473E+02  0.00000000000E+00 0. -1.
<mgrwt>
<rscale>  0 0.26954987E+02</rscale>
<asrwt>0</asrwt>
<pdfrwt beam="2">  1        2 0.33594790E-02 0.31743421E+02</pdfrwt>
<pdfrwt beam="1">  1        1 0.12889689E+00 0.22888879E+02</pdfrwt>
<totfact> 0.70227868E+03</totfact>
</mgrwt>
</event>
<event>
 7    1  0.5277388E-004  0.1814953E+03  0.7546771E-02  0.1266021E+00
          1   -1    0    0  502    0 -0.00000000000E+00  0.00000000000E+00  0.16812969165E+04  0.16812969165E+04  0.00000000000E+00 0. -1.
          2   -1    0    0  503    0  0.00000000000E+00 -0.00000000000E+00 -0.11631835161E+03  0.11631835161E+03  0.00000000000E+00 0. -1.
         25    2    1    2    0    0  0.12651639731E+03 -0.93347413277E+02  0.62134407162E+02  0.21025048879E+03  0.12499778050E+03 0.  0.
          4    1    3    3  501    0  0.15036624024E+03 -0.68949752282E+02  0.42233256241E+02  0.17073176440E+03  0.12700000000E+01 0. -1.
         -4    1    3    3    0  501 -0.23849842923E+02 -0.24397660995E+02  0.19901150921E+02  0.39518724391E+02  0.12700000000E+01 0. -1.
          2    1    1    2  502    0 -0.17588666307E+03  0.53876818012E+02  0.15123051125E+04  0.15234518644E+04  0.00000000000E+00 0. -1.
          1    1    1    2  503    0  0.49370265753E+02  0.39470595265E+02 -0.94609547698E+01  0.63912914941E+02  0.00000000000E+00 0. -1.
<mgrwt>
<rscale>  0 0.10710789E+03</rscale>
<asrwt>0</asrwt>
<pdfrwt beam="2">  1        2 0.17895132E-01 0.63208789E+02</pdfrwt>
<pdfrwt beam="1">  1        1 0.25866105E+00 0.18149533E+03</pdfrwt>
<totfact> 0.23023277E+02</totfact>
</mgrwt>
</event>
<event>
 7    1  0.5277388E-004  0.8220411E+02  0.7546771E-02  0.1384131E+00
          1   -1    0    0  502    0 -0.00000000000E+00  0.00000000000E+00  0.60849843113E+03  0.60849843113E+03  0.00000000000E+00 0. -1.
          2   -1    0    0  503    0  0.00000000000E+00 -0.00000000000E+00 -0.41226168424E+02  0.41226168424E+02  0.00000000000E+00 0. -1.
         25    2    1    2    0    0 -0.26447409321E+02  0.37218105099E+02  0.37699472293E+03  0.39979377642E+03  0.12500155894E+03 0.  0.
          4    1    3    3  501    0  0.14614446791E+02 -0.31549461594E+02  0.38252044589E+02  0.51708629812E+02  0.12700000000E+01 0.  1.
         -4    1    3    3    0  501 -0.41061856112E+02  0.68767566692E+02  0.33874267834E+03  0.34808514660E+03  0.12700000000E+01 0.  1.
          2    1    1    2  502    0 -0.46135008091E+02  0.16156459299E+02  0.13654193414E+03  0.14502816943E+03  0.00000000000E+00 0. -1.
          1    1    1    2  503    0  0.72582417413E+02 -0.53374564398E+02  0.53735605633E+02  0.10490265371E+03  0.00000000000E+00 0. -1.
<mgrwt>
<rscale>  0 0.63390207E+02</rscale>
<asrwt>0</asrwt>
<pdfrwt beam="2">  1        2 0.63424879E-02 0.82204111E+02</pdfrwt>
<pdfrwt beam="1">  1        1 0.93615136E-01 0.48882207E+02</pdfrwt>
<totfact> 0.51916290E+03</totfact>
</mgrwt>
</event>
<event>
 7    1  0.5277388E-004  0.2549653E+03  0.7546771E-02  0.1286652E+00
          1   -1    0    0  502    0 -0.00000000000E+00  0.00000000000E+00  0.65476317248E+03  0.65476317248E+03  0.00000000000E+00 0. -1.
          2   -1    0    0  503    0  0.00000000000E+00 -0.00000000000E+00 -0.23285707182E+04  0.23285707182E+04  0.00000000000E+00 0. -1.
         25    2    1    2    0    0 -0.67571263582E+02  0.22558342450E+03 -0.83826571086E+03  0.87964092242E+03  0.12499997326E+03 0.  0.
          4    1    3    3  501    0 -0.73534631546E+02  0.23794964994E+03 -0.74914717301E+03  0.78946214455E+03  0.12700000000E+01 0. -1.
         -4    1    3    3    0  501  0.59633679648E+01 -0.12366225447E+02 -0.89118537850E+02  0.90178777869E+02  0.12700000000E+01 0. -1.
          2    1    1    2  502    0 -0.28898500359E+02  0.22995849980E+02  0.62142817150E+03  0.62252462182E+03  0.00000000000E+00 0. -1.
          1    1    1    2  503    0  0.96469763941E+02 -0.24857927448E+03 -0.14569700063E+04  0.14811683464E+04  0.00000000000E+00 0. -1.
<mgrwt>
<rscale>  0 0.97037320E+02</rscale>
<asrwt>0</asrwt>
<pdfrwt beam="2">  1        2 0.35824164E+00 0.25496535E+03</pdfrwt>
<pdfrwt beam="1">  1        1 0.10073280E+00 0.36931456E+02</pdfrwt>
<totfact> 0.23071983E+01</totfact>
</mgrwt>
</event>
<event>
 7    1  0.5277388E-004  0.1041142E+03  0.7546771E-02  0.1389691E+00
         -2   -1    0    0    0  501  0.00000000000E+00  0.00000000000E+00  0.45253415839E+02  0.45253415839E+02  0.00000000000E+00 0.  1.
         -1   -1    0    0    0  502 -0.00000000000E+00 -0.00000000000E+00 -0.10061068789E+04  0.10061068789E+04  0.00000000000E+00 0.  1.
         25    2    1    2    0    0 -0.97786944001E+02 -0.96875093376E+02 -0.80534413880E+03  0.82653012748E+03  0.12500319837E+03 0.  0.
          4    1    3    3  503    0 -0.89413146541E+02 -0.17619360626E+02 -0.26265404911E+03  0.27801783226E+03  0.12700000000E+01 0.  1.
         -4    1    3    3    0  503 -0.83737974595E+01 -0.79255732750E+02 -0.54269008969E+03  0.54851229522E+03  0.12700000000E+01 0.  1.
         -2    1    1    2    0  502  0.24912273843E+02  0.27223172403E+02 -0.10655694336E+03  0.11276570703E+03  0.00000000000E+00 0.  1.
         -1    1    1    2    0  501  0.72874670158E+02  0.69651920973E+02 -0.48952380869E+02  0.11206446019E+03  0.00000000000E+00 0.  1.
<mgrwt>
<rscale>  0 0.61983640E+02</rscale>
<asrwt>0</asrwt>
<pdfrwt beam="1">  1       -2 0.69620644E-02 0.10411417E+03</pdfrwt>
<pdfrwt beam="2">  1       -1 0.15478566E+00 0.36901524E+02</pdfrwt>
<totfact> 0.32344122E+02</totfact>
</mgrwt>
</event>
<event>
 7    1  0.5277388E-004  0.7977074E+02  0.7546771E-02  0.1372926E+00
          1   -1    0    0  503    0  0.00000000000E+00  0.00000000000E+00  0.23949271747E+03  0.23949271747E+03  0.00000000000E+00 0. -1.
         -1   -1    0    0    0  501 -0.00000000000E+00 -0.00000000000E+00 -0.30222807077E+03  0.30222807077E+03  0.00000000000E+00 0.  1.
         25    2    1    2    0    0  0.23279465458E+02 -0.12650873826E+03  0.54758858190E+02  0.18753980658E+03  0.12500500843E+03 0.  0.
          4    1    3    3  502    0 -0.17006964838E+02 -0.13395628220E+03  0.56807496056E+02  0.14649992117E+03  0.12700000000E+01 0. -1.
         -4    1    3    3    0  502  0.40286430296E+02  0.74475439493E+01 -0.20486378655E+01  0.41039885404E+02  0.12700000000E+01 0. -1.
          2    1    1    2  503    0 -0.24932398251E+02  0.49253515225E+02  0.10501226084E+03  0.11863856107E+03  0.00000000000E+00 0. -1.
         -2    1    1    2    0  501  0.16529327935E+01  0.77255223031E+02 -0.22250647233E+03  0.23554242060E+03  0.00000000000E+00 0.  1.
<mgrwt>
<rscale>  0 0.66360387E+02</rscale>
<asrwt>0</asrwt>
<pdfrwt beam="1">  1        1 0.36845034E-01 0.55204468E+02</pdfrwt>
<pdfrwt beam="2">  1       -1 0.46496626E-01 0.79770736E+02</pdfrwt>
<totfact> 0.54614500E+02</totfact>
</mgrwt>
</event>
<event>
 7    1  0.5277388E-004  0.8316754E+02  0.7546771E-02  0.1426126E+00
         -2   -1    0    0    0  501 -0.00000000000E+00  0.00000000000E+00  0.20025371763E+03  0.20025371763E+03  0.00000000000E+00 0.  1.
          2   -1    0    0  503    0  0.00000000000E+00 -0.00000000000E+00 -0.14818437329E+03  0.14818437329E+03  0.00000000000E+00 0. -1.
         25    2    1    2    0    0  0.10385763468E+03 -0.39346070150E+02  0.30308176065E+02  0.16993524122E+03  0.12499951662E+03 0.  0.
          4    1    3    3  502    0  0.12277946167E+03 -0.40695591947E+02 -0.54151879823E+01  0.12946761979E+03  0.12700000000E+01 0.  1.
         -4    1    3    3    0  502 -0.18921826993E+02  0.13495217972E+01  0.35723364047E+02  0.40467621436E+02  0.12700000000E+01 0.  1.
          1    1    1    2  503    0 -0.69435464549E+02  0.34715937257E+02 -0.54401526315E+02  0.94794546796E+02  0.00000000000E+00 0. -1.
         -1    1    1    2    0  501 -0.34422170132E+02  0.46301328922E+01  0.76162694589E+02  0.83708302899E+02  0.00000000000E+00 0.  1.
<mgrwt>
<rscale>  0 0.53745600E+02</rscale>
<asrwt>0</asrwt>
<pdfrwt beam="2">  1        2 0.22797596E-01 0.83167542E+02</pdfrwt>
<pdfrwt beam="1">  1       -2 0.30808264E-01 0.34732174E+02</pdfrwt>
<totfact> 0.21457430E+03</totfact>
</mgrwt>
</event>
<event>
 7    1  0.5277388E-004  0.1184758E+03  0.7546771E-02  0.1245784E+00
          2   -1    0    0  503    0  0.00000000000E+00  0.00000000000E+00  0.19987866108E+04  0.19987866108E+04  0.00000000000E+00 0. -1.
         -2   -1    0    0    0  501 -0.00000000000E+00 -0.00000000000E+00 -0.98671954602E+02  0.98671954602E+02  0.00000000000E+00 0.  1.
         25    2    1    2    0    0 -0.98514290266E+02  0.13161327262E+03  0.19710425600E+03  0.28548639612E+03  0.12500110287E+03 0.  0.
          4    1    3    3  502    0 -0.47867106975E+02  0.12960527520E+03  0.84411138083E+02  0.16191244678E+03  0.12700000000E+01 0.  1.
         -4    1    3    3    0  502 -0.50647183291E+02  0.20079974230E+01  0.11269311792E+03  0.12357394934E+03  0.12700000000E+01 0.  1.
          1    1    1    2  503    0 -0.18880636590E+02 -0.11703698289E+03  0.16886512497E+04  0.16928074837E+04  0.00000000000E+00 0. -1.
         -1    1    1    2    0  501  0.11739492686E+03 -0.14576289735E+02  0.14359150449E+02  0.11916468552E+03  0.00000000000E+00 0.  1.
<mgrwt>
<rscale>  0 0.11838604E+03</rscale>
<asrwt>0</asrwt>
<pdfrwt beam="1">  1        2 0.30750560E+00 0.11847575E+03</pdfrwt>
<pdfrwt beam="2">  1       -2 0.15180302E-01 0.11829640E+03</pdfrwt>
<totfact> 0.26379803E+02</totfact>
</mgrwt>
</event>
<event>
 7    1  0.5277388E-004  0.1031813E+03  0.7546771E-02  0.1302257E+00
          1   -1    0    0  502    0 -0.00000000000E+00  0.00000000000E+00  0.36011500640E+03  0.36011500640E+03  0.00000000000E+00 0. -1.
          2   -1    0    0  503    0  0.00000000000E+00 -0.00000000000E+00 -0.17086486284E+04  0.17086486284E+04  0.00000000000E+00 0. -1.
         25    2    1    2    0    0 -0.44823541317E+02 -0.16552157118E+03  0.89138699830E+02  0.23016442816E+03  0.12499366305E+03 0.  0.
          4    1    3    3  501    0 -0.59679817519E+02 -0.49265725990E+02 -0.81688784663E+01  0.77827603405E+02  0.12700000000E+01 0.  1.
         -4    1    3    3    0  501  0.14856276202E+02 -0.11625584519E+03  0.97307578297E+02  0.15233682476E+03  0.12700000000E+01 0.  1.
          2    1    1    2  502    0  0.20159823467E+02  0.90541331209E+02  0.18872451280E+03  0.21028811871E+03  0.00000000000E+00 0. -1.
          1    1    1    2  503    0  0.24663717850E+02  0.74980239973E+02 -0.16263968346E+04  0.16283110879E+04  0.00000000000E+00 0. -1.
<mgrwt>
<rscale>  0 0.90246074E+02</rscale>
<asrwt>0</asrwt>
<pdfrwt beam="2">  1        2 0.26286902E+00 0.78932473E+02</pdfrwt>
<pdfrwt beam="1">  1        1 0.55402308E-01 0.10318128E+03</pdfrwt>
<totfact> 0.11331408E+02</totfact>
</mgrwt>
</event>
<event>
 7    1  0.5277388E-004  0.3772269E+02  0.7546771E-02  0.1575565E+00
          2   -1    0    0  503    0  0.00000000000E+00  0.00000000000E+00  0.20027747735E+04  0.20027747735E+04  0.00000000000E+00 0. -1.
          1   -1    0    0  502    0 -0.00000000000E+00 -0.00000000000E+00 -0.19156712884E+03  0.19156712884E+03  0.00000000000E+00 0. -1.
         25    2    1    2    0    0 -0.40533747797E+02 -0.33697283676E+02  0.11769040299E+03  0.17958941967E+03  0.12499134796E+03 0.  0.
          4    1    3    3  501    0 -0.48408732007E+02  0.31257954784E+01 -0.72743060301E+01  0.49068364148E+02  0.12700000000E+01 0.  1.
         -4    1    3    3    0  501  0.78749842106E+01 -0.36823079154E+02  0.12496470902E+03  0.13052105552E+03  0.12700000000E+01 0.  1.
          2    1    1    2  502    0  0.34311337134E+01  0.27168723228E+02 -0.15925751488E+03  0.16159476553E+03  0.00000000000E+00 0. -1.
          1    1    1    2  503    0  0.37102614083E+02  0.65285604474E+01  0.18527747566E+04  0.18531577172E+04  0.00000000000E+00 0. -1.
<mgrwt>
<rscale>  0 0.32140596E+02</rscale>
<asrwt>0</asrwt>
<pdfrwt beam="1">  1        2 0.30811918E+00 0.37722689E+02</pdfrwt>
<pdfrwt beam="2">  1        1 0.29471867E-01 0.27384525E+02</pdfrwt>
<totfact> 0.18513635E+02</totfact>
</mgrwt>
</event>
<event>
 7    1  0.5277388E-004  0.7147307E+02  0.7546771E-02  0.1420439E+00
         -2   -1    0    0    0  501 -0.00000000000E+00  0.00000000000E+00  0.10077203859E+03  0.10077203859E+03  0.00000000000E+00 0.  1.
          2   -1    0    0  503    0  0.00000000000E+00 -0.00000000000E+00 -0.73552650889E+03  0.73552650889E+03  0.00000000000E+00 0. -1.
         25    2    1    2    0    0 -0.14424231193E+02  0.40724402477E+02 -0.38401045648E+03  0.40614764566E+03  0.12500137592E+03 0.  0.
          4    1    3    3  502    0  0.49323100786E+01  0.59306072838E+02 -0.37198386549E+03  0.37671626862E+03  0.12700000000E+01 0. -1.
         -4    1    3    3    0  502 -0.19356541272E+02 -0.18581670361E+02 -0.12026590992E+02  0.29431377037E+02  0.12700000000E+01 0. -1.
          1    1    1    2  503    0  0.31224395762E+02 -0.79450507009E+02 -0.32972515774E+03  0.34059657309E+03  0.00000000000E+00 0. -1.
         -1    1    1    2    0  501 -0.16800164568E+02  0.38726104532E+02  0.78981143912E+02  0.89554328736E+02  0.00000000000E+00 0.  1.
<mgrwt>
<rscale>  0 0.54928219E+02</rscale>
<asrwt>0</asrwt>
<pdfrwt beam="2">  1        2 0.11315792E+00 0.71473073E+02</pdfrwt>
<pdfrwt beam="1">  1       -2 0.15503391E-01 0.42213229E+02</pdfrwt>
<totfact> 0.12210836E+03</totfact>
</mgrwt>
</event>
<event>
 7    1  0.5277388E-004  0.4524068E+02  0.7546771E-02  0.1508860E+00
         -1   -1    0    0    0  501 -0.00000000000E+00  0.00000000000E+00  0.45850456386E+03  0.45850456386E+03  0.00000000000E+00 0.  1.
          1   -1    0    0  503    0  0.00000000000E+00 -0.00000000000E+00 -0.28864540842E+02  0.28864540842E+02  0.00000000000E+00 0. -1.
         25    2    1    2    0    0 -0.11909771506E+02  0.87040865740E+01  0.16718547637E+03  0.20927252051E+03  0.12500560208E+03 0.  0.
          4    1    3    3  502    0 -0.47091661642E+02  0.85184559113E+01  0.10935967909E+02  0.49105977044E+02  0.12700000000E+01 0. -1.
         -4    1    3    3    0  502  0.35181890136E+02  0.18563066276E+00  0.15624950846E+03  0.16016654346E+03  0.12700000000E+01 0. -1.
          2    1    1    2  503    0 -0.32886142797E+02  0.12582580151E+02  0.59213738857E+02  0.68891846983E+02  0.00000000000E+00 0. -1.
         -2    1    1    2    0  501  0.44795914303E+02 -0.21286666725E+02  0.20324080780E+03  0.20920473722E+03  0.00000000000E+00 0.  1.
<mgrwt>
<rscale>  0 0.39912067E+02</rscale>
<asrwt>0</asrwt>
<pdfrwt beam="2">  1        1 0.44406989E-02 0.35211074E+02</pdfrwt>
<pdfrwt beam="1">  1       -1 0.70539158E-01 0.45240685E+02</pdfrwt>
<totfact> 0.35333899E+03</totfact>
</mgrwt>
</event>
<event>
 7    1  0.5277388E-004  0.7294973E+02  0.7546771E-02  0.1421121E+00
          1   -1    0    0  502    0 -0.00000000000E+00  0.00000000000E+00  0.72533518562E+02  0.72533518562E+02  0.00000000000E+00 0. -1.
          2   -1    0    0  503    0  0.00000000000E+00 -0.00000000000E+00 -0.12734256557E+04  0.12734256557E+04  0.00000000000E+00 0. -1.
         25    2    1    2    0    0  0.50289802598E+02 -0.45997733185E+01 -0.14253944852E+03  0.19619577452E+03  0.12500026157E+03 0.  0.
          4    1    3    3  501    0  0.69729984445E+02  0.42340556146E+02 -0.69282974648E+02  0.10703614764E+03  0.12700000000E+01 0. -1.
         -4    1    3    3    0  501 -0.19440181847E+02 -0.46940329464E+02 -0.73256473874E+02  0.89159626878E+02  0.12700000000E+01 0. -1.
          2    1    1    2  502    0  0.16236183745E+02  0.37803435471E+02  0.34920785295E+02  0.53964568391E+02  0.00000000000E+00 0. -1.
          1    1    1    2  503    0 -0.66525986343E+02 -0.33203662152E+02 -0.10932734739E+04  0.10957988314E+04  0.00000000000E+00 0. -1.
<mgrwt>
<rscale>  0 0.54784502E+02</rscale>
<asrwt>0</asrwt>
<pdfrwt beam="2">  1        2 0.19591164E+00 0.72949735E+02</pdfrwt>
<pdfrwt beam="1">  1        1 0.11159003E-01 0.41142598E+02</pdfrwt>
<totfact> 0.13323249E+03</totfact>
</mgrwt>
</event>
<event>
 7    1  0.5277388E-004  0.1084358E+03  0.7546771E-02  0.1371242E+00
         -1   -1    0    0    0  502 -0.00000000000E+00  0.00000000000E+00  0.12289635707E+03  0.12289635707E+03  0.00000000000E+00 0.  1.
         -2   -1    0    0    0  501  0.00000000000E+00 -0.00000000000E+00 -0.50848982119E+03  0.50848982119E+03  0.00000000000E+00 0.  1.
         25    2    1    2    0    0  0.46832551131E+02  0.88133030600E+02 -0.13577885098E+03  0.20981360800E+03  0.12500053919E+03 0.  0.
          4    1    3    3  503    0 -0.20502033880E+02  0.89955798912E+02 -0.71954556188E+02  0.11701047050E+03  0.12700000000E+01 0.  1.
         -4    1    3    3    0  503  0.67334585011E+02 -0.18227683117E+01 -0.63824294794E+02  0.92803137495E+02  0.12700000000E+01 0.  1.
         -2    1    1    2    0  502 -0.84871736404E+02 -0.72360274778E+02  0.47640890410E+02  0.12128015273E+03  0.00000000000E+00 0.  1.
         -1    1    1    2    0  501  0.38039185273E+02 -0.15772755822E+02 -0.29745550355E+03  0.30029241754E+03  0.00000000000E+00 0.  1.
<mgrwt>
<rscale>  0 0.66823218E+02</rscale>
<asrwt>0</asrwt>
<pdfrwt beam="2">  1       -2 0.78229203E-01 0.41179600E+02</pdfrwt>
<pdfrwt beam="1">  1       -1 0.18907132E-01 0.10843579E+03</pdfrwt>
<totfact> 0.24614013E+02</totfact>
</mgrwt>
</event>
<event>
 7    1  0.5277388E-004  0.7233304E+02  0.7546771E-02  0.1356737E+00
          1   -1    0    0  502    0 -0.00000000000E+00  0.00000000000E+00  0.40003050767E+03  0.40003050767E+03  0.00000000000E+00 0. -1.
          2   -1    0    0  503    0  0.00000000000E+00 -0.00000000000E+00 -0.31102865044E+03  0.31102865044E+03  0.00000000000E+00 0. -1.
         25    2    1    2    0    0  0.37759245926E+01  0.20636234381E+02 -0.52444051398E+02  0.13718081121E+03  0.12501233804E+03 0.  0.
          4    1    3    3  501    0  0.20110381761E+02 -0.50416932957E+01  0.37143360899E+02  0.42556882931E+02  0.12700000000E+01 0. -1.
         -4    1    3    3    0  501 -0.16334457169E+02  0.25677927676E+02 -0.89587412297E+02  0.94623928278E+02  0.12700000000E+01 0. -1.
          2    1    1    2  502    0 -0.65551196914E+02  0.30579548958E+02  0.34634956007E+03  0.35382211066E+03  0.00000000000E+00 0. -1.
          1    1    1    2  503    0  0.61775272322E+02 -0.51215783338E+02 -0.20490365144E+03  0.22005623624E+03  0.00000000000E+00 0. -1.
<mgrwt>
<rscale>  0 0.70996435E+02</rscale>
<asrwt>0</asrwt>
<pdfrwt beam="2">  1        2 0.47850561E-01 0.69684531E+02</pdfrwt>
<pdfrwt beam="1">  1        1 0.61543155E-01 0.72333037E+02</pdfrwt>
<totfact> 0.87661997E+02</totfact>
</mgrwt>
</event>
<event>
 7    1  0.5277388E-004  0.7498089E+02  0.7546771E-02  0.1471024E+00
         -2   -1    0    0    0  501 -0.00000000000E+00  0.00000000000E+00  0.39623850825E+02  0.39623850825E+02  0.00000000000E+00 0.  1.
          2   -1    0    0  503    0  0.00000000000E+00 -0.00000000000E+00 -0.57444207755E+03  0.57444207755E+03  0.00000000000E+00 0. -1.
         25    2    1    2    0    0 -0.38202641479E+02 -0.35112374740E+02 -0.10487788907E+03  0.17122682738E+03  0.12500773625E+03 0.  0.
          4    1    3    3  502    0 -0.69774876376E+00  0.13643097454E+02 -0.10871972779E+03  0.10958199247E+03  0.12700000000E+01 0. -1.
         -4    1    3    3    0  502 -0.37504892715E+02 -0.48755472194E+02  0.38418387235E+01  0.61644834911E+02  0.12700000000E+01 0. -1.
          1    1    1    2  503    0  0.63801334732E+02  0.45574102325E+02 -0.31228519570E+03  0.32197772061E+03  0.00000000000E+00 0. -1.
         -1    1    1    2    0  501 -0.25598693253E+02 -0.10461727585E+02 -0.11765514195E+03  0.12086138038E+03  0.00000000000E+00 0.  1.
<mgrwt>
<rscale>  0 0.45535893E+02</rscale>
<asrwt>0</asrwt>
<pdfrwt beam="2">  1        2 0.88375704E-01 0.74980887E+02</pdfrwt>
<pdfrwt beam="1">  1       -2 0.60959771E-02 0.27653948E+02</pdfrwt>
<totfact> 0.63481903E+03</totfact>
</mgrwt>
</event>
<event>
 7    1  0.5277388E-004  0.6147348E+02  0.7546771E-02  0.1424621E+00
          1   -1    0    0  502    0 -0.00000000000E+00  0.00000000000E+00  0.88952147443E+02  0.88952147443E+02  0.00000000000E+00 0. -1.
          2   -1    0    0  503    0  0.00000000000E+00 -0.00000000000E+00 -0.26387057991E+04  0.26387057991E+04  0.00000000000E+00 0. -1.
         25    2    1    2    0    0  0.19423726377E+02  0.34429042286E+02 -0.76714511030E+03  0.77828171916E+03  0.12509266175E+03 0.  0.
          4    1    3    3  501    0  0.13275583723E+02  0.75582584525E+02 -0.63782751459E+03  0.64242861041E+03  0.12700000000E+01 0.  1.
         -4    1    3    3    0  501  0.61481426542E+01 -0.41153542239E+02 -0.12931759572E+03  0.13585310876E+03  0.12700000000E+01 0.  1.
          2    1    1    2  502    0 -0.60967685419E+02 -0.11333860971E+02  0.71507435533E+02  0.94651087719E+02  0.00000000000E+00 0. -1.
          1    1    1    2  503    0  0.41543959043E+02 -0.23095181315E+02 -0.18541159769E+04  0.18547251397E+04  0.00000000000E+00 0. -1.
<mgrwt>
<rscale>  0 0.54055116E+02</rscale>
<asrwt>0</asrwt>
<pdfrwt beam="2">  1        2 0.40595466E+00 0.47531967E+02</pdfrwt>
<pdfrwt beam="1">  1        1 0.13684948E-01 0.61473483E+02</pdfrwt>
<totfact> 0.22933204E+02</totfact>
</mgrwt>
</event>
<event>
 7    1  0.5277388E-004  0.5500890E+02  0.7546771E-02  0.1510668E+00
          2   -1    0    0  503    0  0.00000000000E+00  0.00000000000E+00  0.87584563505E+03  0.87584563505E+03  0.00000000000E+00 0. -1.
          1   -1    0    0  502    0 -0.00000000000E+00 -0.00000000000E+00 -0.11017976928E+04  0.11017976928E+04  0.00000000000E+00 0. -1.
         25    2    1    2    0    0 -0.16146173120E+02 -0.59516841333E+02  0.12618552333E+02  0.13995504185E+03  0.12500093027E+03 0.  0.
          4    1    3    3  501    0 -0.68449417514E+02 -0.52881696681E+02  0.47875704150E+01  0.86639080861E+02  0.12700000000E+01 0. -1.
         -4    1    3    3    0  501  0.52303244395E+02 -0.66351446518E+01  0.78309819181E+01  0.53315960993E+02  0.12700000000E+01 0. -1.
          2    1    1    2  502    0 -0.21240527093E+02  0.19160314883E+02 -0.10369857026E+04  0.10373801738E+04  0.00000000000E+00 0. -1.
          1    1    1    2  503    0  0.37386700213E+02  0.40356526450E+02  0.79841509248E+03  0.80030811221E+03  0.00000000000E+00 0. -1.
<mgrwt>
<rscale>  0 0.39668122E+02</rscale>
<asrwt>0</asrwt>
<pdfrwt beam="1">  1        2 0.13474548E+00 0.55008897E+02</pdfrwt>
<pdfrwt beam="2">  1        1 0.16950734E+00 0.28605553E+02</pdfrwt>
<totfact> 0.73405894E+01</totfact>
</mgrwt>
</event>
<event>
 7    1  0.5277388E-004  0.7724063E+02  0.7546771E-02  0.1371044E+00
         -1   -1    0    0    0  502 -0.00000000000E+00  0.00000000000E+00  0.56436234156E+03  0.56436234156E+03  0.00000000000E+00 0.  1.
         -2   -1    0    0    0  501  0.00000000000E+00 -0.00000000000E+00 -0.10759226653E+04  0.10759226653E+04  0.00000000000E+00 0.  1.
         25    2    1    2    0    0  0.22903494859E+02  0.10927921040E+03 -0.52850980418E+03  0.55444926388E+03  0.12499942879E+03 0.  0.
          4    1    3    3  503    0  0.18791463870E+01 -0.67060655667E+01 -0.27262253502E+03  0.27271443307E+03  0.12700000000E+01 0.  1.
         -4    1    3    3    0  503  0.21024348472E+02  0.11598527596E+03 -0.25588726917E+03  0.28173483081E+03  0.12700000000E+01 0.  1.
         -2    1    1    2    0  502 -0.50455154496E+02 -0.58348802007E+02  0.54711058738E+03  0.55252176440E+03  0.00000000000E+00 0.  1.
         -1    1    1    2    0  501  0.27551659637E+02 -0.50930408390E+02 -0.53016110692E+03  0.53331397857E+03  0.00000000000E+00 0.  1.
<mgrwt>
<rscale>  0 0.66877697E+02</rscale>
<asrwt>0</asrwt>
<pdfrwt beam="2">  1       -2 0.16552656E+00 0.57905099E+02</pdfrwt>
<pdfrwt beam="1">  1       -1 0.86824976E-01 0.77240631E+02</pdfrwt>
<totfact> 0.28634156E+00</totfact>
</mgrwt>
</event>
<event>
 7    1  0.5277388E-004  0.1345075E+03  0.7546771E-02  0.1336978E+00
          1   -1    0    0  502    0 -0.00000000000E+00  0.00000000000E+00  0.53607928696E+03  0.53607928696E+03  0.00000000000E+00 0. -1.
          2   -1    0    0  503    0  0.00000000000E+00 -0.00000000000E+00 -0.44573766252E+03  0.44573766252E+03  0.00000000000E+00 0. -1.
         25    2    1    2    0    0 -0.12186382421E+03 -0.10777306607E+03 -0.54968798072E+02  0.21239469405E+03  0.12499644747E+03 0.  0.
          4    1    3    3  501    0 -0.13195333978E+03 -0.89225757468E+02 -0.64029616986E+01  0.15942249055E+03  0.12700000000E+01 0.  1.
         -4    1    3    3    0  501  0.10089515577E+02 -0.18547308602E+02 -0.48565836374E+02  0.52972203500E+02  0.12700000000E+01 0.  1.
          2    1    1    2  502    0  0.44267460072E+02  0.33065424911E+01  0.44264090060E+03  0.44486122345E+03  0.00000000000E+00 0. -1.
          1    1    1    2  503    0  0.77596364134E+02  0.10446652358E+03 -0.29733047809E+03  0.32456103197E+03  0.00000000000E+00 0. -1.
<mgrwt>
<rscale>  0 0.77271552E+02</rscale>
<asrwt>0</asrwt>
<pdfrwt beam="2">  1        2 0.68575026E-01 0.13450750E+03</pdfrwt>
<pdfrwt beam="1">  1        1 0.82473736E-01 0.44390779E+02</pdfrwt>
<totfact> 0.42014244E+02</totfact>
</mgrwt>
</event>
<event>
 7    1  0.5277388E-004  0.6405260E+02  0.7546771E-02  0.1506430E+00
          1   -1    0    0  502    0 -0.00000000000E+00  0.00000000000E+00  0.25579267871E+03  0.25579267871E+03  0.00000000000E+00 0. -1.
          2   -1    0    0  503    0  0.00000000000E+00 -0.00000000000E+00 -0.17792145394E+04  0.17792145394E+04  0.00000000000E+00 0. -1.
         25    2    1    2    0    0  0.47270353274E+02  0.31983591765E+02  0.10059608273E+02  0.13778135207E+03  0.12500027527E+03 0.  0.
          4    1    3    3  501    0  0.72069838591E+02  0.44929530084E+02 -0.28972379639E+02  0.89742609669E+02  0.12700000000E+01 0.  1.
         -4    1    3    3    0  501 -0.24799485317E+02 -0.12945938319E+02  0.39031987913E+02  0.48038742400E+02  0.12700000000E+01 0.  1.
          2    1    1    2  502    0  0.15710348966E+02 -0.19810883110E+02  0.18039053092E+03  0.18215386298E+03  0.00000000000E+00 0. -1.
          1    1    1    2  503    0 -0.62980702240E+02 -0.12172708655E+02 -0.17138719999E+04  0.17150720031E+04  0.00000000000E+00 0. -1.
<mgrwt>
<rscale>  0 0.40243172E+02</rscale>
<asrwt>0</asrwt>
<pdfrwt beam="2">  1        2 0.27372532E+00 0.64052598E+02</pdfrwt>
<pdfrwt beam="1">  1        1 0.39352719E-01 0.25284109E+02</pdfrwt>
<totfact> 0.15962692E+02</totfact>
</mgrwt>
</event>
<event>
 7    1  0.5277388E-004  0.1853185E+03  0.7546771E-02  0.1217526E+00
          2   -1    0    0  503    0  0.00000000000E+00  0.00000000000E+00  0.20320785331E+04  0.20320785331E+04  0.00000000000E+00 0. -1.
          1   -1    0    0  502    0 -0.00000000000E+00 -0.00000000000E+00 -0.11017034075E+03  0.11017034075E+03  0.00000000000E+00 0. -1.
         25    2    1    2    0    0 -0.11840051234E+03 -0.20296640418E+03  0.43413060201E+03  0.50922358503E+03  0.12500094962E+03 0.  0.
          4    1    3    3  501    0  0.96940544315E+01 -0.52599114006E+02  0.35130567334E+02  0.64003212003E+02  0.12700000000E+01 0. -1.
         -4    1    3    3    0  501 -0.12809456677E+03 -0.15036729017E+03  0.39900003467E+03  0.44522037303E+03  0.12700000000E+01 0. -1.
          2    1    1    2  502    0 -0.28073899861E+02  0.97196902505E+02 -0.29221279742E+02  0.10530557867E+03  0.00000000000E+00 0. -1.
          3    1    1    2  503    0  0.14647441220E+03  0.10576950167E+03  0.15169988701E+04  0.15277197101E+04  0.00000000000E+00 0. -1.
<mgrwt>
<rscale>  0 0.13692583E+03</rscale>
<asrwt>0</asrwt>
<pdfrwt beam="1">  1        2 0.31262744E+00 0.18531847E+03</pdfrwt>
<pdfrwt beam="2">  1        1 0.16949285E-01 0.10117006E+03</pdfrwt>
<totfact> 0.30939095E+02</totfact>
</mgrwt>
</event>
<event>
 7    1  0.5277388E-004  0.2268561E+03  0.7546771E-02  0.1321037E+00
          1   -1    0    0  503    0  0.00000000000E+00  0.00000000000E+00  0.67077253861E+03  0.67077253861E+03  0.00000000000E+00 0. -1.
         -1   -1    0    0    0  501 -0.00000000000E+00 -0.00000000000E+00 -0.10903666722E+04  0.10903666722E+04  0.00000000000E+00 0.  1.
         25    2    1    2    0    0  0.95641535630E+02  0.23148395648E+03  0.33983897868E+03  0.44027508976E+03  0.12497798920E+03 0.  0.
          4    1    3    3  502    0  0.10151370584E+03  0.14306559354E+03  0.28908404164E+03  0.33814788564E+03  0.12700000000E+01 0.  1.
         -4    1    3    3    0  502 -0.58721702080E+01  0.88418362940E+02  0.50754937039E+02  0.10212720412E+03  0.12700000000E+01 0.  1.
          2    1    1    2  503    0  0.62924705350E+01 -0.29628008395E+02  0.26756028592E+03  0.26926923454E+03  0.00000000000E+00 0. -1.
         -2    1    1    2    0  501 -0.10193400616E+03 -0.20185594809E+03 -0.10269933982E+04  0.10515948865E+04  0.00000000000E+00 0.  1.
<mgrwt>
<rscale>  0 0.82892751E+02</rscale>
<asrwt>0</asrwt>
<pdfrwt beam="1">  1        1 0.10319578E+00 0.30288844E+02</pdfrwt>
<pdfrwt beam="2">  1       -1 0.16774872E+00 0.22685607E+03</pdfrwt>
<totfact> 0.94071081E+00</totfact>
</mgrwt>
</event>
<event>
 7    1  0.5277388E-004  0.2858182E+03  0.7546771E-02  0.1101956E+00
          1   -1    0    0  502    0 -0.00000000000E+00  0.00000000000E+00  0.31971264019E+04  0.31971264019E+04  0.00000000000E+00 0. -1.
          2   -1    0    0  503    0  0.00000000000E+00 -0.00000000000E+00 -0.37328291447E+04  0.37328291447E+04  0.00000000000E+00 0. -1.
         25    2    1    2    0    0  0.97981658896E+01 -0.17477275651E+03  0.46452386495E+03  0.51190234599E+03  0.12498027944E+03 0.  0.
          4    1    3    3  501    0  0.34198116875E+02 -0.11427637491E+03  0.15506738116E+03  0.19564280376E+03  0.12700000000E+01 0.  1.
         -4    1    3    3    0  501 -0.24399950985E+02 -0.60496381592E+02  0.30945648379E+03  0.31625954223E+03  0.12700000000E+01 0.  1.
          2    1    1    2  502    0 -0.29091388974E+03  0.12313937626E+03  0.26941648259E+04  0.27126220353E+04  0.00000000000E+00 0. -1.
          1    1    1    2  503    0  0.28111572385E+03  0.51633380249E+02 -0.36943914336E+04  0.37054311653E+04  0.00000000000E+00 0. -1.
<mgrwt>
<rscale>  0 0.26882095E+03</rscale>
<asrwt>0</asrwt>
<pdfrwt beam="2">  1        2 0.57428141E+00 0.28581822E+03</pdfrwt>
<pdfrwt beam="1">  1        1 0.49186560E+00 0.25283449E+03</pdfrwt>
<totfact> 0.51076835E-02</totfact>
</mgrwt>
</event>
<event>
 7    1  0.5277388E-004  0.1518351E+03  0.7546771E-02  0.1414097E+00
         -2   -1    0    0    0  501 -0.00000000000E+00  0.00000000000E+00  0.27195955164E+03  0.27195955164E+03  0.00000000000E+00 0.  1.
          2   -1    0    0  503    0  0.00000000000E+00 -0.00000000000E+00 -0.21153238429E+04  0.21153238429E+04  0.00000000000E+00 0. -1.
         25    2    1    2    0    0 -0.13040103239E+03  0.11106223477E+03 -0.92927822645E+03  0.95316469748E+03  0.12500267650E+03 0.  0.
          4    1    3    3  502    0 -0.14890924193E+03  0.98906127105E+02 -0.68717111137E+03  0.71004375464E+03  0.12700000000E+01 0.  1.
         -4    1    3    3    0  502  0.18508209535E+02  0.12156107670E+02 -0.24210711508E+03  0.24312094284E+03  0.12700000000E+01 0.  1.
          1    1    1    2  503    0  0.19060762639E+02 -0.84950632220E+01 -0.11519659832E+04  0.11521549832E+04  0.00000000000E+00 0. -1.
         -1    1    1    2    0  501  0.11134026975E+03 -0.10256717155E+03  0.23787991843E+03  0.28196371387E+03  0.00000000000E+00 0.  1.
<mgrwt>
<rscale>  0 0.56289564E+02</rscale>
<asrwt>0</asrwt>
<pdfrwt beam="2">  1        2 0.32543443E+00 0.20868128E+02</pdfrwt>
<pdfrwt beam="1">  1       -2 0.41839931E-01 0.15183513E+03</pdfrwt>
<totfact> 0.48557413E+01</totfact>
</mgrwt>
</event>
<event>
 7    1  0.5277388E-004  0.1077685E+03  0.7546771E-02  0.1274324E+00
          2   -1    0    0  503    0  0.00000000000E+00  0.00000000000E+00  0.25374364536E+04  0.25374364536E+04  0.00000000000E+00 0. -1.
          1   -1    0    0  502    0 -0.00000000000E+00 -0.00000000000E+00 -0.28735052409E+03  0.28735052409E+03  0.00000000000E+00 0. -1.
         25    2    1    2    0    0 -0.17168851369E+01  0.11579533270E+03  0.66941155064E+02  0.18307776762E+03  0.12499937594E+03 0.  0.
          4    1    3    3  501    0  0.41289704471E+02  0.43339725782E+02  0.77737161699E+02  0.98121611968E+02  0.12700000000E+01 0.  1.
         -4    1    3    3    0  501 -0.43006589608E+02  0.72455606917E+02 -0.10796006635E+02  0.84956155649E+02  0.12700000000E+01 0.  1.
          2    1    1    2  502    0 -0.85659499704E+02 -0.70887041542E+02 -0.21473741441E+03  0.24181538349E+03  0.00000000000E+00 0. -1.
          1    1    1    2  503    0  0.87376384841E+02 -0.44908291158E+02  0.23978821888E+04  0.23998938265E+04  0.00000000000E+00 0. -1.
<mgrwt>
<rscale>  0 0.10289480E+03</rscale>
<asrwt>0</asrwt>
<pdfrwt beam="1">  1        2 0.39037482E+00 0.98241474E+02</pdfrwt>
<pdfrwt beam="2">  1        1 0.44207775E-01 0.10776854E+03</pdfrwt>
<totfact> 0.55301649E+01</totfact>
</mgrwt>
</event>
<event>
 7    1  0.5277388E-004  0.2834448E+02  0.7546771E-02  0.1631789E+00
          2   -1    0    0  503    0  0.00000000000E+00  0.00000000000E+00  0.24120192948E+02  0.24120192948E+02  0.00000000000E+00 0. -1.
         -2   -1    0    0    0  501 -0.00000000000E+00 -0.00000000000E+00 -0.50550345121E+03  0.50550345121E+03  0.00000000000E+00 0.  1.
         25    2    1    2    0    0 -0.85185813854E+01 -0.15431270535E+02 -0.24821215417E+03  0.27846527301E+03  0.12499177756E+03 0.  0.
          4    1    3    3  502    0 -0.65403321211E+02 -0.20068585779E+02 -0.12043945801E+03  0.13851937953E+03  0.12700000000E+01 0.  1.
         -4    1    3    3    0  502  0.56884739825E+02  0.46373152445E+01 -0.12777269616E+03  0.13994589348E+03  0.12700000000E+01 0.  1.
          1    1    1    2  503    0 -0.25290739146E+02  0.12797978561E+02 -0.20534374915E+03  0.20729077417E+03  0.00000000000E+00 0. -1.
         -1    1    1    2    0  501  0.33809320531E+02  0.26332919737E+01 -0.27827354948E+02  0.43867596980E+02  0.00000000000E+00 0.  1.
<mgrwt>
<rscale>  0 0.27159679E+02</rscale>
<asrwt>0</asrwt>
<pdfrwt beam="1">  1        2 0.37107990E-02 0.28344483E+02</pdfrwt>
<pdfrwt beam="2">  1       -2 0.77769761E-01 0.26024399E+02</pdfrwt>
<totfact> 0.28876179E+03</totfact>
</mgrwt>
</event>
<event>
 7    1  0.5277388E-004  0.3834277E+02  0.7546771E-02  0.1542009E+00
          1   -1    0    0  503    0  0.00000000000E+00  0.00000000000E+00  0.20684281923E+04  0.20684281923E+04  0.00000000000E+00 0. -1.
         -1   -1    0    0    0  501 -0.00000000000E+00 -0.00000000000E+00 -0.97222744367E+02  0.97222744367E+02  0.00000000000E+00 0.  1.
         25    2    1    2    0    0 -0.27578980034E+01 -0.20359796832E+02  0.57129230814E+03  0.58516810104E+03  0.12499871124E+03 0.  0.
          4    1    3    3  502    0  0.36299292587E+02 -0.37631828667E+00  0.48794481841E+02  0.60830046982E+02  0.12700000000E+01 0.  1.
         -4    1    3    3    0  502 -0.39057190590E+02 -0.19983478545E+02  0.52249782629E+03  0.52433805406E+03  0.12700000000E+01 0.  1.
          2    1    1    2  503    0  0.33174329705E+02 -0.33118503692E+01  0.14858890771E+04  0.14862630500E+04  0.00000000000E+00 0. -1.
         -2    1    1    2    0  501 -0.30416431702E+02  0.23671647201E+02 -0.85975937303E+02  0.94219785575E+02  0.00000000000E+00 0.  1.
<mgrwt>
<rscale>  0 0.35753581E+02</rscale>
<asrwt>0</asrwt>
<pdfrwt beam="1">  1        1 0.31821969E+00 0.33339234E+02</pdfrwt>
<pdfrwt beam="2">  1       -1 0.14957347E-01 0.38342769E+02</pdfrwt>
<totfact> 0.11749210E+02</totfact>
</mgrwt>
</event>
<event>
 7    1  0.5277388E-004  0.3306747E+02  0.7546771E-02  0.1573521E+00
          2   -1    0    0  503    0  0.00000000000E+00  0.00000000000E+00  0.42388980551E+03  0.42388980551E+03  0.00000000000E+00 0. -1.
          1   -1    0    0  502    0 -0.00000000000E+00 -0.00000000000E+00 -0.63261551965E+03  0.63261551965E+03  0.00000000000E+00 0. -1.
         25    2    1    2    0    0  0.56652665412E+02 -0.24344670439E+01  0.58375001055E+02  0.14915981643E+03  0.12500223583E+03 0.  0.
          4    1    3    3  501    0 -0.18246219938E+02  0.18724773162E+02  0.65946909560E+02  0.70951740306E+02  0.12700000000E+01 0.  1.
         -4    1    3    3    0  501  0.74898885350E+02 -0.21159240206E+02 -0.75719085045E+01  0.78208076125E+02  0.12700000000E+01 0.  1.
          2    1    1    2  502    0 -0.28352221990E+02 -0.14042710709E+02 -0.58595770453E+03  0.58681127947E+03  0.00000000000E+00 0. -1.
          1    1    1    2  503    0 -0.28300443422E+02  0.16477177753E+02  0.31885698933E+03  0.32053422926E+03  0.00000000000E+00 0. -1.
<mgrwt>
<rscale>  0 0.32345509E+02</rscale>
<asrwt>0</asrwt>
<pdfrwt beam="1">  1        2 0.65213817E-01 0.33067467E+02</pdfrwt>
<pdfrwt beam="2">  1        1 0.97325464E-01 0.31639314E+02</pdfrwt>
<totfact> 0.36524088E+02</totfact>
</mgrwt>
</event>
<event>
 7    1  0.5277388E-004  0.5690498E+02  0.7546771E-02  0.1531053E+00
         -2   -1    0    0    0  501 -0.00000000000E+00  0.00000000000E+00  0.12030920936E+03  0.12030920936E+03  0.00000000000E+00 0.  1.
          2   -1    0    0  503    0  0.00000000000E+00 -0.00000000000E+00 -0.84403949267E+03  0.84403949267E+03  0.00000000000E+00 0. -1.
         25    2    1    2    0    0 -0.65701222467E+02  0.11321007226E+02 -0.17424755363E+03  0.22457136187E+03  0.12500108314E+03 0.  0.
          4    1    3    3  502    0 -0.36770980368E+02 -0.23070043083E+02 -0.17428319720E+03  0.17961229805E+03  0.12700000000E+01 0.  1.
         -4    1    3    3    0  502 -0.28930242099E+02  0.34391050309E+02  0.35643562931E-01  0.44959063822E+02  0.12700000000E+01 0.  1.
          1    1    1    2  503    0  0.10042800546E+02 -0.21943536712E+02 -0.63594471075E+03  0.63640242911E+03  0.00000000000E+00 0. -1.
         -1    1    1    2    0  501  0.55658421921E+02  0.10622529486E+02  0.86461981076E+02  0.10337491105E+03  0.00000000000E+00 0.  1.
<mgrwt>
<rscale>  0 0.37057499E+02</rscale>
<asrwt>0</asrwt>
<pdfrwt beam="2">  1        2 0.12985223E+00 0.24132481E+02</pdfrwt>
<pdfrwt beam="1">  1       -2 0.18509109E-01 0.56904976E+02</pdfrwt>
<totfact> 0.82770707E+02</totfact>
</mgrwt>
</event>
<event>
 7    1  0.5277388E-004  0.5682886E+02  0.7546771E-02  0.1496656E+00
          1   -1    0    0  503    0  0.00000000000E+00  0.00000000000E+00  0.55586726253E+02  0.55586726253E+02  0.00000000000E+00 0. -1.
         -1   -1    0    0    0  501 -0.00000000000E+00 -0.00000000000E+00 -0.14229637427E+04  0.14229637427E+04  0.00000000000E+00 0.  1.
         25    2    1    2    0    0 -0.38794026090E+02  0.60606798431E+01 -0.11286871824E+04  0.11362654495E+04  0.12499083062E+03 0.  0.
          4    1    3    3  502    0  0.31949842437E+02 -0.20441024905E+02 -0.69578945196E+03  0.69682365222E+03  0.12700000000E+01 0. -1.
         -4    1    3    3    0  502 -0.70743868527E+02  0.26501704748E+02 -0.43289773042E+03  0.43944179727E+03  0.12700000000E+01 0. -1.
          2    1    1    2  503    0  0.44373494259E+02 -0.36018833999E+02  0.34924979130E+02  0.66978485819E+02  0.00000000000E+00 0. -1.
         -2    1    1    2    0  501 -0.55794681687E+01  0.29958154156E+02 -0.27361481320E+03  0.27530653364E+03  0.00000000000E+00 0.  1.
<mgrwt>
<rscale>  0 0.41614449E+02</rscale>
<asrwt>0</asrwt>
<pdfrwt beam="1">  1        1 0.85518025E-02 0.56828858E+02</pdfrwt>
<pdfrwt beam="2">  1       -1 0.21891754E+00 0.30473291E+02</pdfrwt>
<totfact> 0.11073372E+02</totfact>
</mgrwt>
</event>
<event>
 7    1  0.5277388E-004  0.6397322E+02  0.7546771E-02  0.1438788E+00
          1   -1    0    0  502    0 -0.00000000000E+00  0.00000000000E+00  0.68882844731E+03  0.68882844731E+03  0.00000000000E+00 0. -1.
          2   -1    0    0  503    0  0.00000000000E+00 -0.00000000000E+00 -0.11777722738E+04  0.11777722738E+04  0.00000000000E+00 0. -1.
         25    2    1    2    0    0  0.15877911390E+02 -0.94780166850E+02 -0.32724418798E+03  0.36324624326E+03  0.12499474619E+03 0.  0.
          4    1    3    3  501    0  0.54682176151E+02 -0.13776625272E+02 -0.65089783552E+02  0.86129139177E+02  0.12700000000E+01 0.  1.
         -4    1    3    3    0  501 -0.38804264761E+02 -0.81003541578E+02 -0.26215440443E+03  0.27711710408E+03  0.12700000000E+01 0.  1.
          2    1    1    2  502    0  0.10134640592E+02  0.63044384889E+02  0.66880020701E+03  0.67184151577E+03  0.00000000000E+00 0. -1.
          1    1    1    2  503    0 -0.26012551982E+02  0.31735781961E+02 -0.83049984554E+03  0.83151296211E+03  0.00000000000E+00 0. -1.
<mgrwt>
<rscale>  0 0.51235687E+02</rscale>
<asrwt>0</asrwt>
<pdfrwt beam="2">  1        2 0.18119573E+00 0.41034287E+02</pdfrwt>
<pdfrwt beam="1">  1        1 0.10597361E+00 0.63973223E+02</pdfrwt>
<totfact> 0.97284174E+01</totfact>
</mgrwt>
</event>
<event>
 7    1  0.5277388E-004  0.4828830E+02  0.7546771E-02  0.1538495E+00
          2   -1    0    0  503    0  0.00000000000E+00  0.00000000000E+00  0.21227685796E+04  0.21227685796E+04  0.00000000000E+00 0. -1.
         -2   -1    0    0    0  501 -0.00000000000E+00 -0.00000000000E+00 -0.10076216677E+02  0.10076216677E+02  0.00000000000E+00 0.  1.
         25    2    1    2    0    0 -0.37941972206E+02 -0.13703675113E+02  0.11500518966E+04  0.11575283972E+04  0.12500096542E+03 0.  0.
          4    1    3    3  502    0 -0.47351869376E+02  0.43128275133E+02  0.81882636815E+03  0.82132848589E+03  0.12700000000E+01 0.  1.
         -4    1    3    3    0  502  0.94098971702E+01 -0.56831950247E+02  0.33122552847E+03  0.33619991128E+03  0.12700000000E+01 0.  1.
          1    1    1    2  503    0  0.49596079075E+02 -0.10745659032E+02  0.93583430976E+03  0.93720920587E+03  0.00000000000E+00 0. -1.
         -1    1    1    2    0  501 -0.11654106869E+02  0.24449334146E+02  0.26806156501E+02  0.38107193198E+02  0.00000000000E+00 0.  1.
<mgrwt>
<rscale>  0 0.36164630E+02</rscale>
<asrwt>0</asrwt>
<pdfrwt beam="1">  1        2 0.32657943E+00 0.48288297E+02</pdfrwt>
<pdfrwt beam="2">  1       -2 0.15501889E-02 0.27084832E+02</pdfrwt>
<totfact> 0.62048932E+03</totfact>
</mgrwt>
</event>
<event>
 7    1  0.5277388E-004  0.5946581E+02  0.7546771E-02  0.1504972E+00
          2   -1    0    0  503    0  0.00000000000E+00  0.00000000000E+00  0.18056372482E+04  0.18056372482E+04  0.00000000000E+00 0. -1.
          1   -1    0    0  502    0 -0.00000000000E+00 -0.00000000000E+00 -0.18597889968E+03  0.18597889968E+03  0.00000000000E+00 0. -1.
         25    2    1    2    0    0 -0.46877456852E+02  0.12166745337E+02  0.30574783687E+02  0.13750064320E+03  0.12500433525E+03 0.  0.
          4    1    3    3  501    0 -0.13514334939E+02 -0.50586720507E+02  0.39854250077E+02  0.65815102292E+02  0.12700000000E+01 0.  1.
         -4    1    3    3    0  501 -0.33363121913E+02  0.62753465843E+02 -0.92794663897E+01  0.71685540910E+02  0.12700000000E+01 0.  1.
          2    1    1    2  502    0  0.22847715709E+01  0.27411322748E+02 -0.13056635137E+03  0.13343227836E+03  0.00000000000E+00 0. -1.
          3    1    1    2  503    0  0.44592685281E+02 -0.39578068085E+02  0.17196499162E+04  0.17206832263E+04  0.00000000000E+00 0. -1.
<mgrwt>
<rscale>  0 0.40443654E+02</rscale>
<asrwt>0</asrwt>
<pdfrwt beam="1">  1        2 0.27779033E+00 0.59465815E+02</pdfrwt>
<pdfrwt beam="2">  1        1 0.28612140E-01 0.27506377E+02</pdfrwt>
<totfact> 0.22692772E+02</totfact>
</mgrwt>
</event>
<event>
 7    1  0.5277388E-004  0.7398826E+02  0.7546771E-02  0.1454435E+00
          1   -1    0    0  502    0 -0.00000000000E+00  0.00000000000E+00  0.45597002475E+02  0.45597002475E+02  0.00000000000E+00 0. -1.
          2   -1    0    0  503    0  0.00000000000E+00 -0.00000000000E+00 -0.68611105810E+03  0.68611105810E+03  0.00000000000E+00 0. -1.
         25    2    1    2    0    0 -0.44478952001E+02 -0.57019729683E+02 -0.25558064025E+03  0.29355843429E+03  0.12500185571E+03 0.  0.
          4    1    3    3  501    0 -0.77828841909E+02 -0.18421341083E+02 -0.21152872592E+03  0.22614749441E+03  0.12700000000E+01 0. -1.
         -4    1    3    3    0  501  0.33349889909E+02 -0.38598388600E+02 -0.44051914330E+02  0.67410939881E+02  0.12700000000E+01 0. -1.
          2    1    1    2  502    0  0.27077794493E+02 -0.16288179904E+02  0.12244318892E+02  0.33888568933E+02  0.00000000000E+00 0. -1.
          3    1    1    2  503    0  0.17401157507E+02  0.73307909588E+02 -0.39717773427E+03  0.40426105735E+03  0.00000000000E+00 0. -1.
<mgrwt>
<rscale>  0 0.48352586E+02</rscale>
<asrwt>0</asrwt>
<pdfrwt beam="2">  1        2 0.10555556E+00 0.73988260E+02</pdfrwt>
<pdfrwt beam="1">  1        1 0.70149229E-02 0.31599237E+02</pdfrwt>
<totfact> 0.52828444E+03</totfact>
</mgrwt>
</event>
<event>
 7    1  0.5277388E-004  0.4517369E+02  0.7546771E-02  0.1575218E+00
          2   -1    0    0  503    0  0.00000000000E+00  0.00000000000E+00  0.33800172554E+03  0.33800172554E+03  0.00000000000E+00 0. -1.
          1   -1    0    0  502    0 -0.00000000000E+00 -0.00000000000E+00 -0.74622519116E+03  0.74622519116E+03  0.00000000000E+00 0. -1.
         25    2    1    2    0    0  0.23249261548E+02  0.58726018615E+02  0.74214821570E+02  0.15850052809E+03  0.12500121696E+03 0.  0.
          4    1    3    3  501    0  0.35620101738E+02 -0.15138780424E+02 -0.15425944623E+02  0.41683893629E+02  0.12700000000E+01 0.  1.
         -4    1    3    3    0  501 -0.12370840190E+02  0.73864799038E+02  0.89640766193E+02  0.11681663446E+03  0.12700000000E+01 0.  1.
          2    1    1    2  502    0  0.26548105396E+01 -0.22762714930E+02 -0.70167770462E+03  0.70205184308E+03  0.00000000000E+00 0. -1.
          1    1    1    2  503    0 -0.25904072088E+02 -0.35963303684E+02  0.21923941743E+03  0.22367454553E+03  0.00000000000E+00 0. -1.
<mgrwt>
<rscale>  0 0.32175236E+02</rscale>
<asrwt>0</asrwt>
<pdfrwt beam="1">  1        2 0.52000265E-01 0.45173691E+02</pdfrwt>
<pdfrwt beam="2">  1        1 0.11480388E+00 0.22917007E+02</pdfrwt>
<totfact> 0.37488996E+02</totfact>
</mgrwt>
</event>
<event>
 7    1  0.5277388E-004  0.6664022E+02  0.7546771E-02  0.1423692E+00
         -2   -1    0    0    0  501 -0.00000000000E+00  0.00000000000E+00  0.43084266501E+02  0.43084266501E+02  0.00000000000E+00 0.  1.
          2   -1    0    0  503    0  0.00000000000E+00 -0.00000000000E+00 -0.32447067757E+04  0.32447067757E+04  0.00000000000E+00 0. -1.
         25    2    1    2    0    0  0.27304143493E+02 -0.49838518102E+02 -0.29263721249E+03  0.32324877921E+03  0.12499536387E+03 0.  0.
          4    1    3    3  502    0  0.82201887877E-01 -0.77323062710E+02 -0.98190453687E+02  0.12498736288E+03  0.12700000000E+01 0.  1.
         -4    1    3    3    0  502  0.27221941605E+02  0.27484544608E+02 -0.19444675880E+03  0.19826141633E+03  0.12700000000E+01 0.  1.
          1    1    1    2  503    0  0.13877052929E+02  0.65780601564E+02 -0.29185787476E+04  0.29193529362E+04  0.00000000000E+00 0. -1.
         -1    1    1    2    0  501 -0.41181196422E+02 -0.15942083462E+02  0.95934508194E+01  0.45189326865E+02  0.00000000000E+00 0.  1.
<mgrwt>
<rscale>  0 0.54247425E+02</rscale>
<asrwt>0</asrwt>
<pdfrwt beam="2">  1        2 0.49918561E+00 0.66640216E+02</pdfrwt>
<pdfrwt beam="1">  1       -2 0.66283493E-02 0.44159268E+02</pdfrwt>
<totfact> 0.20491062E+02</totfact>
</mgrwt>
</event>
<event>
 7    1  0.5277388E-004  0.7535910E+02  0.7546771E-02  0.1368470E+00
          2   -1    0    0  503    0  0.00000000000E+00  0.00000000000E+00  0.15684384381E+04  0.15684384381E+04  0.00000000000E+00 0. -1.
          1   -1    0    0  502    0 -0.00000000000E+00 -0.00000000000E+00 -0.36585328092E+03  0.36585328092E+03  0.00000000000E+00 0. -1.
         25    2    1    2    0    0 -0.12069549431E+03  0.43231923264E+01 -0.12559688832E+03  0.21443022021E+03  0.12497859275E+03 0.  0.
          4    1    3    3  501    0 -0.45997282275E+02 -0.48099136577E+02 -0.99127006815E+02  0.11940290322E+03  0.12700000000E+01 0. -1.
         -4    1    3    3    0  501 -0.74698212038E+02  0.52422328904E+02 -0.26469881503E+02  0.95027317000E+02  0.12700000000E+01 0. -1.
          2    1    1    2  502    0  0.53282373307E+02  0.28929601172E+02 -0.19019506942E+03  0.19962489214E+03  0.00000000000E+00 0. -1.
          1    1    1    2  503    0  0.67413121006E+02 -0.33252793498E+02  0.15183771149E+04  0.15202366067E+04  0.00000000000E+00 0. -1.
<mgrwt>
<rscale>  0 0.67594250E+02</rscale>
<asrwt>0</asrwt>
<pdfrwt beam="1">  1        2 0.24129822E+00 0.75359100E+02</pdfrwt>
<pdfrwt beam="2">  1        1 0.56285121E-01 0.60629474E+02</pdfrwt>
<totfact> 0.13168359E+02</totfact>
</mgrwt>
</event>
<event>
 7    1  0.5277388E-004  0.5478278E+02  0.7546771E-02  0.1422194E+00
         -1   -1    0    0    0  501 -0.00000000000E+00  0.00000000000E+00  0.13680363206E+03  0.13680363206E+03  0.00000000000E+00 0.  1.
          1   -1    0    0  503    0  0.00000000000E+00 -0.00000000000E+00 -0.84434305402E+03  0.84434305402E+03  0.00000000000E+00 0. -1.
         25    2    1    2    0    0  0.10804544149E+02  0.45380453574E+02 -0.17941397194E+03  0.22358557691E+03  0.12500005254E+03 0.  0.
          4    1    3    3  502    0  0.37245012278E+02  0.76411839019E+02 -0.82616749259E+02  0.11854577276E+03  0.12700000000E+01 0.  1.
         -4    1    3    3    0  502 -0.26440468129E+02 -0.31031385445E+02 -0.96797222679E+02  0.10503980415E+03  0.12700000000E+01 0.  1.
          2    1    1    2  503    0  0.43594785070E+02 -0.32434863763E+02 -0.63479869839E+03  0.63712001472E+03  0.00000000000E+00 0. -1.
         -2    1    1    2    0  501 -0.54399329219E+02 -0.12945589811E+02  0.10667324837E+03  0.12044109445E+03  0.00000000000E+00 0.  1.
<mgrwt>
<rscale>  0 0.54559510E+02</rscale>
<asrwt>0</asrwt>
<pdfrwt beam="2">  1        1 0.12989893E+00 0.54337148E+02</pdfrwt>
<pdfrwt beam="1">  1       -1 0.21046713E-01 0.54782782E+02</pdfrwt>
<totfact> 0.40834374E+02</totfact>
</mgrwt>
</event>
<event>
 7    1  0.5277388E-004  0.4027773E+02  0.7546771E-02  0.1507641E+00
          1   -1    0    0  502    0 -0.00000000000E+00  0.00000000000E+00  0.13536621140E+04  0.13536621140E+04  0.00000000000E+00 0. -1.
          2   -1    0    0  503    0  0.00000000000E+00 -0.00000000000E+00 -0.26452705993E+03  0.26452705993E+03  0.00000000000E+00 0. -1.
         25    2    1    2    0    0 -0.15097735668E+02 -0.45936908713E+02  0.28837930862E+02  0.13710210851E+03  0.12500888247E+03 0.  0.
          4    1    3    3  501    0 -0.26798570990E+01 -0.98334600875E+01  0.75841066685E+02  0.76533384005E+02  0.12700000000E+01 0. -1.
         -4    1    3    3    0  501 -0.12417878569E+02 -0.36103448626E+02 -0.47003135823E+02  0.60568724503E+02  0.12700000000E+01 0. -1.
          2    1    1    2  502    0  0.38071566424E+02  0.13340764142E+02  0.12684788818E+04  0.12691202046E+04  0.00000000000E+00 0. -1.
          1    1    1    2  503    0 -0.22973830756E+02  0.32596144571E+02 -0.20818175851E+03  0.21196686089E+03  0.00000000000E+00 0. -1.
<mgrwt>
<rscale>  0 0.40077686E+02</rscale>
<asrwt>0</asrwt>
<pdfrwt beam="2">  1        2 0.40696472E-01 0.39878635E+02</pdfrwt>
<pdfrwt beam="1">  1        1 0.20825570E+00 0.40277731E+02</pdfrwt>
<totfact> 0.17757084E+02</totfact>
</mgrwt>
</event>
<event>
 7    1  0.5277388E-004  0.1148191E+03  0.7546771E-02  0.1265375E+00
          1   -1    0    0  502    0 -0.00000000000E+00  0.00000000000E+00  0.38087880263E+02  0.38087880263E+02  0.00000000000E+00 0. -1.
          2   -1    0    0  503    0  0.00000000000E+00 -0.00000000000E+00 -0.14593561380E+04  0.14593561380E+04  0.00000000000E+00 0. -1.
         25    2    1    2    0    0 -0.11830050953E+02  0.25894710288E+02 -0.36413491407E+03  0.38604277858E+03  0.12499722044E+03 0.  0.
          4    1    3    3  501    0 -0.43137990597E+02 -0.35543878560E+02 -0.12057749365E+03  0.13290898544E+03  0.12700000000E+01 0.  1.
         -4    1    3    3    0  501  0.31307939644E+02  0.61438588849E+02 -0.24355742043E+03  0.25313379314E+03  0.12700000000E+01 0.  1.
          2    1    1    2  502    0 -0.10972393518E+03  0.33824379518E+02 -0.12599191399E+03  0.17046229200E+03  0.00000000000E+00 0. -1.
          1    1    1    2  503    0  0.12155398613E+03 -0.59719089807E+02 -0.93114142964E+03  0.94093894766E+03  0.00000000000E+00 0. -1.
<mgrwt>
<rscale>  0 0.10744522E+03</rscale>
<asrwt>0</asrwt>
<pdfrwt beam="2">  1        2 0.22451636E+00 0.10054489E+03</pdfrwt>
<pdfrwt beam="1">  1        1 0.58596731E-02 0.11481912E+03</pdfrwt>
<totfact> 0.26245007E+03</totfact>
</mgrwt>
</event>
<event>
 7    1  0.5277388E-004  0.4440793E+02  0.7546771E-02  0.1484438E+00
         -2   -1    0    0    0  501 -0.00000000000E+00  0.00000000000E+00  0.23755773324E+03  0.23755773324E+03  0.00000000000E+00 0.  1.
          2   -1    0    0  503    0  0.00000000000E+00 -0.00000000000E+00 -0.60698311488E+02  0.60698311488E+02  0.00000000000E+00 0. -1.
         25    2    1    2    0    0  0.83853450410E+01 -0.52736894657E+02  0.10415136503E+03  0.17124256778E+03  0.12500006444E+03 0.  0.
          4    1    3    3  502    0 -0.19073016066E+02 -0.71567056171E+02  0.14341605257E+02  0.75451428165E+02  0.12700000000E+01 0. -1.
         -4    1    3    3    0  502  0.27458361107E+02  0.18830161514E+02  0.89809759773E+02  0.95791139610E+02  0.12700000000E+01 0. -1.
          1    1    1    2  503    0 -0.38387581431E+02  0.18141539963E+02  0.16654245071E+01  0.42491122828E+02  0.00000000000E+00 0. -1.
         -1    1    1    2    0  501  0.30002236390E+02  0.34595354694E+02  0.71042632213E+02  0.84522354123E+02  0.00000000000E+00 0.  1.
<mgrwt>
<rscale>  0 0.43422264E+02</rscale>
<asrwt>0</asrwt>
<pdfrwt beam="2">  1        2 0.93382019E-02 0.42458472E+02</pdfrwt>
<pdfrwt beam="1">  1       -2 0.36547343E-01 0.44407934E+02</pdfrwt>
<totfact> 0.42600981E+03</totfact>
</mgrwt>
</event>
<event>
 7    1  0.5277388E-004  0.1093413E+03  0.7546771E-02  0.1334531E+00
          2   -1    0    0  503    0  0.00000000000E+00  0.00000000000E+00  0.16663463608E+04  0.16663463608E+04  0.00000000000E+00 0. -1.
          1   -1    0    0  502    0 -0.00000000000E+00 -0.00000000000E+00 -0.70860075489E+03  0.70860075489E+03  0.00000000000E+00 0. -1.
         25    2    1    2    0    0 -0.10426706100E+03  0.12173127863E+03  0.50122585913E+03  0.54087212754E+03  0.12500068912E+03 0.  0.
          4    1    3    3  501    0 -0.11349534102E+03  0.39471438997E+02  0.31122136118E+03  0.33361585017E+03  0.12700000000E+01 0. -1.
         -4    1    3    3    0  501  0.92282800138E+01  0.82259839628E+02  0.19000449795E+03  0.20725627737E+03  0.12700000000E+01 0. -1.
          2    1    1    2  502    0  0.83512241718E+02 -0.69950710980E+02 -0.68378407577E+03  0.69240743696E+03  0.00000000000E+00 0. -1.
          1    1    1    2  503    0  0.20754819284E+02 -0.51780567645E+02  0.11403038226E+04  0.11416675512E+04  0.00000000000E+00 0. -1.
<mgrwt>
<rscale>  0 0.78100096E+02</rscale>
<asrwt>0</asrwt>
<pdfrwt beam="1">  1        2 0.25636098E+00 0.55785210E+02</pdfrwt>
<pdfrwt beam="2">  1        1 0.10901550E+00 0.10934126E+03</pdfrwt>
<totfact> 0.50697373E+01</totfact>
</mgrwt>
</event>
<event>
 7    1  0.5277388E-004  0.3827458E+02  0.7546771E-02  0.1582297E+00
          1   -1    0    0  502    0 -0.00000000000E+00  0.00000000000E+00  0.73146268656E+03  0.73146268656E+03  0.00000000000E+00 0. -1.
          2   -1    0    0  503    0  0.00000000000E+00 -0.00000000000E+00 -0.98441290576E+03  0.98441290576E+03  0.00000000000E+00 0. -1.
         25    2    1    2    0    0  0.21767201459E+02 -0.67401744145E+01 -0.39432309494E+03  0.41428800875E+03  0.12499843991E+03 0.  0.
          4    1    3    3  501    0  0.31552250083E+02 -0.62683846415E+02 -0.21143927675E+03  0.22278462635E+03  0.12700000000E+01 0. -1.
         -4    1    3    3    0  501 -0.97850486239E+01  0.55943672001E+02 -0.18288381818E+03  0.19150338239E+03  0.12700000000E+01 0. -1.
          2    1    1    2  502    0  0.76717783644E+00 -0.25878029718E+02  0.72057013661E+03  0.72103507734E+03  0.00000000000E+00 0. -1.
          1    1    1    2  503    0 -0.22534379295E+02  0.32618204132E+02 -0.57919726088E+03  0.58055250624E+03  0.00000000000E+00 0. -1.
<mgrwt>
<rscale>  0 0.31478659E+02</rscale>
<asrwt>0</asrwt>
<pdfrwt beam="2">  1        2 0.15144814E+00 0.38274585E+02</pdfrwt>
<pdfrwt beam="1">  1        1 0.11253272E+00 0.25889399E+02</pdfrwt>
<totfact> 0.11920830E+02</totfact>
</mgrwt>
</event>
<event>
 7    1  0.5277388E-004  0.1989618E+03  0.7546771E-02  0.1284996E+00
          2   -1    0    0  503    0  0.00000000000E+00  0.00000000000E+00  0.21681327712E+04  0.21681327712E+04  0.00000000000E+00 0. -1.
          1   -1    0    0  502    0 -0.00000000000E+00 -0.00000000000E+00 -0.19365088336E+04  0.19365088336E+04  0.00000000000E+00 0. -1.
         25    2    1    2    0    0  0.49149341277E+02 -0.24150470180E+03  0.39096609310E+03  0.47876524672E+03  0.12498598629E+03 0.  0.
          4    1    3    3  501    0 -0.27559820403E+02 -0.27291152278E+02  0.20205881566E+02  0.43752042731E+02  0.12700000000E+01 0. -1.
         -4    1    3    3    0  501  0.76709161679E+02 -0.21421354953E+03  0.37076021154E+03  0.43501320399E+03  0.12700000000E+01 0. -1.
          2    1    1    2  502    0 -0.38696222489E+02  0.19458348468E+03 -0.18870748355E+04  0.18974750499E+04  0.00000000000E+00 0. -1.
          1    1    1    2  503    0 -0.10453118788E+02  0.46921217123E+02  0.17277326800E+04  0.17284013081E+04  0.00000000000E+00 0. -1.
<mgrwt>
<rscale>  0 0.97797695E+02</rscale>
<asrwt>0</asrwt>
<pdfrwt beam="1">  1        2 0.33355889E+00 0.48071492E+02</pdfrwt>
<pdfrwt beam="2">  1        1 0.29792444E+00 0.19896177E+03</pdfrwt>
<totfact> 0.39244044E+00</totfact>
</mgrwt>
</event>
<event>
 7    1  0.5277388E-004  0.9303115E+02  0.7546771E-02  0.1329539E+00
          2   -1    0    0  503    0  0.00000000000E+00  0.00000000000E+00  0.15099799126E+04  0.15099799126E+04  0.00000000000E+00 0. -1.
          1   -1    0    0  502    0 -0.00000000000E+00 -0.00000000000E+00 -0.19652844276E+03  0.19652844276E+03  0.00000000000E+00 0. -1.
         25    2    1    2    0    0 -0.30887467479E+02 -0.34820340023E+02  0.73240566795E+03  0.74445221128E+03  0.12499816280E+03 0.  0.
          4    1    3    3  501    0 -0.79804723179E+02 -0.21582795052E+02  0.44984011523E+03  0.45737550553E+03  0.12700000000E+01 0. -1.
         -4    1    3    3    0  501  0.48917255700E+02 -0.13237544971E+02  0.28256555272E+03  0.28707670575E+03  0.12700000000E+01 0. -1.
          2    1    1    2  502    0  0.82756663664E+02 -0.42498578869E+02 -0.17612345339E+03  0.19918399891E+03  0.00000000000E+00 0. -1.
          1    1    1    2  503    0 -0.51869196185E+02  0.77318918892E+02  0.75716925530E+03  0.76287214518E+03  0.00000000000E+00 0. -1.
<mgrwt>
<rscale>  0 0.79828457E+02</rscale>
<asrwt>0</asrwt>
<pdfrwt beam="1">  1        2 0.23230459E+00 0.68499450E+02</pdfrwt>
<pdfrwt beam="2">  1        1 0.30235146E-01 0.93031148E+02</pdfrwt>
<totfact> 0.30309087E+02</totfact>
</mgrwt>
</event>
<event>
 7    1  0.5277388E-004  0.5974515E+02  0.7546771E-02  0.1446930E+00
          2   -1    0    0  503    0  0.00000000000E+00  0.00000000000E+00  0.18349934242E+03  0.18349934242E+03  0.00000000000E+00 0. -1.
          1   -1    0    0  502    0 -0.00000000000E+00 -0.00000000000E+00 -0.23997355074E+03  0.23997355074E+03  0.00000000000E+00 0. -1.
         25    2    1    2    0    0  0.10499235152E+02  0.24172092163E+02  0.91025326130E+02  0.15687238210E+03  0.12501524023E+03 0.  0.
          4    1    3    3  501    0 -0.30394591142E+02  0.63876554881E+02  0.50276313546E+02  0.86794965510E+02  0.12700000000E+01 0. -1.
         -4    1    3    3    0  501  0.40893826294E+02 -0.39704462717E+02  0.40749012584E+02  0.70077416585E+02  0.12700000000E+01 0. -1.
          2    1    1    2  502    0  0.93739642659E+01 -0.60438973013E+02 -0.19456261168E+03  0.20394938227E+03  0.00000000000E+00 0. -1.
          1    1    1    2  503    0 -0.19873199418E+02  0.36266880850E+02  0.47063077223E+02  0.62651128796E+02  0.00000000000E+00 0. -1.
<mgrwt>
<rscale>  0 0.49706708E+02</rscale>
<asrwt>0</asrwt>
<pdfrwt beam="1">  1        2 0.28230668E-01 0.41354936E+02</pdfrwt>
<pdfrwt beam="2">  1        1 0.36919008E-01 0.59745149E+02</pdfrwt>
<totfact> 0.27801704E+03</totfact>
</mgrwt>
</event>
<event>
 7    1  0.5277388E-004  0.9234542E+02  0.7546771E-02  0.1394853E+00
          2   -1    0    0  503    0  0.00000000000E+00  0.00000000000E+00  0.56597823862E+03  0.56597823862E+03  0.00000000000E+00 0. -1.
          1   -1    0    0  502    0 -0.00000000000E+00 -0.00000000000E+00 -0.14268788610E+03  0.14268788610E+03  0.00000000000E+00 0. -1.
         25    2    1    2    0    0  0.18142163676E+02  0.55209589439E+02  0.51255594579E+02  0.14706452924E+03  0.12499441154E+03 0.  0.
          4    1    3    3  501    0  0.13800010657E+02 -0.24166395685E+02 -0.24609584589E+02  0.37171219084E+02  0.12700000000E+01 0. -1.
         -4    1    3    3    0  501  0.43421530193E+01  0.79375985124E+02  0.75865179168E+02  0.10989331016E+03  0.12700000000E+01 0. -1.
          2    1    1    2  502    0  0.26748041078E+02  0.29632785879E+02 -0.85365635210E+02  0.94238269165E+02  0.00000000000E+00 0. -1.
          1    1    1    2  503    0 -0.44890204754E+02 -0.84842375318E+02  0.45740039315E+03  0.46736332632E+03  0.00000000000E+00 0. -1.
<mgrwt>
<rscale>  0 0.60715526E+02</rscale>
<asrwt>0</asrwt>
<pdfrwt beam="1">  1        2 0.87073574E-01 0.92345417E+02</pdfrwt>
<pdfrwt beam="2">  1        1 0.21951983E-01 0.39919415E+02</pdfrwt>
<totfact> 0.15955496E+03</totfact>
</mgrwt>
</event>
<event>
 7    1  0.5277388E-004  0.6808768E+02  0.7546771E-02  0.1491328E+00
          2   -1    0    0  503    0  0.00000000000E+00  0.00000000000E+00  0.76140723252E+02  0.76140723252E+02  0.00000000000E+00 0. -1.
          1   -1    0    0  502    0 -0.00000000000E+00 -0.00000000000E+00 -0.12618116272E+04  0.12618116272E+04  0.00000000000E+00 0. -1.
         25    2    1    2    0    0 -0.41828795135E+02 -0.63627692437E+02 -0.13556342094E+03  0.19949931474E+03  0.12499761651E+03 0.  0.
          4    1    3    3  501    0  0.20278740614E+02  0.44549303366E+01 -0.97651392874E+02  0.99842281401E+02  0.12700000000E+01 0.  1.
         -4    1    3    3    0  501 -0.62107535749E+02 -0.68082622773E+02 -0.37912028071E+02  0.99657033334E+02  0.12700000000E+01 0.  1.
          2    1    1    2  502    0  0.26313677286E+02 -0.20153270146E+01 -0.10682723475E+04  0.10685982779E+04  0.00000000000E+00 0. -1.
          3    1    1    2  503    0  0.15515117850E+02  0.65643019451E+02  0.18164864493E+02  0.69854757795E+02  0.00000000000E+00 0. -1.
<mgrwt>
<rscale>  0 0.42389672E+02</rscale>
<asrwt>0</asrwt>
<pdfrwt beam="1">  1        2 0.11713958E-01 0.68087682E+02</pdfrwt>
<pdfrwt beam="2">  1        1 0.19412485E+00 0.26390740E+02</pdfrwt>
<totfact> 0.83710023E+02</totfact>
</mgrwt>
</event>
<event>
 7    1  0.5277388E-004  0.1633027E+03  0.7546771E-02  0.1286317E+00
          1   -1    0    0  502    0 -0.00000000000E+00  0.00000000000E+00  0.28832592052E+04  0.28832592052E+04  0.00000000000E+00 0. -1.
          2   -1    0    0  503    0  0.00000000000E+00 -0.00000000000E+00 -0.14392749112E+04  0.14392749112E+04  0.00000000000E+00 0. -1.
         25    2    1    2    0    0 -0.11153208769E+03  0.48375400026E+02  0.63593980107E+03  0.65941438740E+03  0.12501327056E+03 0.  0.
          4    1    3    3  501    0  0.20289873305E+02  0.18350202196E+02  0.41003063254E+02  0.49307940290E+02  0.12700000000E+01 0.  1.
         -4    1    3    3    0  501 -0.13182196100E+03  0.30025197830E+02  0.59493673782E+03  0.61010644711E+03  0.12700000000E+01 0.  1.
          2    1    1    2  502    0  0.16936799458E+03 -0.47421116974E+02  0.22315345118E+04  0.22384549487E+04  0.00000000000E+00 0. -1.
          1    1    1    2  503    0 -0.57835906884E+02 -0.95428305173E+00 -0.14234900189E+04  0.14246647804E+04  0.00000000000E+00 0. -1.
<mgrwt>
<rscale>  0 0.97190767E+02</rscale>
<asrwt>0</asrwt>
<pdfrwt beam="2">  1        2 0.22142691E+00 0.57843779E+02</pdfrwt>
<pdfrwt beam="1">  1        1 0.44357834E+00 0.16330270E+03</pdfrwt>
<totfact> 0.21532576E+00</totfact>
</mgrwt>
</event>
<event>
 7    1  0.5277388E-004  0.1227577E+03  0.7546771E-02  0.1342074E+00
          1   -1    0    0  503    0  0.00000000000E+00  0.00000000000E+00  0.77616591682E+02  0.77616591682E+02  0.00000000000E+00 0. -1.
         -1   -1    0    0    0  501 -0.00000000000E+00 -0.00000000000E+00 -0.10500096714E+04  0.10500096714E+04  0.00000000000E+00 0.  1.
         25    2    1    2    0    0  0.59282978651E+02 -0.90715051498E+02 -0.18862912751E+03  0.25089790497E+03  0.12500047540E+03 0.  0.
          4    1    3    3  502    0  0.10299716943E+00 -0.41450791777E+02  0.57046574518E+01  0.41860897793E+02  0.12700000000E+01 0.  1.
         -4    1    3    3    0  502  0.59179981481E+02 -0.49264259720E+02 -0.19433378496E+03  0.20903700718E+03  0.12700000000E+01 0.  1.
          2    1    1    2  503    0 -0.30507525275E+02  0.12729009528E+03 -0.47884198213E+02  0.13937852737E+03  0.00000000000E+00 0. -1.
         -2    1    1    2    0  501 -0.28775453375E+02 -0.36575043779E+02 -0.73587975401E+03  0.73734983075E+03  0.00000000000E+00 0.  1.
<mgrwt>
<rscale>  0 0.75583509E+02</rscale>
<asrwt>0</asrwt>
<pdfrwt beam="1">  1        1 0.11941014E-01 0.12275774E+03</pdfrwt>
<pdfrwt beam="2">  1       -1 0.16153995E+00 0.46537732E+02</pdfrwt>
<totfact> 0.17130292E+02</totfact>
</mgrwt>
</event>
<event>
 7    1  0.5277388E-004  0.1633471E+03  0.7546771E-02  0.1311048E+00
          2   -1    0    0  503    0  0.00000000000E+00  0.00000000000E+00  0.90011865922E+03  0.90011865922E+03  0.00000000000E+00 0. -1.
         -2   -1    0    0    0  501 -0.00000000000E+00 -0.00000000000E+00 -0.62403188759E+02  0.62403188759E+02  0.00000000000E+00 0.  1.
         25    2    1    2    0    0 -0.17834433526E+02 -0.14500540263E+03  0.21810773472E+03  0.29075893472E+03  0.12500056146E+03 0.  0.
          4    1    3    3  502    0  0.16343796793E+02 -0.14865077175E+03  0.20543097918E+03  0.25410169567E+03  0.12700000000E+01 0. -1.
         -4    1    3    3    0  502 -0.34178230318E+02  0.36453691244E+01  0.12676755534E+02  0.36657239048E+02  0.12700000000E+01 0. -1.
          1    1    1    2  503    0 -0.24172512088E+02 -0.39156699956E+02  0.27461109969E+03  0.27843996402E+03  0.00000000000E+00 0. -1.
         -1    1    1    2    0  501  0.42006945613E+02  0.18416210258E+03  0.34499663606E+03  0.39332294924E+03  0.00000000000E+00 0.  1.
<mgrwt>
<rscale>  0 0.86699080E+02</rscale>
<asrwt>0</asrwt>
<pdfrwt beam="1">  1        2 0.13847978E+00 0.46016926E+02</pdfrwt>
<pdfrwt beam="2">  1       -2 0.96004912E-02 0.16334708E+03</pdfrwt>
<totfact> 0.22592134E+03</totfact>
</mgrwt>
</event>
<event>
 7    1  0.5277388E-004  0.5112441E+02  0.7546771E-02  0.1571414E+00
          2   -1    0    0  503    0  0.00000000000E+00  0.00000000000E+00  0.16326554797E+03  0.16326554797E+03  0.00000000000E+00 0. -1.
          1   -1    0    0  502    0 -0.00000000000E+00 -0.00000000000E+00 -0.13779731479E+04  0.13779731479E+04  0.00000000000E+00 0. -1.
         25    2    1    2    0    0  0.29097185328E+02 -0.42069493508E+02 -0.75191287754E+02  0.15457926833E+03  0.12499812784E+03 0.  0.
          4    1    3    3  501    0  0.15694063098E+02 -0.32582227800E+02 -0.11014626323E+03  0.11593842068E+03  0.12700000000E+01 0. -1.
         -4    1    3    3    0  501  0.13403122229E+02 -0.94872657088E+01  0.34954975480E+02  0.38640847648E+02  0.12700000000E+01 0. -1.
          2    1    1    2  502    0 -0.19026759997E+02 -0.82417829007E+01 -0.12576725847E+04  0.12578435017E+04  0.00000000000E+00 0. -1.
          1    1    1    2  503    0 -0.10070425330E+02  0.50311276409E+02  0.11815627253E+03  0.12881592579E+03  0.00000000000E+00 0. -1.
<mgrwt>
<rscale>  0 0.32558716E+02</rscale>
<asrwt>0</asrwt>
<pdfrwt beam="1">  1        2 0.25117776E-01 0.51124409E+02</pdfrwt>
<pdfrwt beam="2">  1        1 0.21199588E+00 0.20735105E+02</pdfrwt>
<totfact> 0.30496603E+02</totfact>
</mgrwt>
</event>
<event>
 7    1  0.5277388E-004  0.6046050E+02  0.7546771E-02  0.1534079E+00
          1   -1    0    0  502    0 -0.00000000000E+00  0.00000000000E+00  0.14185982462E+04  0.14185982462E+04  0.00000000000E+00 0. -1.
          2   -1    0    0  503    0  0.00000000000E+00 -0.00000000000E+00 -0.80872328696E+03  0.80872328696E+03  0.00000000000E+00 0. -1.
         25    2    1    2    0    0 -0.24129629348E+02  0.35479429706E+02  0.31171554850E+03  0.33857349335E+03  0.12499759309E+03 0.  0.
          4    1    3    3  501    0 -0.42275734837E+02  0.16361311849E+02  0.30869912947E+03  0.31201233264E+03  0.12700000000E+01 0.  1.
         -4    1    3    3    0  501  0.18146105489E+02  0.19118117857E+02  0.30164190299E+01  0.26561160715E+02  0.12700000000E+01 0.  1.
          2    1    1    2  502    0  0.45532687970E+01  0.21795482980E+02  0.10921884260E+04  0.10924153666E+04  0.00000000000E+00 0. -1.
          1    1    1    2  503    0  0.19576360552E+02 -0.57274912686E+02 -0.79402901520E+03  0.79633267325E+03  0.00000000000E+00 0. -1.
<mgrwt>
<rscale>  0 0.36690792E+02</rscale>
<asrwt>0</asrwt>
<pdfrwt beam="2">  1        2 0.12441897E+00 0.60460497E+02</pdfrwt>
<pdfrwt beam="1">  1        1 0.21824588E+00 0.22266013E+02</pdfrwt>
<totfact> 0.52304493E+01</totfact>
</mgrwt>
</event>
<event>
 7    1  0.5277388E-004  0.1560966E+03  0.7546771E-02  0.1318875E+00
         -1   -1    0    0    0  502 -0.00000000000E+00  0.00000000000E+00  0.59165192605E+03  0.59165192605E+03  0.00000000000E+00 0.  1.
         -2   -1    0    0    0  501  0.00000000000E+00 -0.00000000000E+00 -0.95129575399E+03  0.95129575399E+03  0.00000000000E+00 0.  1.
         25    2    1    2    0    0 -0.39612311822E+02 -0.16465653401E+03 -0.37002703603E+03  0.42570585625E+03  0.12499823683E+03 0.  0.
          4    1    3    3  503    0  0.33815014285E+02 -0.10880160928E+03 -0.16119785225E+03  0.19740214245E+03  0.12700000000E+01 0. -1.
         -4    1    3    3    0  503 -0.73427326107E+02 -0.55854924726E+02 -0.20882918378E+03  0.22830371380E+03  0.12700000000E+01 0. -1.
         -2    1    1    2    0  502 -0.43885054805E+01  0.15583010184E+03  0.55209101533E+03  0.57367827990E+03  0.00000000000E+00 0.  1.
         -1    1    1    2    0  501  0.44000817302E+02  0.88264321632E+01 -0.54170780724E+03  0.54356354389E+03  0.00000000000E+00 0.  1.
<mgrwt>
<rscale>  0 0.83697090E+02</rscale>
<asrwt>0</asrwt>
<pdfrwt beam="2">  1       -2 0.14635319E+00 0.44877364E+02</pdfrwt>
<pdfrwt beam="1">  1       -1 0.91023374E-01 0.15609657E+03</pdfrwt>
<totfact> 0.34925405E+00</totfact>
</mgrwt>
</event>
<event>
 7    1  0.5277388E-004  0.8086791E+02  0.7546771E-02  0.1379019E+00
          2   -1    0    0  503    0  0.00000000000E+00  0.00000000000E+00  0.28999255840E+03  0.28999255840E+03  0.00000000000E+00 0. -1.
         -2   -1    0    0    0  501 -0.00000000000E+00 -0.00000000000E+00 -0.10547829344E+03  0.10547829344E+03  0.00000000000E+00 0.  1.
         25    2    1    2    0    0  0.56855831256E+00  0.59606859283E+02  0.10955685094E+03  0.17658112792E+03  0.12499956087E+03 0.  0.
          4    1    3    3  502    0  0.24096613118E+02  0.83527132005E+02  0.11328074013E+03  0.14279904597E+03  0.12700000000E+01 0. -1.
         -4    1    3    3    0  502 -0.23528054805E+02 -0.23920272721E+02 -0.37238891956E+01  0.33782081948E+02  0.12700000000E+01 0. -1.
          1    1    1    2  503    0  0.45975283663E+02 -0.82343154328E+02  0.11834011589E+03  0.15132251915E+03  0.00000000000E+00 0. -1.
         -1    1    1    2    0  501 -0.46543841976E+02  0.22736295045E+02 -0.43382701873E+02  0.67567204767E+02  0.00000000000E+00 0.  1.
<mgrwt>
<rscale>  0 0.64722328E+02</rscale>
<asrwt>0</asrwt>
<pdfrwt beam="1">  1        2 0.44614240E-01 0.80867908E+02</pdfrwt>
<pdfrwt beam="2">  1       -2 0.16227430E-01 0.51800274E+02</pdfrwt>
<totfact> 0.31249687E+03</totfact>
</mgrwt>
</event>
<event>
 7    1  0.5277388E-004  0.9734684E+02  0.7546771E-02  0.1386802E+00
          1   -1    0    0  502    0 -0.00000000000E+00  0.00000000000E+00  0.97901331412E+02  0.97901331412E+02  0.00000000000E+00 0. -1.
          2   -1    0    0  503    0  0.00000000000E+00 -0.00000000000E+00 -0.10730824045E+04  0.10730824045E+04  0.00000000000E+00 0. -1.
         25    2    1    2    0    0 -0.69671728262E+02 -0.58907574044E+02 -0.30234841980E+03  0.33967019787E+03  0.12504808821E+03 0.  0.
          4    1    3    3  501    0 -0.16462703097E+02  0.37052944483E+02 -0.49232632412E+02  0.63791898250E+02  0.12700000000E+01 0. -1.
         -4    1    3    3    0  501 -0.53209025165E+02 -0.95960518528E+02 -0.25311578739E+03  0.27587829962E+03  0.12700000000E+01 0. -1.
          2    1    1    2  502    0 -0.25965594613E+02  0.30945547543E+02  0.70542549950E+02  0.81290161581E+02  0.00000000000E+00 0. -1.
          1    1    1    2  503    0  0.95637322875E+02  0.27962026501E+02 -0.74337520324E+03  0.75002337647E+03  0.00000000000E+00 0. -1.
<mgrwt>
<rscale>  0 0.62709054E+02</rscale>
<asrwt>0</asrwt>
<pdfrwt beam="2">  1        2 0.16508962E+00 0.97346838E+02</pdfrwt>
<pdfrwt beam="1">  1        1 0.15061742E-01 0.40396027E+02</pdfrwt>
<totfact> 0.11542507E+03</totfact>
</mgrwt>
</event>
<event>
 7    1  0.5277388E-004  0.4626683E+02  0.7546771E-02  0.1561355E+00
         -1   -1    0    0    0  501 -0.00000000000E+00  0.00000000000E+00  0.42666332559E+03  0.42666332559E+03  0.00000000000E+00 0.  1.
          1   -1    0    0  503    0  0.00000000000E+00 -0.00000000000E+00 -0.24140452254E+03  0.24140452254E+03  0.00000000000E+00 0. -1.
         25    2    1    2    0    0  0.17179578345E+02 -0.29582260653E+02  0.15917535135E+03  0.20526384146E+03  0.12500481621E+03 0.  0.
          4    1    3    3  502    0  0.26201878154E+02  0.16382378957E+02 -0.77516672694E+01  0.31884510417E+02  0.12700000000E+01 0.  1.
         -4    1    3    3    0  502 -0.90222998088E+01 -0.45964639610E+02  0.16692701862E+03  0.17337933105E+03  0.12700000000E+01 0.  1.
          2    1    1    2  503    0  0.23902233225E+02  0.49402963914E+01 -0.21531705859E+03  0.21669600597E+03  0.00000000000E+00 0. -1.
         -2    1    1    2    0  501 -0.41081811570E+02  0.24641964261E+02  0.24140051029E+03  0.24610800070E+03  0.00000000000E+00 0.  1.
<mgrwt>
<rscale>  0 0.33604389E+02</rscale>
<asrwt>0</asrwt>
<pdfrwt beam="2">  1        1 0.37139157E-01 0.24407443E+02</pdfrwt>
<pdfrwt beam="1">  1       -1 0.65640512E-01 0.46266828E+02</pdfrwt>
<totfact> 0.28519506E+02</totfact>
</mgrwt>
</event>
<event>
 7    1  0.5277388E-004  0.5253301E+02  0.7546771E-02  0.1452946E+00
          2   -1    0    0  503    0  0.00000000000E+00  0.00000000000E+00  0.85809180773E+03  0.85809180773E+03  0.00000000000E+00 0. -1.
         -2   -1    0    0    0  501 -0.00000000000E+00 -0.00000000000E+00 -0.19995228367E+02  0.19995228367E+02  0.00000000000E+00 0.  1.
         25    2    1    2    0    0 -0.67367227908E+01  0.55965227719E+02  0.59847824166E+03  0.61398567179E+03  0.12499883710E+03 0.  0.
          4    1    3    3  502    0 -0.63766709502E+02  0.42704918324E+02  0.38755486468E+03  0.39508263607E+03  0.12700000000E+01 0. -1.
         -4    1    3    3    0  502  0.57029986711E+02  0.13260309395E+02  0.21092337698E+03  0.21890303572E+03  0.12700000000E+01 0. -1.
          3    1    1    2  503    0  0.42376130200E+02 -0.15121457725E+02  0.17008349328E+03  0.17593404895E+03  0.00000000000E+00 0. -1.
         -3    1    1    2    0  501 -0.35639407410E+02 -0.40843769994E+02  0.69534844424E+02  0.88167315355E+02  0.00000000000E+00 0.  1.
<mgrwt>
<rscale>  0 0.48617203E+02</rscale>
<asrwt>0</asrwt>
<pdfrwt beam="1">  1        2 0.13201410E+00 0.44993276E+02</pdfrwt>
<pdfrwt beam="2">  1       -2 0.30761896E-02 0.52533014E+02</pdfrwt>
<totfact> 0.11824390E+04</totfact>
</mgrwt>
</event>
<event>
 7    1  0.5277388E-004  0.1145100E+03  0.7546771E-02  0.1305031E+00
          2   -1    0    0  503    0  0.00000000000E+00  0.00000000000E+00  0.13597006763E+04  0.13597006763E+04  0.00000000000E+00 0. -1.
          1   -1    0    0  502    0 -0.00000000000E+00 -0.00000000000E+00 -0.44543898830E+03  0.44543898830E+03  0.00000000000E+00 0. -1.
         25    2    1    2    0    0  0.43377157556E+02  0.29118379428E+02  0.69614113149E+02  0.15231717788E+03  0.12499976044E+03 0.  0.
          4    1    3    3  501    0  0.67708569885E+02  0.35081690486E+02  0.91436864527E+02  0.11906925942E+03  0.12700000000E+01 0.  1.
         -4    1    3    3    0  501 -0.24331412329E+02 -0.59633110579E+01 -0.21822751378E+02  0.33247918467E+02  0.12700000000E+01 0.  1.
          2    1    1    2  502    0 -0.11098975419E+03 -0.44488923825E+02 -0.39425093168E+03  0.41198517814E+03  0.00000000000E+00 0. -1.
          1    1    1    2  503    0  0.67612596637E+02  0.15370544397E+02  0.12388985065E+04  0.12408373086E+04  0.00000000000E+00 0. -1.
<mgrwt>
<rscale>  0 0.89105893E+02</rscale>
<asrwt>0</asrwt>
<pdfrwt beam="1">  1        2 0.20918472E+00 0.69337702E+02</pdfrwt>
<pdfrwt beam="2">  1        1 0.68529076E-01 0.11451000E+03</pdfrwt>
<totfact> 0.13153835E+02</totfact>
</mgrwt>
</event>
<event>
 7    1  0.5277388E-004  0.5781918E+02  0.7546771E-02  0.1415323E+00
         -2   -1    0    0    0  501 -0.00000000000E+00  0.00000000000E+00  0.36496618752E+03  0.36496618752E+03  0.00000000000E+00 0.  1.
          2   -1    0    0  503    0  0.00000000000E+00 -0.00000000000E+00 -0.55870008457E+03  0.55870008457E+03  0.00000000000E+00 0. -1.
         25    2    1    2    0    0 -0.32097660525E+02  0.10095129858E+03 -0.20843290044E+03  0.26513277994E+03  0.12501876866E+03 0.  0.
          4    1    3    3  502    0  0.24202394219E+02  0.82253681438E+02 -0.58279037707E+02  0.10367971418E+03  0.12700000000E+01 0.  1.
         -4    1    3    3    0  502 -0.56300054744E+02  0.18697617142E+02 -0.15015386273E+03  0.16145306576E+03  0.12700000000E+01 0.  1.
          1    1    1    2  503    0 -0.12508332212E+01 -0.54267755961E+02 -0.31714993594E+03  0.32176176869E+03  0.00000000000E+00 0. -1.
         -1    1    1    2    0  501  0.33348493746E+02 -0.46683542620E+02  0.33184893934E+03  0.33677172346E+03  0.00000000000E+00 0.  1.
<mgrwt>
<rscale>  0 0.56022766E+02</rscale>
<asrwt>0</asrwt>
<pdfrwt beam="2">  1        2 0.85953859E-01 0.54282169E+02</pdfrwt>
<pdfrwt beam="1">  1       -2 0.56148644E-01 0.57819177E+02</pdfrwt>
<totfact> 0.17462218E+02</totfact>
</mgrwt>
</event>
<event>
 7    1  0.5277388E-004  0.4817338E+02  0.7546771E-02  0.1533333E+00
          2   -1    0    0  503    0  0.00000000000E+00  0.00000000000E+00  0.97340635108E+02  0.97340635108E+02  0.00000000000E+00 0. -1.
          1   -1    0    0  502    0 -0.00000000000E+00 -0.00000000000E+00 -0.53088924444E+03  0.53088924444E+03  0.00000000000E+00 0. -1.
         25    2    1    2    0    0 -0.74837413433E+02  0.10258338049E+02 -0.51623448550E+02  0.15490097454E+03  0.12499383794E+03 0.  0.
          4    1    3    3  501    0 -0.80143943141E+02 -0.33827810213E+02 -0.27039456139E+00  0.87000335511E+02  0.12700000000E+01 0.  1.
         -4    1    3    3    0  501  0.53065297074E+01  0.44086148261E+02 -0.51353053989E+02  0.67900639025E+02  0.12700000000E+01 0.  1.
          2    1    1    2  502    0  0.47116444108E+02 -0.57681374941E+01 -0.42185259317E+03  0.42451483022E+03  0.00000000000E+00 0. -1.
          1    1    1    2  503    0  0.27720969325E+02 -0.44902005546E+01  0.39927432382E+02  0.48814074794E+02  0.00000000000E+00 0. -1.
<mgrwt>
<rscale>  0 0.36780676E+02</rscale>
<asrwt>0</asrwt>
<pdfrwt beam="1">  1        2 0.14975483E-01 0.28082273E+02</pdfrwt>
<pdfrwt beam="2">  1        1 0.81675267E-01 0.48173385E+02</pdfrwt>
<totfact> 0.20544470E+03</totfact>
</mgrwt>
</event>
<event>
 7    1  0.5277388E-004  0.4609859E+02  0.7546771E-02  0.1510118E+00
          2   -1    0    0  503    0  0.00000000000E+00  0.00000000000E+00  0.86277829520E+03  0.86277829520E+03  0.00000000000E+00 0. -1.
         -2   -1    0    0    0  501 -0.00000000000E+00 -0.00000000000E+00 -0.26549185567E+03  0.26549185567E+03  0.00000000000E+00 0.  1.
         25    2    1    2    0    0 -0.38316464244E+01  0.36357426425E+02 -0.87714677489E+02  0.15700624781E+03  0.12498221167E+03 0.  0.
          4    1    3    3  502    0  0.54377007513E+01  0.17419338882E+02  0.31234117543E+02  0.36196477111E+02  0.12700000000E+01 0.  1.
         -4    1    3    3    0  502 -0.92693471757E+01  0.18938087543E+02 -0.11894879503E+03  0.12080977070E+03  0.12700000000E+01 0.  1.
          1    1    1    2  503    0 -0.30395415378E+02 -0.34807052002E+02  0.82542657538E+03  0.82671908378E+03  0.00000000000E+00 0. -1.
         -1    1    1    2    0  501  0.34227061802E+02 -0.15503744228E+01 -0.14042545837E+03  0.14454481928E+03  0.00000000000E+00 0.  1.
<mgrwt>
<rscale>  0 0.39742133E+02</rscale>
<asrwt>0</asrwt>
<pdfrwt beam="1">  1        2 0.13273512E+00 0.46098590E+02</pdfrwt>
<pdfrwt beam="2">  1       -2 0.40844901E-01 0.34262157E+02</pdfrwt>
<totfact> 0.19582966E+02</totfact>
</mgrwt>
</event>
<event>
 7    1  0.5277388E-004  0.1795235E+03  0.7546771E-02  0.1300334E+00
          1   -1    0    0  502    0 -0.00000000000E+00  0.00000000000E+00  0.13867112395E+04  0.13867112395E+04  0.00000000000E+00 0. -1.
          2   -1    0    0  503    0  0.00000000000E+00 -0.00000000000E+00 -0.18156251888E+04  0.18156251888E+04  0.00000000000E+00 0. -1.
         25    2    1    2    0    0 -0.13592811257E+03  0.82194052699E+02 -0.76542190926E+02  0.21613914358E+03  0.12500043324E+03 0.  0.
          4    1    3    3  501    0 -0.15561692158E+03  0.49154018976E+02 -0.67499561351E+02  0.17660845831E+03  0.12700000000E+01 0. -1.
         -4    1    3    3    0  501  0.19688809010E+02  0.33040033723E+02 -0.90426295755E+01  0.39530685275E+02  0.12700000000E+01 0. -1.
          2    1    1    2  502    0  0.73427376807E+01  0.45588673962E+02  0.13115836025E+04  0.13123962013E+04  0.00000000000E+00 0. -1.
          1    1    1    2  503    0  0.12858537489E+03 -0.12778272666E+03 -0.16639553608E+04  0.16738010834E+04  0.00000000000E+00 0. -1.
<mgrwt>
<rscale>  0 0.91047882E+02</rscale>
<asrwt>0</asrwt>
<pdfrwt beam="2">  1        2 0.27932695E+00 0.17952352E+03</pdfrwt>
<pdfrwt beam="1">  1        1 0.21334019E+00 0.46176217E+02</pdfrwt>
<totfact> 0.13269471E+01</totfact>
</mgrwt>
</event>
<event>
 7    1  0.5277388E-004  0.1471155E+03  0.7546771E-02  0.1253498E+00
          2   -1    0    0  503    0  0.00000000000E+00  0.00000000000E+00  0.23749918752E+03  0.23749918752E+03  0.00000000000E+00 0. -1.
          1   -1    0    0  502    0 -0.00000000000E+00 -0.00000000000E+00 -0.88873279964E+03  0.88873279964E+03  0.00000000000E+00 0. -1.
         25    2    1    2    0    0  0.17605746525E+03 -0.11473224361E+03 -0.51065145107E+03  0.56617089051E+03  0.12499941593E+03 0.  0.
          4    1    3    3  501    0  0.11346654178E+03 -0.84183103333E+02 -0.18300374914E+03  0.23119999154E+03  0.12700000000E+01 0.  1.
         -4    1    3    3    0  501  0.62590923469E+02 -0.30549140282E+02 -0.32764770193E+03  0.33497089896E+03  0.12700000000E+01 0.  1.
          2    1    1    2  502    0 -0.99237940628E+02  0.71401902165E+02 -0.32956521361E+03  0.35151049844E+03  0.00000000000E+00 0. -1.
          1    1    1    2  503    0 -0.76819524620E+02  0.43330341450E+02  0.18898305257E+03  0.20855059820E+03  0.00000000000E+00 0. -1.
<mgrwt>
<rscale>  0 0.11390867E+03</rscale>
<asrwt>0</asrwt>
<pdfrwt beam="1">  1        2 0.36538336E-01 0.88197267E+02</pdfrwt>
<pdfrwt beam="2">  1        1 0.13672812E+00 0.14711549E+03</pdfrwt>
<totfact> 0.38240140E+02</totfact>
</mgrwt>
</event>
<event>
 7    1  0.5277388E-004  0.1339650E+03  0.7546771E-02  0.1300024E+00
          1   -1    0    0  502    0 -0.00000000000E+00  0.00000000000E+00  0.17239614766E+04  0.17239614766E+04  0.00000000000E+00 0. -1.
          2   -1    0    0  503    0  0.00000000000E+00 -0.00000000000E+00 -0.45354843414E+02  0.45354843414E+02  0.00000000000E+00 0. -1.
         25    2    1    2    0    0 -0.75907259180E+02  0.12884845275E+03  0.48999795339E+03  0.52732955582E+03  0.12495851445E+03 0.  0.
          4    1    3    3  501    0  0.32510477144E+02  0.26919759534E+02  0.70045044076E+02  0.81789520582E+02  0.12700000000E+01 0.  1.
         -4    1    3    3    0  501 -0.10841773632E+03  0.10192869322E+03  0.41995290932E+03  0.44554003523E+03  0.12700000000E+01 0.  1.
          2    1    1    2  502    0 -0.32219185198E+02 -0.53037492976E+02  0.10451933022E+04  0.10470339491E+04  0.00000000000E+00 0. -1.
          1    1    1    2  503    0  0.10812644438E+03 -0.75810959779E+02  0.14341537762E+03  0.19495281515E+03  0.00000000000E+00 0. -1.
<mgrwt>
<rscale>  0 0.91178105E+02</rscale>
<asrwt>0</asrwt>
<pdfrwt beam="2">  1        2 0.69776695E-02 0.13396503E+03</pdfrwt>
<pdfrwt beam="1">  1        1 0.26522479E+00 0.62056841E+02</pdfrwt>
<totfact> 0.78213873E+02</totfact>
</mgrwt>
</event>
<event>
 7    1  0.5277388E-004  0.6540744E+02  0.7546771E-02  0.1508260E+00
          2   -1    0    0  503    0  0.00000000000E+00  0.00000000000E+00  0.15320681220E+04  0.15320681220E+04  0.00000000000E+00 0. -1.
          3   -1    0    0  502    0 -0.00000000000E+00 -0.00000000000E+00 -0.33151382112E+02  0.33151382112E+02  0.00000000000E+00 0. -1.
         25    2    1    2    0    0  0.74378717337E+02 -0.30667443696E+02  0.31754955389E+03  0.35062345977E+03  0.12500562255E+03 0.  0.
          4    1    3    3  501    0  0.43518485137E+02  0.26688205382E+02  0.38183809867E+02  0.63763117012E+02  0.12700000000E+01 0. -1.
         -4    1    3    3    0  501  0.30860232200E+02 -0.57355649078E+02  0.27936574403E+03  0.28686034276E+03  0.12700000000E+01 0. -1.
          2    1    1    2  502    0 -0.10189902315E+02  0.22229721421E+02 -0.62303747360E+01  0.25235138062E+02  0.00000000000E+00 0. -1.
          1    1    1    2  503    0 -0.64188815022E+02  0.84377222750E+01  0.11875975607E+04  0.11893609063E+04  0.00000000000E+00 0. -1.
<mgrwt>
<rscale>  0 0.39993362E+02</rscale>
<asrwt>0</asrwt>
<pdfrwt beam="1">  1        2 0.23570273E+00 0.65407445E+02</pdfrwt>
<pdfrwt beam="2">  1        3 0.51002138E-02 0.24453929E+02</pdfrwt>
<totfact> 0.14175386E+03</totfact>
</mgrwt>
</event>
